Title
82273
    1SAPS     N    1   3.245   5.797  11.030  0.0463  0.4113  0.2642
    1SAPS   HN1    2   3.160   5.799  11.091 -1.1098  1.6303 -1.3109
    1SAPS   HN2    3   3.239   5.884  10.974 -1.8796  1.0842  1.4090
    1SAPS   HN3    4   3.229   5.711  10.974  0.8099  0.2737  0.2569
    1SAPS   C12    5   3.375   5.788  11.092 -0.1653  0.9030 -0.0969
    1SAPS  H12A    6   3.381   5.862  11.170  1.0747  0.7967 -0.0753
    1SAPS   C13    7   3.412   5.657  11.161  0.6083  0.7843  0.0003
    1SAPS  O13A    8   3.327   5.565  11.176 -0.1186 -0.4808  0.1763
    1SAPS  O13B    9   3.521   5.648  11.221  0.5655 -0.2220 -0.1153
    1SAPS   C11   10   3.482   5.822  10.989  0.4612  0.5096 -0.5958
    1SAPS  H11A   11   3.487   5.752  10.903 -0.8343 -0.6422  0.2274
    1SAPS  H11B   12   3.580   5.812  11.040 -0.7922 -2.5438  1.4471
    1SAPS     P   13   3.544   6.084  10.971  0.0575  0.3728  0.0067
    1SAPS   O13   14   3.466   6.207  10.946  0.1653  0.3852 -0.3226
    1SAPS   O14   15   3.591   6.069  11.112 -0.4552 -0.4996  0.1213
    1SAPS   O12   16   3.470   5.953  10.932  0.4326  0.6046  0.3471
    1SAPS   O11   17   3.663   6.084  10.871 -0.0236  0.0693  0.3154
    1SAPS    C1   18   3.652   6.064  10.731 -0.0532  0.3635  0.4122
    1SAPS    HA   19   3.563   6.000  10.713 -1.3183  2.7117 -2.7436
    1SAPS    HB   20   3.654   6.164  10.682  0.9688  0.6074  0.9363
    1SAPS    C2   21   3.770   5.984  10.669  0.4804 -0.1453 -0.1459
    1SAPS    HS   22   3.856   6.054  10.670  0.4282 -0.0661  1.5344
    1SAPS   O21   23   3.734   5.942  10.532  0.0238 -0.1182 -0.2209
    1SAPS   C21   24   3.736   6.051  10.451 -0.7833  0.1760  0.3821
    1SAPS   O22   25   3.767   6.166  10.476 -0.4349 -0.4913  0.1989
    1SAPS   C22   26   3.690   5.999  10.316  0.0648  0.3616  0.2890
    1SAPS   H2R   27   3.677   6.087  10.249 -1.8048 -1.0942 -1.3942
    1SAPS   H2S   28   3.763   5.931  10.268 -0.7980  0.2858 -0.9754
    1SAPS    C3   29   3.800   5.864  10.757  0.2906  0.0251 -0.5861
    1SAPS    HX   30   3.711   5.805  10.787  1.0166 -1.5727 -1.4702
    1SAPS    HY   31   3.844   5.903  10.851  0.1539  0.2135 -0.5995
    1SAPS   O31   32   3.903   5.777  10.692 -0.1514  0.0123 -0.3473
    1SAPS   C31   33   3.862   5.650  10.676 -0.3765  0.5759 -0.2886
    1SAPS   O32   34   3.750   5.606  10.696 -0.3600  0.2949 -0.2219
    1SAPS   C32   35   3.980   5.573  10.634 -0.3526  0.1325 -0.0571
    1SAPS   H2X   36   3.981   5.476  10.688  0.8527  0.7869  1.1713
    1SAPS   H2Y   37   4.071   5.629  10.664 -1.1297  2.1772 -1.3329
    1SAPS   C23   38   3.553   5.917  10.314  0.1440  0.2083  0.2186
    1SAPS   H3R   39   3.487   5.959  10.393  1.1016 -2.4675  2.6047
    1SAPS   H3S   40   3.581   5.818  10.356 -2.2526 -0.1694  1.0703
    1SAPS   C24   41   3.501   5.891  10.170 -0.1519 -0.9988  0.2406
    1SAPS   H4R   42   3.469   5.986  10.122  0.0550 -1.6064 -1.1399
    1SAPS   H4S   43   3.414   5.823  10.177 -1.8893  0.9524 -1.2812
    1SAPS   C25   44   3.601   5.833  10.082 -0.6238  0.2280  0.0977
    1SAPS   H5R   45   3.681   5.771  10.126 -1.1238 -1.3421 -1.1332
    1SAPS   C26   46   3.602   5.860   9.947 -0.0955  0.3130 -0.6576
    1SAPS   H6R   47   3.692   5.816   9.901 -0.7142 -0.5145 -1.0850
    1SAPS   C27   48   3.514   5.944   9.857  0.5828 -0.1213 -0.7584
    1SAPS   H7R   49   3.475   6.032   9.913  0.1041 -1.5162  1.2312
    1SAPS   H7S   50   3.423   5.896   9.815  0.4290 -1.0672  0.5754
    1SAPS   C28   51   3.607   5.978   9.743 -0.7608 -0.4540 -0.6584
    1SAPS   H8R   52   3.708   6.006   9.778 -0.5086 -1.5711 -0.4268
    1SAPS   C29   53   3.586   5.973   9.610 -0.3688  0.3162 -0.1127
    1SAPS   H9R   54   3.667   5.997   9.541  0.9241 -1.5884  0.6670
    1SAPS  C210   55   3.457   5.946   9.527 -0.1376  1.2599  0.1144
    1SAPS  H10R   56   3.369   5.936   9.594  0.7348  1.0548  1.2533
    1SAPS  H10S   57   3.470   5.853   9.469 -0.8244  1.5833 -0.5704
    1SAPS  C211   58   3.430   6.065   9.445  0.2426 -1.0492  0.0696
    1SAPS  H11R   59   3.413   6.156   9.505 -0.7287 -0.7734 -0.6106
    1SAPS  C212   60   3.431   6.078   9.315  0.0187  0.0683  0.0839
    1SAPS  H12R   61   3.411   6.180   9.280  1.1866  0.4489  0.4843
    1SAPS  C213   62   3.461   5.976   9.207  0.5387 -0.3225 -0.2376
    1SAPS  H13R   63   3.370   5.916   9.187 -0.2033  0.9183 -0.6802
    1SAPS  H13S   64   3.526   5.895   9.247 -0.4423 -0.5048  1.0574
    1SAPS  C214   65   3.517   6.043   9.084  0.7078  0.1896  0.1562
    1SAPS  H14R   66   3.623   6.069   9.086  1.1682 -1.4451 -0.9246
    1SAPS  C215   67   3.440   6.068   8.975 -0.4110  0.0970  0.5632
    1SAPS  H15R   68   3.482   6.134   8.897 -0.6449  0.4710  0.7478
    1SAPS  C216   69   3.287   6.052   8.959 -0.1813  0.6542 -0.7013
    1SAPS  H16R   70   3.241   6.025   9.057 -1.2130 -1.2949 -1.6720
    1SAPS  H16S   71   3.256   5.973   8.887 -0.0302 -1.3106  1.2603
    1SAPS  C217   72   3.230   6.179   8.904 -0.0574 -0.0060 -0.5863
    1SAPS  H17R   73   3.121   6.162   8.890 -0.3480  0.0396  1.3162
    1SAPS  H17S   74   3.281   6.193   8.807 -0.5095 -0.3807 -0.8849
    1SAPS  C218   75   3.242   6.299   9.004  0.9112  0.3850  0.2622
    1SAPS  H18R   76   3.216   6.389   8.944 -3.3210  0.6543  2.1219
    1SAPS  H18S   77   3.343   6.298   9.050  1.1495 -0.4338 -0.2459
    1SAPS  C219   78   3.146   6.310   9.118 -0.0650  0.4416  0.4280
    1SAPS  H19R   79   3.159   6.409   9.168 -3.1390  0.6040  1.1122
    1SAPS  H19S   80   3.161   6.242   9.204 -0.5223 -1.0614 -0.6427
    1SAPS  C220   81   3.004   6.292   9.062 -0.4537 -0.5098 -0.3533
    1SAPS  H20R   82   2.988   6.185   9.041 -0.1950 -0.6256  0.0218
    1SAPS  H20S   83   2.983   6.348   8.969  1.7008 -0.4974 -0.8878
    1SAPS  H20T   84   2.938   6.310   9.150  1.5070 -2.0014  1.5458
    1SAPS   C33   85   3.975   5.534  10.488 -0.0015  0.6116  0.0161
    1SAPS   H3X   86   4.066   5.476  10.463 -0.1079  1.2460 -1.9419
    1SAPS   H3Y   87   3.962   5.630  10.434 -0.0862  0.6844  0.1661
    1SAPS   C34   88   3.866   5.433  10.456  0.3678 -0.2539 -0.5118
    1SAPS   H4X   89   3.768   5.485  10.453  1.4414  1.8461 -1.1047
    1SAPS   H4Y   90   3.857   5.353  10.533 -2.6837  1.9858  1.7160
    1SAPS   C35   91   3.884   5.378  10.310 -0.6285 -0.0958 -0.5090
    1SAPS   H5X   92   3.886   5.459  10.234 -0.5652  1.7944  1.4202
    1SAPS   H5Y   93   3.792   5.324  10.279 -1.0028  0.6147 -0.6555
    1SAPS   C36   94   3.994   5.273  10.296 -0.5499 -1.0543 -0.8704
    1SAPS   H6X   95   3.990   5.217  10.392  0.8552  1.0478  0.5218
    1SAPS   H6Y   96   4.097   5.314  10.301 -0.8066 -0.3708 -1.0584
    1SAPS   C37   97   3.990   5.182  10.172 -0.3778  0.4661 -0.2291
    1SAPS   H7X   98   3.888   5.139  10.176 -0.4212  0.5853 -0.0672
    1SAPS   H7Y   99   4.064   5.101  10.192 -0.1776  0.7482  0.1778
    1SAPS   C38  100   4.009   5.255  10.040 -0.1389 -1.0961  0.3826
    1SAPS   H8X  101   4.112   5.295  10.039 -0.4179 -0.2268  1.9439
    1SAPS   H8Y  102   3.932   5.335  10.031 -0.6673 -1.4121  1.8427
    1SAPS   C39  103   4.009   5.159   9.916 -0.0989 -0.0269 -0.0129
    1SAPS   H9X  104   3.918   5.097   9.924 -0.5331  0.8277  2.2223
    1SAPS   H9Y  105   4.092   5.086   9.912  1.0556  1.2752 -2.5133
    1SAPS  C310  106   4.008   5.242   9.787 -0.6399 -0.1265 -0.0204
    1SAPS  H10X  107   4.092   5.315   9.792 -0.1558 -0.7343  1.1816
    1SAPS  H10Y  108   3.909   5.290   9.771 -0.3661  1.8835  3.3676
    1SAPS  C311  109   4.012   5.154   9.657 -0.0064 -0.4662 -0.7158
    1SAPS  H11X  110   3.941   5.069   9.665  1.3071 -1.5223  0.0307
    1SAPS  H11Y  111   4.117   5.119   9.659 -0.0132 -0.4677  0.4471
    1SAPS  C312  112   3.972   5.237   9.536  0.7177  0.4161 -0.2863
    1SAPS  H12X  113   4.056   5.308   9.518  0.7121 -0.0223 -2.3090
    1SAPS  H12Y  114   3.884   5.303   9.553  1.3864  1.0940  0.6378
    1SAPS  C313  115   3.965   5.146   9.416  0.2232 -0.4145  0.4727
    1SAPS  H13X  116   3.880   5.079   9.442 -0.3374  0.0713 -0.0567
    1SAPS  H13Y  117   4.057   5.085   9.416 -0.1266 -0.9535  0.0514
    1SAPS  C314  118   3.942   5.221   9.278 -0.2381  0.5306  0.2525
    1SAPS  H14X  119   4.009   5.309   9.264  2.9914 -1.8721 -0.6168
    1SAPS  H14Y  120   3.837   5.257   9.277 -1.5410 -2.9640  0.0878
    1SAPS  C315  121   3.948   5.135   9.157  0.1685  0.0348 -0.0516
    1SAPS  H15X  122   3.880   5.048   9.170  0.9802 -0.4400  1.2418
    1SAPS  H15Y  123   4.046   5.082   9.154 -0.9195 -2.0382 -0.7610
    1SAPS  C316  124   3.913   5.205   9.031 -0.0167 -0.7447 -0.2577
    1SAPS  H16X  125   3.927   5.145   8.939  1.3246 -0.5445 -0.2046
    1SAPS  H16Y  126   4.001   5.272   9.013 -0.5608  0.1540  0.3564
    1SAPS  C317  127   3.776   5.278   9.029  0.3283 -0.5084 -0.1144
    1SAPS  H17X  128   3.776   5.330   8.931  1.9620 -1.2075 -0.5140
    1SAPS  H17Y  129   3.780   5.362   9.102 -1.9835 -0.7391  0.3578
    1SAPS  C318  130   3.661   5.186   9.037 -0.3339  0.0347 -0.0163
    1SAPS  H18X  131   3.569   5.248   9.043 -1.4051 -1.3519 -1.1900
    1SAPS  H18Y  132   3.675   5.118   9.124  0.7918  0.2083 -0.0543
    1SAPS  H18Z  133   3.648   5.130   8.941 -1.3134  0.5817 -0.2166
    2SAPS     N  134   2.741   1.205  10.818 -0.3147  0.2694 -0.4539
    2SAPS   HN1  135   2.803   1.264  10.876 -2.0552  2.8213 -1.0242
    2SAPS   HN2  136   2.723   1.263  10.733  1.1172  0.9867 -0.2873
    2SAPS   HN3  137   2.662   1.197  10.885  0.7417 -1.9264  0.6359
    2SAPS   C12  138   2.795   1.073  10.796  0.1026  1.0563 -0.3692
    2SAPS  H12A  139   2.878   1.080  10.727  0.3761 -0.6604 -0.2702
    2SAPS   C13  140   2.845   1.004  10.928 -0.8897 -0.0348  0.0404
    2SAPS  O13A  141   2.844   1.066  11.035  0.5742 -0.2622 -0.2685
    2SAPS  O13B  142   2.910   0.903  10.916 -0.0345  0.0006 -0.0466
    2SAPS   C11  143   2.684   0.983  10.730 -0.4715 -0.6110  0.6112
    2SAPS  H11A  144   2.714   0.876  10.735 -1.0738 -0.7716  0.8331
    2SAPS  H11B  145   2.679   1.031  10.630  0.6271 -0.1350  0.7750
    2SAPS     P  146   2.425   0.958  10.756  0.4293  0.1112 -0.0305
    2SAPS   O13  147   2.420   0.816  10.795  0.4676 -0.5568 -0.2094
    2SAPS   O14  148   2.317   1.055  10.804 -0.2549 -0.1227 -0.3028
    2SAPS   O12  149   2.565   1.016  10.796  0.0892  0.4001 -0.3005
    2SAPS   O11  150   2.432   0.956  10.596  0.1581  0.5750 -0.0477
    2SAPS    C1  151   2.325   0.878  10.536 -0.5469 -0.2589  0.3991
    2SAPS    HA  152   2.312   0.775  10.575 -0.4188 -0.7452 -0.7870
    2SAPS    HB  153   2.226   0.927  10.550 -2.4067 -3.9970  1.4002
    2SAPS    C2  154   2.351   0.864  10.389  0.5549  0.3765 -0.5772
    2SAPS    HS  155   2.346   0.963  10.338 -0.6519  0.8236  0.3669
    2SAPS   O21  156   2.258   0.770  10.337 -0.1036  0.2062 -0.4520
    2SAPS   C21  157   2.137   0.816  10.319 -0.1639  0.0464 -0.2533
    2SAPS   O22  158   2.105   0.935  10.334  0.6495  0.4315 -0.2140
    2SAPS   C22  159   2.045   0.698  10.275 -0.2946 -0.7354 -0.2612
    2SAPS   H2R  160   2.101   0.604  10.255  0.3764 -0.4889  0.4249
    2SAPS   H2S  161   2.002   0.670  10.374  2.8274 -1.2399  1.0840
    2SAPS    C3  162   2.493   0.812  10.371  0.1729 -0.4806 -0.3454
    2SAPS    HX  163   2.495   0.719  10.432 -0.1022  0.0938  0.5653
    2SAPS    HY  164   2.564   0.877  10.428  0.1716  0.3948 -1.3221
    2SAPS   O31  165   2.537   0.790  10.237  0.6136 -0.0910  0.1476
    2SAPS   C31  166   2.589   0.891  10.171  0.5445  0.3938  0.7584
    2SAPS   O32  167   2.603   1.004  10.220  0.0920  0.0785 -0.2118
    2SAPS   C32  168   2.619   0.846  10.026 -0.1353 -0.8937 -0.4575
    2SAPS   H2X  169   2.552   0.767   9.987 -0.2370 -1.0702  0.0735
    2SAPS   H2Y  170   2.714   0.789  10.022  1.3770  1.3716  0.9794
    2SAPS   C23  171   1.941   0.741  10.172 -0.2230 -0.3961  0.2853
    2SAPS   H3R  172   1.884   0.826  10.217 -0.0525 -0.4710  0.6468
    2SAPS   H3S  173   1.868   0.658  10.157  2.1557 -3.2755  3.1749
    2SAPS   C24  174   2.009   0.795  10.034  0.1346  0.5853 -0.0491
    2SAPS   H4R  175   2.106   0.844  10.057 -0.9039  3.1811 -0.8593
    2SAPS   H4S  176   1.953   0.873   9.978  0.7992  0.5655 -0.7503
    2SAPS   C25  177   2.038   0.672   9.955 -0.2415 -0.0199  0.3977
    2SAPS   H5R  178   1.944   0.625   9.925 -0.1391 -0.4932  0.8009
    2SAPS   C26  179   2.156   0.623   9.915 -1.0098  0.2716  0.2351
    2SAPS   H6R  180   2.150   0.532   9.854  0.8927 -0.6384  1.3127
    2SAPS   C27  181   2.297   0.685   9.945 -0.0625 -0.4101 -0.3722
    2SAPS   H7R  182   2.307   0.733  10.045  1.5538 -0.9095 -0.2610
    2SAPS   H7S  183   2.326   0.766   9.875  0.9118 -1.5111 -1.2807
    2SAPS   C28  184   2.387   0.572   9.936 -0.1044 -0.2869  0.1062
    2SAPS   H8R  185   2.402   0.509  10.025  1.7981 -0.4020 -0.2447
    2SAPS   C29  186   2.465   0.532   9.833  0.5987 -0.4818  0.1224
    2SAPS   H9R  187   2.519   0.438   9.848 -0.9962 -1.4129  0.2117
    2SAPS  C210  188   2.487   0.600   9.696  0.4971 -0.4674  0.3299
    2SAPS  H10R  189   2.597   0.605   9.680  0.6932 -2.5651  0.7538
    2SAPS  H10S  190   2.449   0.705   9.698  1.2207  0.0328 -3.5699
    2SAPS  C211  191   2.419   0.532   9.580 -0.5139  0.5006 -1.2251
    2SAPS  H11R  192   2.341   0.460   9.607  2.1530 -1.5291  1.8921
    2SAPS  C212  193   2.468   0.533   9.457  0.0591 -0.1442 -1.0823
    2SAPS  H12R  194   2.416   0.480   9.376  0.0769  0.1416 -1.2849
    2SAPS  C213  195   2.601   0.596   9.406  0.2563 -0.2579  0.0963
    2SAPS  H13R  196   2.669   0.512   9.379  1.1172 -0.0944  1.6149
    2SAPS  H13S  197   2.650   0.644   9.493  3.3681 -0.2684 -1.5254
    2SAPS  C214  198   2.572   0.691   9.290 -0.2220  0.7108  0.3280
    2SAPS  H14R  199   2.510   0.776   9.321  0.8163  1.5820  0.0460
    2SAPS  C215  200   2.603   0.675   9.156  0.1773  0.6590  0.1782
    2SAPS  H15R  201   2.585   0.764   9.095  0.8553 -1.2431 -3.0773
    2SAPS  C216  202   2.685   0.561   9.098 -0.0481 -0.4445  0.7029
    2SAPS  H16R  203   2.620   0.505   9.028  0.5041 -0.1324 -0.0711
    2SAPS  H16S  204   2.717   0.494   9.181 -0.7887  0.7082  1.9661
    2SAPS  C217  205   2.805   0.610   9.005 -0.3287 -0.2740 -0.1009
    2SAPS  H17R  206   2.866   0.518   8.991  0.2709  0.2917 -1.3914
    2SAPS  H17S  207   2.863   0.689   9.058 -0.7230  0.4303 -0.6994
    2SAPS  C218  208   2.775   0.664   8.870  0.2920 -0.1718 -0.2479
    2SAPS  H18R  209   2.716   0.759   8.873 -0.7694 -0.6859 -2.2547
    2SAPS  H18S  210   2.716   0.596   8.804  0.8101 -0.0388 -0.8576
    2SAPS  C219  211   2.905   0.714   8.794 -0.5620  0.6034  0.5909
    2SAPS  H19R  212   2.985   0.638   8.804 -0.2849  1.0328  1.7288
    2SAPS  H19S  213   2.943   0.801   8.851  0.6666 -0.7290  1.8618
    2SAPS  C220  214   2.882   0.763   8.653  0.5325  0.9272 -0.4375
    2SAPS  H20R  215   2.864   0.678   8.584  1.8877  1.4201 -1.4592
    2SAPS  H20S  216   2.974   0.813   8.615  0.5540  1.6014  0.4647
    2SAPS  H20T  217   2.795   0.832   8.651  1.0468  1.5873 -0.1405
    2SAPS   C33  218   2.645   0.974   9.944 -0.3742 -0.1047  0.2359
    2SAPS   H3X  219   2.747   1.005   9.977  0.2040 -3.3270  1.9355
    2SAPS   H3Y  220   2.563   1.048   9.952 -0.1560  0.1636  0.0203
    2SAPS   C34  221   2.660   0.932   9.788  0.2418  0.1232  0.4973
    2SAPS   H4X  222   2.573   0.876   9.748  1.4882 -1.1572 -0.5419
    2SAPS   H4Y  223   2.744   0.860   9.802  0.2990  0.3680  1.4569
    2SAPS   C35  224   2.697   1.042   9.689 -0.3085 -0.2222 -0.8424
    2SAPS   H5X  225   2.768   1.116   9.732 -1.3635  0.3062  0.0427
    2SAPS   H5Y  226   2.600   1.093   9.670 -1.1791 -1.8693 -1.0207
    2SAPS   C36  227   2.748   0.984   9.553 -0.4417 -0.4204  0.5352
    2SAPS   H6X  228   2.700   0.889   9.523  1.2279 -0.6775 -1.5069
    2SAPS   H6Y  229   2.856   0.965   9.567 -0.3004  0.7442  1.1966
    2SAPS   C37  230   2.725   1.080   9.436  0.3953 -0.5621  0.9554
    2SAPS   H7X  231   2.775   1.175   9.464  0.4477 -0.1424 -0.5144
    2SAPS   H7Y  232   2.616   1.095   9.421  0.1319 -1.0952  2.1767
    2SAPS   C38  233   2.774   1.014   9.301 -0.0699  0.0819  0.5658
    2SAPS   H8X  234   2.707   0.927   9.279  0.3975  0.4161 -2.7964
    2SAPS   H8Y  235   2.880   0.982   9.303  0.0457  0.5166  1.4171
    2SAPS   C39  236   2.754   1.114   9.190  0.2021  0.5142  0.4706
    2SAPS   H9X  237   2.830   1.194   9.202  2.6768 -1.4221 -1.3071
    2SAPS   H9Y  238   2.651   1.154   9.186 -1.1164 -2.6504 -0.2538
    2SAPS  C310  239   2.791   1.046   9.058  0.3455 -0.3706 -0.9253
    2SAPS  H10X  240   2.737   0.949   9.058  0.9062 -0.7009  0.7313
    2SAPS  H10Y  241   2.901   1.036   9.063  0.3104 -1.5917 -1.9993
    2SAPS  C311  242   2.759   1.118   8.931 -0.3433 -0.2524  0.8312
    2SAPS  H11X  243   2.799   1.058   8.846  0.3138  1.1245  0.1331
    2SAPS  H11Y  244   2.821   1.210   8.933 -2.6663  1.4432  0.3640
    2SAPS  C312  245   2.610   1.148   8.896 -0.4077  0.5764 -0.0932
    2SAPS  H12X  246   2.566   1.189   8.990  0.0067 -0.2150  0.4608
    2SAPS  H12Y  247   2.566   1.048   8.875  1.4871 -0.6647  1.4767
    2SAPS  C313  248   2.602   1.236   8.772  0.0986 -0.2414  0.1621
    2SAPS  H13X  249   2.672   1.196   8.696 -1.0352 -1.0669 -0.4882
    2SAPS  H13Y  250   2.619   1.344   8.787  0.3999 -0.3544  0.6433
    2SAPS  C314  251   2.459   1.230   8.714  0.3012  0.0901  0.2572
    2SAPS  H14X  252   2.437   1.311   8.642 -0.7199  0.0239  0.4791
    2SAPS  H14Y  253   2.382   1.239   8.793 -1.9747  1.8671 -2.0110
    2SAPS  C315  254   2.437   1.105   8.636 -0.3234  0.1108 -0.5086
    2SAPS  H15X  255   2.440   1.021   8.709  0.7794  1.1413  0.7065
    2SAPS  H15Y  256   2.515   1.093   8.557 -0.9531  0.2770 -1.1633
    2SAPS  C316  257   2.297   1.098   8.570  0.6124 -0.1143 -0.3913
    2SAPS  H16X  258   2.281   1.176   8.492 -1.1100  1.0322  1.0298
    2SAPS  H16Y  259   2.214   1.112   8.643  0.9212  0.5816 -0.1698
    2SAPS  C317  260   2.255   0.957   8.519 -0.0750  0.5251  0.1378
    2SAPS  H17X  261   2.293   0.877   8.586  1.0283  0.0094 -1.0622
    2SAPS  H17Y  262   2.309   0.956   8.422  0.1820  2.5368  0.2249
    2SAPS  C318  263   2.106   0.937   8.492  0.0451  0.0977  0.2022
    2SAPS  H18X  264   2.088   0.843   8.435  0.5821 -0.1068  0.3599
    2SAPS  H18Y  265   2.054   1.026   8.451 -3.0373 -0.7605  1.9224
    2SAPS  H18Z  266   2.047   0.924   8.585 -0.0871 -0.2348  0.0719
    3SAPS     N  267   5.091   3.823  10.597 -0.0497 -0.4505 -0.4743
    3SAPS   HN1  268   5.010   3.827  10.532 -0.3565  2.3317 -0.0282
    3SAPS   HN2  269   5.169   3.877  10.554 -0.2087 -1.8221 -2.6142
    3SAPS   HN3  270   5.131   3.727  10.607 -1.7839 -1.1038  0.5938
    3SAPS   C12  271   5.068   3.868  10.738 -0.0746 -0.4810 -0.4640
    3SAPS  H12A  272   4.995   3.811  10.794  0.6552 -0.1724  0.8471
    3SAPS   C13  273   5.196   3.894  10.828  0.2320  0.6346  0.1233
    3SAPS  O13A  274   5.312   3.879  10.789 -0.3866  0.2983 -0.6089
    3SAPS  O13B  275   5.169   3.922  10.950  0.1754  0.1629  0.4916
    3SAPS   C11  276   4.991   3.997  10.729  0.6173 -0.3325 -1.4224
    3SAPS  H11A  277   5.053   4.070  10.673  0.1962 -0.0201 -1.4836
    3SAPS  H11B  278   4.984   4.041  10.831 -1.4260  2.5023 -2.6344
    3SAPS     P  279   4.729   4.031  10.718 -0.1028 -0.2704  0.3183
    3SAPS   O13  280   4.643   3.934  10.779 -0.5277  0.6543 -0.0576
    3SAPS   O14  281   4.755   4.158  10.793 -0.0105  0.0459 -0.1309
    3SAPS   O12  282   4.871   3.969  10.674 -0.3996  0.1405  0.2408
    3SAPS   O11  283   4.677   4.073  10.581  0.0601 -0.3339  0.0087
    3SAPS    C1  284   4.761   4.163  10.499  0.6848 -0.1357  0.7508
    3SAPS    HA  285   4.694   4.231  10.443 -0.0891  0.2665  2.1224
    3SAPS    HB  286   4.828   4.239  10.546  2.2356 -0.3714 -0.9733
    3SAPS    C2  287   4.836   4.071  10.403 -0.7145 -0.3141 -0.4277
    3SAPS    HS  288   4.907   4.015  10.467 -2.4211  0.3786  2.2402
    3SAPS   O21  289   4.903   4.152  10.306  0.3462  0.1000  0.2148
    3SAPS   C21  290   5.010   4.215  10.344 -0.8105 -0.1541 -0.4514
    3SAPS   O22  291   5.060   4.209  10.454 -0.7787  0.0937 -0.5480
    3SAPS   C22  292   5.043   4.324  10.238  0.4481 -0.5273 -0.1672
    3SAPS   H2R  293   5.009   4.301  10.135  3.0224  0.6116 -1.3576
    3SAPS   H2S  294   4.987   4.414  10.270  2.1805  1.0154 -1.3030
    3SAPS    C3  295   4.744   3.963  10.347 -0.2484 -0.4152 -0.0326
    3SAPS    HX  296   4.647   4.008  10.319  0.0908  0.1490 -0.3180
    3SAPS    HY  297   4.720   3.888  10.425 -0.2063 -1.2087 -0.7566
    3SAPS   O31  298   4.806   3.905  10.226 -0.0825 -0.2802  0.2273
    3SAPS   C31  299   4.900   3.811  10.260 -0.4960  0.1138 -0.2535
    3SAPS   O32  300   4.931   3.781  10.374  0.8005 -0.4406  0.1426
    3SAPS   C32  301   4.972   3.766  10.142 -0.6219  0.5516  0.2270
    3SAPS   H2X  302   5.052   3.703  10.186 -1.4332  0.1255  1.1193
    3SAPS   H2Y  303   5.022   3.849  10.088 -0.3420 -1.7492 -3.4191
    3SAPS   C23  304   5.189   4.357  10.229 -1.2430 -0.3569  0.6947
    3SAPS   H3R  305   5.239   4.369  10.327 -1.2646 -1.0784  0.7984
    3SAPS   H3S  306   5.194   4.456  10.179 -0.6140 -0.6364  0.1938
    3SAPS   C24  307   5.265   4.261  10.139 -0.0496  0.5110  0.7452
    3SAPS   H4R  308   5.237   4.278  10.033  2.2231  2.1182  0.3371
    3SAPS   H4S  309   5.251   4.156  10.174 -0.1432 -0.2457 -1.4597
    3SAPS   C25  310   5.414   4.295  10.148 -0.0807 -0.6073 -0.8291
    3SAPS   H5R  311   5.459   4.324  10.244  0.1092  1.7008 -1.5552
    3SAPS   C26  312   5.508   4.304  10.052 -0.4884 -0.2816  0.8984
    3SAPS   H6R  313   5.609   4.344  10.070 -0.4280  0.8650 -1.5763
    3SAPS   C27  314   5.488   4.265   9.905 -0.0660 -0.7618  0.3885
    3SAPS   H7R  315   5.444   4.164   9.890  0.4089 -0.9476  0.2195
    3SAPS   H7S  316   5.590   4.261   9.860 -0.0313  0.9959  0.2618
    3SAPS   C28  317   5.412   4.377   9.833 -0.4599 -0.7557  0.2591
    3SAPS   H8R  318   5.366   4.450   9.902  1.1010  2.4525 -1.8561
    3SAPS   C29  319   5.381   4.381   9.699  0.2761 -0.2707  0.1766
    3SAPS   H9R  320   5.342   4.468   9.644  0.5456 -0.8120 -0.9045
    3SAPS  C210  321   5.424   4.270   9.602 -0.7247  0.2306  0.5125
    3SAPS  H10R  322   5.363   4.179   9.619 -0.7190 -0.4653 -2.6435
    3SAPS  H10S  323   5.528   4.238   9.623 -0.5618  0.9494  0.8323
    3SAPS  C211  324   5.403   4.307   9.458 -0.6131  0.6797 -0.0599
    3SAPS  H11R  325   5.475   4.383   9.425 -3.4506  3.2354 -0.7155
    3SAPS  C212  326   5.322   4.258   9.360 -0.1709  0.0327  0.5963
    3SAPS  H12R  327   5.321   4.304   9.261 -1.3172  1.1786  1.1068
    3SAPS  C213  328   5.225   4.133   9.379  0.2332  0.0464 -0.1934
    3SAPS  H13R  329   5.183   4.132   9.482  2.9536 -0.8848  1.0018
    3SAPS  H13S  330   5.287   4.043   9.363 -0.4435 -0.3827 -0.4436
    3SAPS  C214  331   5.112   4.125   9.279  0.2933 -0.3835 -1.1161
    3SAPS  H14R  332   5.112   4.189   9.189  1.2141  0.1402 -0.7570
    3SAPS  C215  333   5.000   4.049   9.301  0.2089  0.1092 -0.3821
    3SAPS  H15R  334   4.918   4.057   9.229  0.7095  1.6221 -0.8381
    3SAPS  C216  335   4.968   3.981   9.432  0.0856 -1.2359 -0.0433
    3SAPS  H16R  336   5.056   3.935   9.483 -1.1755 -1.7339  1.7802
    3SAPS  H16S  337   4.899   3.898   9.407 -0.0041 -1.1825  0.0273
    3SAPS  C217  338   4.910   4.080   9.535  0.0815  0.5747  0.3034
    3SAPS  H17R  339   4.818   4.129   9.499 -0.5935  0.0462  1.2656
    3SAPS  H17S  340   4.975   4.170   9.537  0.1499  0.5314  0.0655
    3SAPS  C218  341   4.873   4.017   9.676  0.0818 -0.0218  0.7226
    3SAPS  H18R  342   4.956   3.950   9.706 -0.6264 -1.1870  0.1609
    3SAPS  H18S  343   4.784   3.954   9.656  0.5864 -0.0684 -1.5777
    3SAPS  C219  344   4.844   4.121   9.780 -0.5169 -0.1152  0.1842
    3SAPS  H19R  345   4.744   4.163   9.755  0.4912  1.6281 -1.1366
    3SAPS  H19S  346   4.920   4.199   9.760 -1.4717  0.6768 -0.4348
    3SAPS  C220  347   4.846   4.073   9.926 -0.0645 -0.1332  0.7013
    3SAPS  H20R  348   4.774   3.992   9.948 -0.9757  0.3277 -0.4781
    3SAPS  H20S  349   4.844   4.158   9.998  1.1636 -0.6213  1.3293
    3SAPS  H20T  350   4.951   4.038   9.936  0.0703 -0.5099 -1.6092
    3SAPS   C33  351   4.897   3.676  10.042 -1.0221 -0.1950 -0.1225
    3SAPS   H3X  352   4.793   3.712  10.026 -1.3848 -0.8566  0.6169
    3SAPS   H3Y  353   4.891   3.576  10.091 -0.2254  0.2918  1.0069
    3SAPS   C34  354   4.969   3.666   9.908 -0.4939  0.3531  0.5250
    3SAPS   H4X  355   5.076   3.654   9.932 -0.4415 -0.5975 -0.1762
    3SAPS   H4Y  356   4.949   3.762   9.854 -1.5648 -0.9690 -1.5495
    3SAPS   C35  357   4.921   3.543   9.827  0.0692 -0.0718  0.1884
    3SAPS   H5X  358   4.813   3.555   9.808  0.2218 -0.4139 -0.9605
    3SAPS   H5Y  359   4.940   3.451   9.887  0.8646  0.1449  0.2875
    3SAPS   C36  360   4.988   3.517   9.689  0.2176  0.0810 -0.3298
    3SAPS   H6X  361   5.098   3.519   9.701  0.0485  0.4901  1.4363
    3SAPS   H6Y  362   4.956   3.601   9.623  0.4853 -0.0019 -0.5688
    3SAPS   C37  363   4.936   3.379   9.633 -0.7090 -0.6145  0.1049
    3SAPS   H7X  364   4.826   3.392   9.640 -0.5363  0.3662  1.2976
    3SAPS   H7Y  365   4.966   3.296   9.700  0.8256  1.1291  1.6871
    3SAPS   C38  366   4.997   3.366   9.495 -0.0309  0.3062 -0.0256
    3SAPS   H8X  367   5.103   3.335   9.504  0.3386  1.1324 -1.3364
    3SAPS   H8Y  368   4.986   3.454   9.429  0.3595 -0.4572 -1.1376
    3SAPS   C39  369   4.927   3.254   9.415  0.5503  0.1961  0.6653
    3SAPS   H9X  370   4.828   3.285   9.377 -0.1094 -0.3773  1.8463
    3SAPS   H9Y  371   4.916   3.166   9.482  2.2432 -0.8190 -0.3360
    3SAPS  C310  372   5.002   3.213   9.287 -0.1164 -0.4458  0.7013
    3SAPS  H10X  373   5.103   3.173   9.307 -0.5572 -1.1107  1.6849
    3SAPS  H10Y  374   5.010   3.306   9.227  0.3605 -1.3682 -0.7156
    3SAPS  C311  375   4.919   3.108   9.209  0.4673  0.3175 -0.5294
    3SAPS  H11X  376   4.827   3.149   9.162  1.7423  1.5711 -2.0210
    3SAPS  H11Y  377   4.876   3.022   9.265 -2.3289  1.0768 -1.3431
    3SAPS  C312  378   5.004   3.044   9.103  0.0141 -0.7165  0.4542
    3SAPS  H12X  379   4.954   2.957   9.056  1.5127 -1.9145  0.9568
    3SAPS  H12Y  380   5.104   3.005   9.132 -0.0684 -0.1789  1.5353
    3SAPS  C313  381   5.036   3.145   8.999 -0.3797  0.3340 -0.8235
    3SAPS  H13X  382   5.099   3.232   9.028  1.1653 -0.5722 -1.3573
    3SAPS  H13Y  383   4.943   3.191   8.960 -0.6427  1.6671  1.2244
    3SAPS  C314  384   5.118   3.089   8.880 -0.5299  0.1765  0.2123
    3SAPS  H14X  385   5.085   2.984   8.872 -0.5219  0.1187  0.8849
    3SAPS  H14Y  386   5.227   3.089   8.900 -0.2007 -1.2592 -1.3544
    3SAPS  C315  387   5.086   3.156   8.749 -0.1949  0.8596 -0.0689
    3SAPS  H15X  388   4.980   3.190   8.748 -0.5589 -0.2248 -1.8034
    3SAPS  H15Y  389   5.106   3.075   8.676  1.0378 -0.5536  1.7643
    3SAPS  C316  390   5.177   3.282   8.723  0.1269  0.5834  0.5074
    3SAPS  H16X  391   5.274   3.264   8.774  0.4734  0.0580 -0.3162
    3SAPS  H16Y  392   5.135   3.367   8.782 -2.0534 -1.2653  1.7580
    3SAPS  C317  393   5.191   3.302   8.572 -0.2287 -0.0903  1.0446
    3SAPS  H17X  394   5.091   3.330   8.531  0.6870 -1.1245 -2.1255
    3SAPS  H17Y  395   5.234   3.210   8.528 -0.2608 -0.6920  2.2205
    3SAPS  C318  396   5.283   3.421   8.546  0.1001 -0.2364  0.1864
    3SAPS  H18X  397   5.281   3.448   8.438  1.2610  1.9423  0.6502
    3SAPS  H18Y  398   5.392   3.413   8.566  0.4556  0.5701 -1.2505
    3SAPS  H18Z  399   5.246   3.510   8.602 -1.1079 -0.8483  0.4002
    4SAPS     N  400   4.815   2.543  10.693  0.4614 -0.3434 -0.0565
    4SAPS   HN1  401   4.801   2.525  10.795 -1.3764 -1.0346 -0.3819
    4SAPS   HN2  402   4.895   2.482  10.668  0.8186  0.6685 -1.5302
    4SAPS   HN3  403   4.827   2.646  10.683  2.7869 -0.4401  1.1516
    4SAPS   C12  404   4.686   2.490  10.633 -0.2354  0.4640  0.4665
    4SAPS  H12A  405   4.697   2.489  10.526  0.4930  1.1424  0.5247
    4SAPS   C13  406   4.648   2.345  10.689  0.2020 -0.5441  0.3607
    4SAPS  O13A  407   4.737   2.274  10.742  0.8082 -0.1815  0.3906
    4SAPS  O13B  408   4.549   2.295  10.634 -0.3963 -0.0115 -0.4489
    4SAPS   C11  409   4.578   2.584  10.693  0.1713  0.2130 -0.3566
    4SAPS  H11A  410   4.577   2.569  10.803 -0.8006  0.1339 -0.3632
    4SAPS  H11B  411   4.479   2.548  10.658  0.0449  0.7808 -0.6089
    4SAPS     P  412   4.521   2.807  10.563 -0.1605  0.0383 -0.0626
    4SAPS   O13  413   4.397   2.730  10.532 -0.0229 -0.4548  0.5736
    4SAPS   O14  414   4.500   2.948  10.602  0.2158 -0.0012  0.5844
    4SAPS   O12  415   4.593   2.726  10.676 -0.0703 -0.8419  0.3219
    4SAPS   O11  416   4.618   2.797  10.430  0.2085 -0.3176 -0.1167
    4SAPS    C1  417   4.753   2.832  10.425  0.1645 -0.0468 -0.0445
    4SAPS    HA  418   4.812   2.805  10.515  1.0828 -3.2831 -1.4461
    4SAPS    HB  419   4.791   2.777  10.337  0.2246 -0.4757  0.2435
    4SAPS    C2  420   4.775   2.981  10.399 -0.6641 -0.0848 -0.4732
    4SAPS    HS  421   4.762   3.032  10.497  0.3365  1.1988 -0.9827
    4SAPS   O21  422   4.676   3.025  10.302  1.0143 -0.1347 -0.3865
    4SAPS   C21  423   4.675   3.155  10.302  0.6985 -0.0366  0.6880
    4SAPS   O22  424   4.720   3.230  10.386 -0.2792 -0.3884  0.2065
    4SAPS   C22  425   4.600   3.210  10.181  0.6117 -0.3821  0.6467
    4SAPS   H2R  426   4.632   3.153  10.091 -0.2280 -2.1904  1.4496
    4SAPS   H2S  427   4.490   3.193  10.187  0.0224  1.5504 -2.1922
    4SAPS    C3  428   4.919   3.011  10.355  0.1764  0.1725  0.0386
    4SAPS    HX  429   4.987   2.986  10.439 -1.2997 -0.3775  1.1037
    4SAPS    HY  430   4.930   3.121  10.345  1.2664  0.1561  0.8152
    4SAPS   O31  431   4.957   2.941  10.231 -0.2623 -0.2284 -0.0778
    4SAPS   C31  432   4.938   3.005  10.116 -0.4382  0.2027  0.0918
    4SAPS   O32  433   4.898   3.118  10.102 -0.3700  1.2032 -0.2994
    4SAPS   C32  434   4.991   2.908  10.007 -0.1027 -0.2434  0.7938
    4SAPS   H2X  435   4.904   2.842   9.986 -0.9175  1.0686 -0.1240
    4SAPS   H2Y  436   5.082   2.857  10.045 -0.3198  0.2538  2.0065
    4SAPS   C23  437   4.609   3.367  10.157  0.2583  0.3366 -0.2713
    4SAPS   H3R  438   4.704   3.408  10.198  0.8922 -0.4412 -0.9478
    4SAPS   H3S  439   4.538   3.416  10.228 -0.8693 -0.3429 -0.9033
    4SAPS   C24  440   4.581   3.405  10.018 -0.2997 -0.3986  0.8599
    4SAPS   H4R  441   4.643   3.351   9.943 -0.4348  1.0399 -0.3378
    4SAPS   H4S  442   4.604   3.511   9.994  2.0230 -1.1493 -0.5683
    4SAPS   C25  443   4.441   3.378   9.969 -0.2008  0.1104 -0.5508
    4SAPS   H5R  444   4.388   3.302  10.029  1.3197 -0.1530  0.5364
    4SAPS   C26  445   4.387   3.414   9.850  0.2021  0.1721  0.0566
    4SAPS   H6R  446   4.288   3.382   9.817  0.0314  1.0966 -0.3664
    4SAPS   C27  447   4.464   3.500   9.752 -0.1430  0.4303  0.7426
    4SAPS   H7R  448   4.569   3.516   9.783 -0.6885  1.6212  2.0475
    4SAPS   H7S  449   4.420   3.602   9.752 -0.2124  0.5071 -2.3698
    4SAPS   C28  450   4.466   3.435   9.617  0.2622 -0.0616  0.8451
    4SAPS   H8R  451   4.435   3.330   9.610  0.9544 -0.1505 -2.2791
    4SAPS   C29  452   4.511   3.495   9.500 -0.1533 -0.1275 -0.3074
    4SAPS   H9R  453   4.499   3.431   9.411  0.4275 -2.8997  1.4919
    4SAPS  C210  454   4.566   3.632   9.486 -0.2701 -0.2241 -0.0467
    4SAPS  H10R  455   4.590   3.665   9.590  0.0290 -1.6077  0.3352
    4SAPS  H10S  456   4.487   3.693   9.437  0.1519 -0.4862 -1.0836
    4SAPS  C211  457   4.689   3.658   9.416  0.1427  0.3226 -0.3938
    4SAPS  H11R  458   4.778   3.685   9.475  0.2371  1.0642 -0.8627
    4SAPS  C212  459   4.717   3.628   9.290 -0.2850  0.0909  0.1397
    4SAPS  H12R  460   4.804   3.679   9.247 -0.3196 -1.2892 -1.6682
    4SAPS  C213  461   4.631   3.567   9.177 -0.4131  0.4449  0.0993
    4SAPS  H13R  462   4.612   3.638   9.094 -1.2254  1.0595  0.7946
    4SAPS  H13S  463   4.525   3.546   9.204 -0.5830  0.3141 -0.6503
    4SAPS  C214  464   4.698   3.443   9.136 -0.4690 -1.2081 -0.5151
    4SAPS  H14R  465   4.801   3.424   9.171  0.5032  2.5628 -0.9214
    4SAPS  C215  466   4.667   3.372   9.034  0.0564  0.6099 -0.0494
    4SAPS  H15R  467   4.715   3.274   9.022 -2.6477 -0.6999 -0.8298
    4SAPS  C216  468   4.545   3.395   8.947 -0.2420  0.4185  0.4026
    4SAPS  H16R  469   4.564   3.366   8.842 -0.0946 -1.0871  0.8303
    4SAPS  H16S  470   4.521   3.504   8.941  0.3051  0.5333  0.2125
    4SAPS  C217  471   4.410   3.336   8.997 -0.1373  0.3892 -0.0349
    4SAPS  H17R  472   4.418   3.368   9.103  0.6088  2.7567 -0.7439
    4SAPS  H17S  473   4.408   3.225   8.991  1.0516  0.0399  3.5475
    4SAPS  C218  474   4.285   3.397   8.934  0.0178 -0.6682  0.2056
    4SAPS  H18R  475   4.199   3.335   8.967 -0.5374  0.3514  0.7162
    4SAPS  H18S  476   4.294   3.399   8.823 -1.6743 -1.7382  0.0070
    4SAPS  C219  477   4.245   3.535   8.995 -0.7188  0.3066  0.0057
    4SAPS  H19R  478   4.272   3.527   9.103 -0.1566  2.3583  0.0710
    4SAPS  H19S  479   4.134   3.545   8.987 -0.4875  2.2597 -1.3358
    4SAPS  C220  480   4.306   3.654   8.921  0.3465 -0.8835  0.2511
    4SAPS  H20R  481   4.405   3.669   8.968 -0.2071 -0.8790  1.4687
    4SAPS  H20S  482   4.251   3.750   8.933  4.0974  1.2619  2.2520
    4SAPS  H20T  483   4.317   3.628   8.814  0.3129 -1.2632  0.3372
    4SAPS   C33  484   5.004   2.973   9.871  0.1642 -0.4691 -0.4161
    4SAPS   H3X  485   5.078   3.055   9.883  0.3654 -0.3949 -1.9954
    4SAPS   H3Y  486   4.910   3.026   9.844  1.4195  1.1185 -1.8446
    4SAPS   C34  487   5.043   2.882   9.762 -0.3502  0.1614  0.7681
    4SAPS   H4X  488   4.964   2.803   9.770  0.4681 -0.5806  1.8392
    4SAPS   H4Y  489   5.138   2.834   9.792 -1.7386 -1.7240  2.4495
    4SAPS   C35  490   5.051   2.960   9.631 -0.2523  0.0278 -0.2586
    4SAPS   H5X  491   5.131   3.037   9.637 -0.4647  0.3234 -1.1262
    4SAPS   H5Y  492   4.956   3.009   9.601  0.7794  2.3578  0.0124
    4SAPS   C36  493   5.067   2.869   9.508 -0.9400  0.4087 -0.5185
    4SAPS   H6X  494   5.056   2.924   9.412 -0.0093  0.8848 -0.3665
    4SAPS   H6Y  495   4.993   2.787   9.523 -0.6815  0.4959  1.6358
    4SAPS   C37  496   5.198   2.790   9.519 -0.3702  0.0557  0.0710
    4SAPS   H7X  497   5.215   2.753   9.622  0.1131  1.5762  0.5694
    4SAPS   H7Y  498   5.283   2.859   9.500  1.2562 -1.4411  1.4194
    4SAPS   C38  499   5.207   2.689   9.408 -0.5930  0.3567  0.2828
    4SAPS   H8X  500   5.119   2.623   9.418 -0.6088  0.1634 -0.9393
    4SAPS   H8Y  501   5.293   2.621   9.426 -1.7196 -0.7588  1.6968
    4SAPS   C39  502   5.210   2.736   9.263 -0.1744 -0.0142  0.1985
    4SAPS   H9X  503   5.287   2.806   9.224 -1.9707  1.3534 -1.1155
    4SAPS   H9Y  504   5.122   2.802   9.243  0.7834  1.1284 -0.3892
    4SAPS  C310  505   5.211   2.625   9.166 -0.0809  0.3833  0.0368
    4SAPS  H10X  506   5.127   2.556   9.187  0.6656 -0.2227  1.1261
    4SAPS  H10Y  507   5.305   2.565   9.168 -1.4921 -1.9991 -0.8720
    4SAPS  C311  508   5.187   2.650   9.014 -0.9266  0.4246 -0.3457
    4SAPS  H11X  509   5.254   2.716   8.954 -0.4330  1.2125  1.0298
    4SAPS  H11Y  510   5.084   2.689   9.000 -1.0856  0.3049  0.4170
    4SAPS  C312  511   5.200   2.512   8.947  1.5619  0.3764 -0.3557
    4SAPS  H12X  512   5.158   2.426   9.003 -1.4151  1.6092 -0.4840
    4SAPS  H12Y  513   5.309   2.506   8.925  1.7298  1.1178  0.2201
    4SAPS  C313  514   5.117   2.518   8.812 -0.4124 -0.1623  0.0162
    4SAPS  H13X  515   5.144   2.611   8.758 -2.1835  0.1877 -0.2946
    4SAPS  H13Y  516   5.009   2.510   8.836 -1.3139  1.3432 -3.0530
    4SAPS  C314  517   5.154   2.401   8.721 -0.5724 -0.1823 -0.5696
    4SAPS  H14X  518   5.125   2.307   8.772  0.0558 -0.6586 -1.0744
    4SAPS  H14Y  519   5.263   2.390   8.702 -0.7170 -0.8914 -1.0663
    4SAPS  C315  520   5.100   2.402   8.574 -0.3132  0.0979  0.4914
    4SAPS  H15X  521   5.133   2.488   8.512 -2.1798 -0.7321 -1.8083
    4SAPS  H15Y  522   4.992   2.429   8.580  0.2584  2.6958  0.0473
    4SAPS  C316  523   5.112   2.271   8.500 -0.1135 -0.4817 -0.0193
    4SAPS  H16X  524   5.071   2.196   8.571  0.6930 -0.9146  0.0077
    4SAPS  H16Y  525   5.220   2.249   8.479 -0.5472 -0.9496 -1.9956
    4SAPS  C317  526   5.045   2.268   8.358 -0.1781 -0.0786  0.0528
    4SAPS  H17X  527   5.087   2.190   8.291  2.7252  2.1016 -0.8722
    4SAPS  H17Y  528   5.069   2.356   8.295  2.5698 -1.4678 -0.9999
    4SAPS  C318  529   4.893   2.262   8.371  0.5414  0.2858  0.5902
    4SAPS  H18X  530   4.853   2.360   8.406 -1.2861  0.0720 -0.7669
    4SAPS  H18Y  531   4.858   2.185   8.442  0.7887 -2.1010 -1.7190
    4SAPS  H18Z  532   4.848   2.238   8.272 -0.3628  1.3223  0.7369
    5SAPS     N  533   1.285   2.624  10.676 -0.6295  0.6376 -0.6201
    5SAPS   HN1  534   1.330   2.705  10.724 -1.0576  1.4052 -1.4922
    5SAPS   HN2  535   1.351   2.545  10.693 -0.0159  0.7926 -2.1355
    5SAPS   HN3  536   1.293   2.636  10.573  2.1300 -1.1003 -0.7218
    5SAPS   C12  537   1.158   2.571  10.730 -0.1628 -0.2215 -0.5590
    5SAPS  H12A  538   1.119   2.495  10.664  0.2603  0.2092 -1.3058
    5SAPS   C13  539   1.179   2.494  10.871 -0.2516 -0.6642 -0.7683
    5SAPS  O13A  540   1.294   2.469  10.912  0.0173 -0.6533 -0.0448
    5SAPS  O13B  541   1.077   2.443  10.927  0.4699  0.0542 -0.1389
    5SAPS   C11  542   1.066   2.699  10.762 -0.0645  0.1604  0.2445
    5SAPS  H11A  543   1.104   2.758  10.848 -2.4568  1.5631  0.4452
    5SAPS  H11B  544   0.977   2.645  10.799  0.4010  0.2554  1.5377
    5SAPS     P  545   0.914   2.895  10.660 -0.1643  0.0212  0.1516
    5SAPS   O13  546   0.787   2.822  10.619  0.4257 -0.3107  0.0362
    5SAPS   O14  547   0.915   2.962  10.791  0.5365 -0.4053 -0.1641
    5SAPS   O12  548   1.035   2.782  10.650 -0.4516 -0.2318  0.4176
    5SAPS   O11  549   0.944   2.999  10.545 -0.6551 -0.2029 -0.2788
    5SAPS    C1  550   1.016   2.962  10.423  0.0576  0.3104 -0.4163
    5SAPS    HA  551   1.090   3.035  10.385  1.4821 -2.0543 -2.5566
    5SAPS    HB  552   1.083   2.879  10.457  1.5840  2.3936  2.0244
    5SAPS    C2  553   0.925   2.922  10.305 -0.3511 -0.1985  0.5682
    5SAPS    HS  554   0.865   2.830  10.321 -0.6617 -0.0311  0.3619
    5SAPS   O21  555   1.000   2.915  10.180 -0.4639  0.4213 -0.2301
    5SAPS   C21  556   1.083   2.812  10.179  0.1105 -0.3820  0.1932
    5SAPS   O22  557   1.102   2.735  10.272 -0.2596  0.0504  0.3371
    5SAPS   C22  558   1.160   2.811  10.052  0.4559  0.4520  0.8096
    5SAPS   H2R  559   1.091   2.801   9.966  1.3435  1.5368 -0.0628
    5SAPS   H2S  560   1.212   2.908  10.033 -2.7106  1.9554 -1.2027
    5SAPS    C3  561   0.800   3.021  10.293  0.8435 -0.1871 -0.1093
    5SAPS    HX  562   0.846   3.122  10.290 -2.3393  1.3607 -1.3115
    5SAPS    HY  563   0.751   3.010  10.392  1.0940 -3.5727 -0.2457
    5SAPS   O31  564   0.711   3.009  10.178  0.0008  0.4249  0.0604
    5SAPS   C31  565   0.610   3.084  10.171  0.9756 -0.2358  0.3938
    5SAPS   O32  566   0.570   3.154  10.262  0.0163 -0.3278  0.1868
    5SAPS   C32  567   0.534   3.078  10.036 -0.2364 -0.1424  0.3008
    5SAPS   H2X  568   0.548   3.175   9.985 -0.0630 -0.5227 -0.3899
    5SAPS   H2Y  569   0.430   3.055  10.067  0.4508  0.9225  3.8921
    5SAPS   C23  570   1.257   2.686  10.038  0.8824  0.2207 -0.2967
    5SAPS   H3R  571   1.191   2.598  10.043 -1.2977  1.7319 -0.9179
    5SAPS   H3S  572   1.327   2.688  10.125  1.4782  4.8622 -0.5887
    5SAPS   C24  573   1.339   2.691   9.913 -0.4456  0.6477 -0.8135
    5SAPS   H4R  574   1.424   2.618   9.916 -0.3531  0.7824  1.4515
    5SAPS   H4S  575   1.387   2.791   9.909  0.9924  0.0163 -0.0989
    5SAPS   C25  576   1.260   2.650   9.789  0.4274  0.1404  0.4687
    5SAPS   H5R  577   1.239   2.542   9.786 -1.0684  0.4161 -0.0219
    5SAPS   C26  578   1.225   2.724   9.677  0.0259  0.2068  0.2534
    5SAPS   H6R  579   1.169   2.668   9.600 -0.5878  0.2916  0.6244
    5SAPS   C27  580   1.258   2.868   9.656  0.1551 -0.2186  1.0342
    5SAPS   H7R  581   1.294   2.917   9.749  1.8387 -1.1239  0.8931
    5SAPS   H7S  582   1.161   2.915   9.627 -0.7148 -1.9310  1.0393
    5SAPS   C28  583   1.356   2.883   9.546  0.1572  0.8487 -0.1673
    5SAPS   H8R  584   1.463   2.865   9.565 -0.2718 -0.7611  0.9203
    5SAPS   C29  585   1.331   2.912   9.416 -0.0511 -0.2840 -0.4270
    5SAPS   H9R  586   1.425   2.921   9.359  0.3575 -0.4453  0.2107
    5SAPS  C210  587   1.206   2.938   9.339 -0.2924 -0.5261 -0.1460
    5SAPS  H10R  588   1.218   3.023   9.269  1.3673 -0.3645  0.3004
    5SAPS  H10S  589   1.121   2.969   9.404 -0.4681 -0.8234 -0.2284
    5SAPS  C211  590   1.150   2.817   9.269 -0.3395  0.4050 -0.0110
    5SAPS  H11R  591   1.108   2.740   9.336  0.6912 -1.0438 -0.9782
    5SAPS  C212  592   1.134   2.803   9.136  0.4004  0.1507 -0.0742
    5SAPS  H12R  593   1.079   2.714   9.102  2.0363 -0.7125 -0.6033
    5SAPS  C213  594   1.172   2.893   9.021 -0.2585  0.5982 -0.4428
    5SAPS  H13R  595   1.214   2.988   9.059  0.3472  0.5550 -0.9916
    5SAPS  H13S  596   1.088   2.921   8.954  1.7952  0.6117 -3.1852
    5SAPS  C214  597   1.285   2.835   8.935 -0.8894 -0.1541  0.0756
    5SAPS  H14R  598   1.390   2.865   8.951 -1.0560  1.5597 -1.5943
    5SAPS  C215  599   1.279   2.764   8.822  0.9195 -0.0145  0.1231
    5SAPS  H15R  600   1.373   2.745   8.767  0.4531 -1.7959 -0.1208
    5SAPS  C216  601   1.147   2.730   8.761 -0.0423  0.6507  0.4373
    5SAPS  H16R  602   1.074   2.747   8.843  0.8794  1.8732  1.0376
    5SAPS  H16S  603   1.153   2.623   8.731 -0.0219  0.9063 -0.5085
    5SAPS  C217  604   1.101   2.816   8.637 -0.0118 -0.1590 -0.1440
    5SAPS  H17R  605   1.176   2.816   8.555 -0.7304 -1.1939 -0.8302
    5SAPS  H17S  606   1.087   2.918   8.679  1.6182  0.7522 -1.7047
    5SAPS  C218  607   0.975   2.758   8.577  0.1054  0.2055 -0.0422
    5SAPS  H18R  608   0.895   2.745   8.653 -1.3032 -1.4993 -1.7311
    5SAPS  H18S  609   0.941   2.830   8.500  0.5027  1.8822  1.2842
    5SAPS  C219  610   0.990   2.622   8.521 -0.6964  0.2818 -0.4766
    5SAPS  H19R  611   1.020   2.555   8.604  0.6049  0.6412 -0.6394
    5SAPS  H19S  612   1.074   2.613   8.449 -0.4648  0.9084 -0.2921
    5SAPS  C220  613   0.861   2.561   8.469 -0.1629 -0.2176 -0.3363
    5SAPS  H20R  614   0.783   2.551   8.547 -0.1203  0.8387 -0.1405
    5SAPS  H20S  615   0.885   2.460   8.431  1.5650 -0.2748  0.8357
    5SAPS  H20T  616   0.826   2.620   8.381  0.3976  0.5831 -0.0282
    5SAPS   C33  617   0.580   2.967   9.941 -0.1214 -0.5277  0.3132
    5SAPS   H3X  618   0.509   2.960   9.856 -0.1507  3.2633 -0.1488
    5SAPS   H3Y  619   0.593   2.870   9.994 -2.0633  0.3531  2.5475
    5SAPS   C34  620   0.712   3.009   9.876  0.1201 -0.9619 -0.0726
    5SAPS   H4X  621   0.744   2.912   9.832 -0.6502 -0.5989 -1.4987
    5SAPS   H4Y  622   0.792   3.040   9.947 -1.1811 -2.1509  2.0250
    5SAPS   C35  623   0.700   3.128   9.775 -0.2381  0.1614 -0.0394
    5SAPS   H5X  624   0.799   3.140   9.727 -0.6525  0.5647 -0.8094
    5SAPS   H5Y  625   0.683   3.225   9.827 -1.2131 -0.8220  1.5510
    5SAPS   C36  626   0.594   3.103   9.663 -0.1491 -0.1875 -0.0249
    5SAPS   H6X  627   0.495   3.119   9.712 -0.9685 -0.7591 -1.4430
    5SAPS   H6Y  628   0.601   2.996   9.636  0.8511  0.2114 -1.4601
    5SAPS   C37  629   0.593   3.197   9.546  0.4459 -0.2756 -0.7024
    5SAPS   H7X  630   0.696   3.222   9.514  0.4480  2.7685  1.2632
    5SAPS   H7Y  631   0.547   3.291   9.584 -0.1128 -0.7108 -0.2779
    5SAPS   C38  632   0.516   3.132   9.430  0.0376 -0.1352  0.1292
    5SAPS   H8X  633   0.410   3.114   9.458 -0.8031  0.8494 -2.1930
    5SAPS   H8Y  634   0.559   3.035   9.398  1.0005  0.9136 -1.9227
    5SAPS   C39  635   0.526   3.222   9.304 -0.1467  0.1934 -0.7647
    5SAPS   H9X  636   0.631   3.257   9.297 -0.4966  1.0275 -2.5742
    5SAPS   H9Y  637   0.455   3.306   9.319  0.0313  0.2770 -0.3776
    5SAPS  C310  638   0.497   3.141   9.175  0.3345 -0.2748 -0.6706
    5SAPS  H10X  639   0.387   3.147   9.158  0.5676  1.1645 -1.9616
    5SAPS  H10Y  640   0.536   3.038   9.180  1.8615  0.3524  1.6993
    5SAPS  C311  641   0.547   3.233   9.061 -0.4285  0.1514  0.5135
    5SAPS  H11X  642   0.658   3.223   9.063 -0.1852  0.6068 -3.3160
    5SAPS  H11Y  643   0.518   3.337   9.089 -1.8770 -0.2158  0.4303
    5SAPS  C312  644   0.498   3.208   8.920 -0.3464  0.7256 -0.4220
    5SAPS  H12X  645   0.388   3.222   8.916 -0.4100 -0.0361 -2.2715
    5SAPS  H12Y  646   0.526   3.101   8.912  1.5928  1.1598  0.0579
    5SAPS  C313  647   0.574   3.294   8.806  0.0371  0.4261  0.2502
    5SAPS  H13X  648   0.680   3.315   8.833 -0.1309  0.2206  1.0820
    5SAPS  H13Y  649   0.512   3.386   8.790  0.8025  0.8847 -0.1632
    5SAPS  C314  650   0.575   3.218   8.673  1.2528 -0.0565 -0.7025
    5SAPS  H14X  651   0.630   3.285   8.603 -0.5938 -0.0180 -2.1972
    5SAPS  H14Y  652   0.476   3.200   8.627  1.8171  1.1161 -2.5035
    5SAPS  C315  653   0.657   3.093   8.674 -0.2511  0.2013 -0.0901
    5SAPS  H15X  654   0.612   3.014   8.738 -0.3187 -1.6931 -2.3368
    5SAPS  H15Y  655   0.752   3.115   8.727 -0.4833 -0.3403  0.5679
    5SAPS  C316  656   0.681   3.039   8.533 -0.0813 -0.4073  0.4087
    5SAPS  H16X  657   0.579   3.009   8.504 -0.3949  0.7790  0.2459
    5SAPS  H16Y  658   0.736   2.943   8.547 -0.1181 -0.8903 -2.2301
    5SAPS  C317  659   0.763   3.123   8.434  0.2370  0.4419  1.0413
    5SAPS  H17X  660   0.866   3.136   8.473  0.8032 -0.6428 -0.0088
    5SAPS  H17Y  661   0.708   3.217   8.416 -0.6230 -0.1900  0.2560
    5SAPS  C318  662   0.787   3.049   8.306 -0.1504 -0.1609  0.3440
    5SAPS  H18X  663   0.812   2.942   8.324 -0.0513 -0.1189  0.4533
    5SAPS  H18Y  664   0.870   3.093   8.246 -1.4946 -0.6490 -2.0165
    5SAPS  H18Z  665   0.697   3.049   8.240  0.0894 -0.1260  0.0141
    6SAPS     N  666   2.803   1.631  11.016 -0.4285 -0.4269  0.0331
    6SAPS   HN1  667   2.769   1.589  10.927 -1.0278 -2.5375  1.2027
    6SAPS   HN2  668   2.719   1.617  11.075  0.3409 -2.0975  0.7844
    6SAPS   HN3  669   2.810   1.735  11.011  0.3271 -0.4614  0.1979
    6SAPS   C12  670   2.918   1.566  11.083 -0.1624  0.1824  0.0598
    6SAPS  H12A  671   3.004   1.609  11.034  0.0316  0.2866  0.4846
    6SAPS   C13  672   2.911   1.609  11.234 -0.6600 -0.6186  0.2863
    6SAPS  O13A  673   2.805   1.660  11.288 -0.5702  0.0746 -0.5416
    6SAPS  O13B  674   3.005   1.579  11.306 -0.0971  0.1546 -0.4189
    6SAPS   C11  675   2.920   1.410  11.066  0.3975  0.4353  0.1074
    6SAPS  H11A  676   2.825   1.371  11.109  1.7467 -0.4374  2.4482
    6SAPS  H11B  677   2.993   1.369  11.138 -1.1619  0.5372  1.8375
    6SAPS     P  678   3.072   1.365  10.853 -0.2429  0.2141 -0.2119
    6SAPS   O13  679   3.113   1.494  10.789 -0.7135 -0.0054 -0.1270
    6SAPS   O14  680   3.176   1.295  10.936 -0.0652 -0.2678 -0.2070
    6SAPS   O12  681   2.938   1.370  10.939  0.4314 -0.0911  0.7013
    6SAPS   O11  682   3.038   1.264  10.740  0.6945 -0.1288 -0.1166
    6SAPS    C1  683   3.130   1.224  10.634  0.4809 -0.5297  0.3651
    6SAPS    HA  684   3.236   1.218  10.664  0.3401 -0.8584  0.8128
    6SAPS    HB  685   3.108   1.121  10.598  1.0675 -0.3645 -0.4881
    6SAPS    C2  686   3.104   1.314  10.513 -0.1502  0.5610  0.0205
    6SAPS    HS  687   3.142   1.412  10.548  0.5885 -0.3621  1.9801
    6SAPS   O21  688   2.961   1.316  10.485 -0.8332 -0.0792  0.1994
    6SAPS   C21  689   2.935   1.422  10.407 -0.8904  0.4058  0.6234
    6SAPS   O22  690   3.009   1.517  10.391  0.0241 -0.1749 -0.2466
    6SAPS   C22  691   2.799   1.418  10.343  0.1866  0.6805 -0.4118
    6SAPS   H2R  692   2.774   1.314  10.314  0.3326  0.1009  1.4174
    6SAPS   H2S  693   2.720   1.454  10.412 -0.5628 -0.6138 -0.5564
    6SAPS    C3  694   3.193   1.255  10.402 -0.5786 -0.4333  0.7514
    6SAPS    HX  695   3.149   1.155  10.381 -2.4232  0.0590  2.0180
    6SAPS    HY  696   3.294   1.229  10.439 -0.1742  0.8774  0.6229
    6SAPS   O31  697   3.193   1.343  10.283  0.2945 -0.3823  0.0372
    6SAPS   C31  698   3.282   1.435  10.267 -0.4967 -0.3650 -0.5576
    6SAPS   O32  699   3.386   1.449  10.330  0.2340  0.1717 -0.1770
    6SAPS   C32  700   3.225   1.532  10.161  0.3791 -0.0310  0.1065
    6SAPS   H2X  701   3.191   1.620  10.220 -2.1894 -1.4540  0.8879
    6SAPS   H2Y  702   3.143   1.479  10.109  1.6905 -1.5159 -0.5384
    6SAPS   C23  703   2.793   1.509  10.216 -0.4854 -0.1722  0.0109
    6SAPS   H3R  704   2.872   1.478  10.144 -2.1047  0.2540 -2.0237
    6SAPS   H3S  705   2.809   1.615  10.244 -2.9366 -0.2490  2.1100
    6SAPS   C24  706   2.658   1.514  10.151  0.2662  0.4583  0.3222
    6SAPS   H4R  707   2.658   1.599  10.079  0.7447 -0.2018 -0.4773
    6SAPS   H4S  708   2.576   1.539  10.221 -0.8293  1.2012 -1.1737
    6SAPS   C25  709   2.618   1.391  10.073 -0.4015  0.5153  0.7720
    6SAPS   H5R  710   2.622   1.294  10.124  0.0366  0.8521  1.4016
    6SAPS   C26  711   2.591   1.396   9.943 -0.2334  0.7246  0.3637
    6SAPS   H6R  712   2.578   1.296   9.899  3.4596 -0.1334  0.8426
    6SAPS   C27  713   2.584   1.509   9.844 -0.1753 -0.4412 -0.0917
    6SAPS   H7R  714   2.678   1.511   9.785  1.3161 -0.4523  2.1538
    6SAPS   H7S  715   2.587   1.608   9.896 -1.2164 -0.3171 -0.2483
    6SAPS   C28  716   2.466   1.503   9.751 -0.1623 -0.1470 -0.0949
    6SAPS   H8R  717   2.370   1.513   9.804 -1.3823  0.9451 -2.3659
    6SAPS   C29  718   2.466   1.464   9.623  0.0305 -0.3918  0.7323
    6SAPS   H9R  719   2.367   1.471   9.574  0.4031  3.7474  0.2073
    6SAPS  C210  720   2.586   1.442   9.536 -0.8690 -0.3308 -0.7762
    6SAPS  H10R  721   2.567   1.351   9.473  0.2261 -0.8396 -0.3986
    6SAPS  H10S  722   2.670   1.426   9.606 -0.2253  0.3071 -1.3889
    6SAPS  C211  723   2.627   1.559   9.446 -0.0152 -0.0031 -0.2571
    6SAPS  H11R  724   2.671   1.646   9.498 -3.6158  0.4591  2.3939
    6SAPS  C212  725   2.603   1.567   9.313 -0.3073 -0.3694 -0.5706
    6SAPS  H12R  726   2.621   1.664   9.265 -0.6135 -0.2961 -0.5403
    6SAPS  C213  727   2.539   1.460   9.225 -0.4796 -1.1869  0.3383
    6SAPS  H13R  728   2.555   1.361   9.273  0.7221 -0.7827  0.8003
    6SAPS  H13S  729   2.596   1.457   9.130 -0.1460  1.4652  0.3838
    6SAPS  C214  730   2.389   1.496   9.211 -0.4185  0.1383 -0.3354
    6SAPS  H14R  731   2.333   1.523   9.302 -1.7451  1.1627 -1.4099
    6SAPS  C215  732   2.308   1.498   9.102  0.1116  0.1695  0.5254
    6SAPS  H15R  733   2.199   1.504   9.113 -0.0594 -0.3427 -0.7608
    6SAPS  C216  734   2.345   1.474   8.961  0.0600  0.1748 -0.4802
    6SAPS  H16R  735   2.291   1.385   8.922  1.3003 -1.4026  1.1833
    6SAPS  H16S  736   2.449   1.441   8.935  0.1466  1.0403 -1.2823
    6SAPS  C217  737   2.300   1.589   8.865 -0.5173 -0.1829  0.2273
    6SAPS  H17R  738   2.352   1.686   8.885  0.9505 -0.4453 -1.9072
    6SAPS  H17S  739   2.191   1.594   8.881 -0.3755 -1.6344  1.9203
    6SAPS  C218  740   2.337   1.565   8.706 -0.3661 -0.1215  0.1336
    6SAPS  H18R  741   2.270   1.483   8.675  0.4373 -0.5304 -0.5401
    6SAPS  H18S  742   2.444   1.537   8.697  0.3167  1.2266  2.9989
    6SAPS  C219  743   2.307   1.700   8.625  0.2459  0.3321  0.3262
    6SAPS  H19R  744   2.394   1.769   8.639  2.8356 -2.7036  0.2386
    6SAPS  H19S  745   2.213   1.747   8.660 -0.2897 -0.4837  0.0015
    6SAPS  C220  746   2.299   1.672   8.480 -0.1085 -0.1488  0.2320
    6SAPS  H20R  747   2.202   1.630   8.444  0.1903 -0.0193 -0.7454
    6SAPS  H20S  748   2.375   1.601   8.441 -0.2902  0.3483 -1.0959
    6SAPS  H20T  749   2.320   1.767   8.426 -0.8293  0.2415  0.6243
    6SAPS   C33  750   3.342   1.576  10.075  0.1326  0.0603 -0.5937
    6SAPS   H3X  751   3.438   1.583  10.131  0.0384 -0.0581 -0.4145
    6SAPS   H3Y  752   3.306   1.667  10.023  0.6439  0.2911 -0.5497
    6SAPS   C34  753   3.375   1.470   9.962 -0.1674 -0.6512 -0.0062
    6SAPS   H4X  754   3.288   1.455   9.894  1.7576 -1.7447 -2.3715
    6SAPS   H4Y  755   3.412   1.379  10.013  1.7923  0.2173  0.2111
    6SAPS   C35  756   3.498   1.514   9.878  0.4739 -0.0962 -0.0889
    6SAPS   H5X  757   3.516   1.427   9.812 -0.8873 -0.5143  0.0693
    6SAPS   H5Y  758   3.588   1.524   9.943  1.2797  0.3230 -1.2357
    6SAPS   C36  759   3.486   1.637   9.795  0.5655  0.5757 -0.3561
    6SAPS   H6X  760   3.456   1.722   9.861  1.4101  0.2619  0.4509
    6SAPS   H6Y  761   3.398   1.633   9.728 -0.8267  1.8675  1.2956
    6SAPS   C37  762   3.614   1.678   9.724  0.2123 -0.6108  0.1777
    6SAPS   H7X  763   3.664   1.595   9.670 -0.4155 -0.8746 -0.0017
    6SAPS   H7Y  764   3.696   1.710   9.793 -0.6746  1.4569  0.3436
    6SAPS   C38  765   3.609   1.802   9.630  0.6185 -0.4725 -0.5969
    6SAPS   H8X  766   3.710   1.845   9.619 -0.1406  1.8269  0.7849
    6SAPS   H8Y  767   3.548   1.876   9.685  1.4810 -0.4581  0.3577
    6SAPS   C39  768   3.535   1.764   9.495  0.1408  0.3221  0.0677
    6SAPS   H9X  769   3.508   1.857   9.439 -0.5239 -0.4697 -0.9604
    6SAPS   H9Y  770   3.437   1.719   9.523  0.1543  0.1410 -0.1754
    6SAPS  C310  771   3.614   1.663   9.405 -0.1466 -0.2660 -0.4334
    6SAPS  H10X  772   3.640   1.570   9.459 -2.0252  0.0079  1.0649
    6SAPS  H10Y  773   3.698   1.730   9.376 -2.2273  1.1593 -3.8642
    6SAPS  C311  774   3.539   1.627   9.284 -0.3854  0.6004 -0.2111
    6SAPS  H11X  775   3.442   1.584   9.315  1.0656 -1.1839  2.1692
    6SAPS  H11Y  776   3.569   1.534   9.233 -2.9700  0.0974 -0.9796
    6SAPS  C312  777   3.544   1.743   9.185  0.2812 -0.2561 -0.0865
    6SAPS  H12X  778   3.650   1.754   9.152  0.8292  1.4739  2.0640
    6SAPS  H12Y  779   3.520   1.839   9.235  0.1183 -0.9182  1.1335
    6SAPS  C313  780   3.455   1.733   9.065  0.4373 -0.0432  0.1325
    6SAPS  H13X  781   3.362   1.680   9.097  0.9389 -1.3047 -0.4543
    6SAPS  H13Y  782   3.495   1.663   8.989 -1.7585 -0.2619 -0.9094
    6SAPS  C314  783   3.423   1.869   8.997 -0.0425 -0.3528 -0.7536
    6SAPS  H14X  784   3.509   1.921   8.948 -0.2934  2.0793  1.1578
    6SAPS  H14Y  785   3.401   1.944   9.076 -0.6257 -0.4428 -0.8294
    6SAPS  C315  786   3.309   1.866   8.897  0.2819  0.0159 -0.1114
    6SAPS  H15X  787   3.287   1.969   8.864  0.0642 -0.0598 -0.2016
    6SAPS  H15Y  788   3.215   1.846   8.953  0.5268  1.7886  0.9954
    6SAPS  C316  789   3.337   1.772   8.791  0.0301 -0.0564  0.5831
    6SAPS  H16X  790   3.308   1.665   8.803 -1.8672  0.4535  0.9222
    6SAPS  H16Y  791   3.437   1.786   8.745 -0.4373  1.0453 -0.1543
    6SAPS  C317  792   3.236   1.808   8.672  0.3852  0.7918 -0.3704
    6SAPS  H17X  793   3.258   1.913   8.644 -0.3499  0.9593 -0.3356
    6SAPS  H17Y  794   3.135   1.794   8.716  0.3763 -3.7680 -1.3300
    6SAPS  C318  795   3.247   1.722   8.539  0.9388 -0.2387  0.2590
    6SAPS  H18X  796   3.166   1.767   8.478 -0.3283 -0.0244  2.0164
    6SAPS  H18Y  797   3.218   1.617   8.563  0.1876 -1.0028 -3.4152
    6SAPS  H18Z  798   3.347   1.730   8.492  0.4986 -1.5891 -0.9714
    7SAPS     N  799   5.754   1.087  10.598 -0.7727 -0.0396  0.3190
    7SAPS   HN1  800   5.742   1.174  10.652  0.0495  0.5107 -0.3526
    7SAPS   HN2  801   5.856   1.069  10.586 -0.0208  2.6392  1.9659
    7SAPS   HN3  802   5.714   1.111  10.505  1.0960  0.5465 -0.3776
    7SAPS   C12  803   5.678   0.982  10.675  0.8370  0.0449  0.1708
    7SAPS  H12A  804   5.661   0.896  10.613  2.7726 -1.4836  1.6296
    7SAPS   C13  805   5.744   0.921  10.800  0.5564  0.3169  0.9683
    7SAPS  O13A  806   5.863   0.941  10.817 -0.3476 -0.2019 -0.0112
    7SAPS  O13B  807   5.683   0.832  10.866  0.0026  0.1912 -0.1886
    7SAPS   C11  808   5.539   1.043  10.711  0.0994 -0.1425 -0.1262
    7SAPS  H11A  809   5.543   1.142  10.761  0.6730  0.5145 -1.3962
    7SAPS  H11B  810   5.477   0.978  10.776 -1.4339 -0.3426 -1.7209
    7SAPS     P  811   5.335   1.149  10.592  0.2638 -0.0736 -0.2007
    7SAPS   O13  812   5.224   1.058  10.571  0.3041 -0.7883  0.6328
    7SAPS   O14  813   5.315   1.235  10.711 -0.6635 -0.0639  0.1672
    7SAPS   O12  814   5.467   1.071  10.586  0.0247  0.6849 -0.8678
    7SAPS   O11  815   5.360   1.245  10.471  0.2268  0.3767 -0.7398
    7SAPS    C1  816   5.265   1.291  10.377  0.3179 -0.6037 -0.2546
    7SAPS    HA  817   5.190   1.353  10.430  0.3911 -0.6443 -0.1052
    7SAPS    HB  818   5.321   1.358  10.308  1.1062 -0.9261  0.0648
    7SAPS    C2  819   5.207   1.180  10.275  0.4007 -0.0937  0.0777
    7SAPS    HS  820   5.162   1.098  10.334 -0.2252 -0.1996 -0.5399
    7SAPS   O21  821   5.310   1.140  10.181  0.1080  0.2928 -0.2400
    7SAPS   C21  822   5.329   1.010  10.157  0.2116 -0.5504  0.3256
    7SAPS   O22  823   5.264   0.922  10.212 -0.5792  0.5234 -0.2982
    7SAPS   C22  824   5.430   0.995  10.046  0.0620  0.4842  0.4577
    7SAPS   H2R  825   5.397   1.068   9.969 -0.7497 -0.3853 -0.0479
    7SAPS   H2S  826   5.534   1.009  10.081  1.3266  1.0573 -3.1225
    7SAPS    C3  827   5.090   1.247  10.183  0.9446  0.2095 -0.5488
    7SAPS    HX  828   5.113   1.337  10.123 -0.5823  0.7332 -0.3938
    7SAPS    HY  829   5.009   1.288  10.246  0.1164  0.2948 -1.6352
    7SAPS   O31  830   5.018   1.145  10.104 -0.3282 -0.5743 -0.1674
    7SAPS   C31  831   4.932   1.071  10.172 -0.0230  0.5559  0.0807
    7SAPS   O32  832   4.902   1.078  10.286 -0.0880  0.6422 -0.0527
    7SAPS   C32  833   4.878   0.967  10.083  0.5135  0.0910  0.5109
    7SAPS   H2X  834   4.797   0.903  10.126  0.4046 -0.0734  0.0668
    7SAPS   H2Y  835   4.963   0.901  10.055 -0.9295 -1.1162 -1.2495
    7SAPS   C23  836   5.408   0.854   9.982  0.8183 -0.4340  0.3679
    7SAPS   H3R  837   5.303   0.837   9.951  0.6771  1.0029 -0.0461
    7SAPS   H3S  838   5.425   0.777  10.060  0.3694  1.0558  1.9930
    7SAPS   C24  839   5.509   0.820   9.872  0.2524  0.1863 -0.1005
    7SAPS   H4R  840   5.525   0.711   9.858  1.0370  0.3174 -0.2254
    7SAPS   H4S  841   5.605   0.864   9.905  0.1495 -0.4249  1.1009
    7SAPS   C25  842   5.464   0.888   9.752  0.0736  0.1178 -0.1424
    7SAPS   H5R  843   5.427   0.990   9.770 -1.3877 -0.2777 -0.7580
    7SAPS   C26  844   5.471   0.843   9.625 -0.4297 -0.6268  0.2879
    7SAPS   H6R  845   5.453   0.908   9.539  1.7742  0.6859  0.7184
    7SAPS   C27  846   5.532   0.717   9.575 -0.7511  0.5844  0.2045
    7SAPS   H7R  847   5.567   0.648   9.654  0.1923 -1.0286 -1.5434
    7SAPS   H7S  848   5.625   0.751   9.525  0.9773 -2.6034  0.9826
    7SAPS   C28  849   5.438   0.635   9.497  0.0582  0.4527  0.0531
    7SAPS   H8R  850   5.369   0.581   9.563  0.9135 -0.0768  0.5339
    7SAPS   C29  851   5.430   0.631   9.362  0.2537  0.5627  0.1893
    7SAPS   H9R  852   5.350   0.572   9.315  0.6587 -1.8623  2.2928
    7SAPS  C210  853   5.516   0.711   9.267 -0.3378 -0.1954 -0.1138
    7SAPS  H10R  854   5.623   0.694   9.291 -0.9179 -1.3958  1.8861
    7SAPS  H10S  855   5.500   0.820   9.283 -0.3635 -0.2025 -0.0904
    7SAPS  C211  856   5.489   0.673   9.128  0.3828 -0.3496  0.3618
    7SAPS  H11R  857   5.529   0.573   9.107 -1.7257 -1.2936  0.5556
    7SAPS  C212  858   5.410   0.747   9.049 -0.4665 -0.4187  0.5774
    7SAPS  H12R  859   5.382   0.706   8.951 -1.5771  0.2149  0.6180
    7SAPS  C213  860   5.345   0.882   9.084 -0.6843  0.4098 -0.4378
    7SAPS  H13R  861   5.321   0.880   9.193 -1.7314  0.0568 -0.6607
    7SAPS  H13S  862   5.242   0.889   9.043 -0.8962 -0.1713 -0.0216
    7SAPS  C214  863   5.436   1.001   9.060  0.2677 -0.1519  0.0869
    7SAPS  H14R  864   5.528   0.996   9.119 -0.6765 -0.8007  1.5600
    7SAPS  C215  865   5.419   1.109   8.985 -1.2629 -0.5914  0.1513
    7SAPS  H15R  866   5.503   1.180   8.999 -1.4736 -0.8967  3.9396
    7SAPS  C216  867   5.307   1.134   8.890 -0.1385  0.7349  0.7331
    7SAPS  H16R  868   5.245   1.213   8.937 -0.7243  0.4497  0.4422
    7SAPS  H16S  869   5.236   1.050   8.875  0.9751  0.0525 -1.0286
    7SAPS  C217  870   5.352   1.164   8.741 -0.1307  0.3376 -0.7687
    7SAPS  H17R  871   5.396   1.068   8.708  0.5416  0.7510 -1.0936
    7SAPS  H17S  872   5.435   1.237   8.748 -0.2596  0.3532  1.6597
    7SAPS  C218  873   5.241   1.206   8.644 -0.1359 -0.5398  0.3288
    7SAPS  H18R  874   5.163   1.127   8.636 -1.0618  0.4163 -0.2994
    7SAPS  H18S  875   5.292   1.209   8.545 -2.7815 -2.4339 -1.2337
    7SAPS  C219  876   5.177   1.341   8.671  0.8513 -0.2105  0.5090
    7SAPS  H19R  877   5.258   1.414   8.689  0.7053  0.3884 -1.0678
    7SAPS  H19S  878   5.120   1.323   8.764 -0.6605  0.1025 -0.3195
    7SAPS  C220  879   5.087   1.380   8.553  0.0405 -0.0370 -0.1221
    7SAPS  H20R  880   5.024   1.465   8.588 -1.2892 -0.8731 -0.4180
    7SAPS  H20S  881   5.025   1.295   8.517  0.6311  0.7501 -3.3195
    7SAPS  H20T  882   5.147   1.403   8.462 -0.8720 -2.9120 -1.5613
    7SAPS   C33  883   4.834   1.024   9.943 -0.6678 -0.2517  0.4462
    7SAPS   H3X  884   4.838   0.929   9.885 -0.2783 -1.1764  1.9365
    7SAPS   H3Y  885   4.901   1.105   9.908  0.3712 -1.4778 -0.4847
    7SAPS   C34  886   4.693   1.079   9.967  0.2166 -0.2693  0.8536
    7SAPS   H4X  887   4.702   1.162  10.040 -0.5572  0.0942  0.5423
    7SAPS   H4Y  888   4.620   1.006  10.006 -0.1860  0.0283  0.6641
    7SAPS   C35  889   4.627   1.129   9.840  0.5348 -0.5160 -0.1779
    7SAPS   H5X  890   4.608   1.030   9.793 -1.6774 -1.1438  1.8265
    7SAPS   H5Y  891   4.694   1.191   9.777  1.6944 -0.3408  1.1741
    7SAPS   C36  892   4.490   1.202   9.855  0.2865 -0.2951  0.9219
    7SAPS   H6X  893   4.499   1.299   9.909 -1.4065  0.4580 -0.0844
    7SAPS   H6Y  894   4.432   1.127   9.914  0.9784 -1.5605  0.0508
    7SAPS   C37  895   4.417   1.217   9.721  0.7130 -0.2249 -0.1666
    7SAPS   H7X  896   4.468   1.293   9.657 -2.4862  0.9518 -1.5187
    7SAPS   H7Y  897   4.321   1.267   9.746  1.4348  0.6325  0.9798
    7SAPS   C38  898   4.376   1.091   9.637 -0.0910 -0.0692 -0.6685
    7SAPS   H8X  899   4.339   1.012   9.706 -0.6101 -0.7532 -1.7131
    7SAPS   H8Y  900   4.458   1.048   9.577 -0.1787 -1.2045  0.0006
    7SAPS   C39  901   4.260   1.116   9.543 -0.4376  0.2919  0.8460
    7SAPS   H9X  902   4.277   1.190   9.462 -1.9022 -0.0144  0.2231
    7SAPS   H9Y  903   4.173   1.150   9.603 -1.2417  1.3571 -0.8324
    7SAPS  C310  904   4.197   0.994   9.475 -0.5633 -0.0233 -0.6801
    7SAPS  H10X  905   4.160   0.941   9.565 -0.9477 -0.0929 -0.8767
    7SAPS  H10Y  906   4.276   0.931   9.428  0.3127 -0.2990  1.1069
    7SAPS  C311  907   4.083   1.032   9.381  0.7215  0.1632 -0.3048
    7SAPS  H11X  908   4.017   1.091   9.447  1.0087 -1.7291  1.7824
    7SAPS  H11Y  909   4.030   0.945   9.338 -2.0807  1.4633  0.2858
    7SAPS  C312  910   4.129   1.120   9.254  0.1696  0.2352  0.0288
    7SAPS  H12X  911   4.229   1.082   9.225  0.7290  2.4821 -1.2012
    7SAPS  H12Y  912   4.144   1.221   9.298 -1.5372  0.2220  0.7276
    7SAPS  C313  913   4.018   1.125   9.155 -0.5872  0.1894 -1.2729
    7SAPS  H13X  914   3.950   1.203   9.194  0.9324  2.2973 -2.5848
    7SAPS  H13Y  915   3.976   1.024   9.140  0.8530 -0.2327 -2.8190
    7SAPS  C314  916   4.070   1.160   9.008 -0.5925  0.2974  0.2278
    7SAPS  H14X  917   4.137   1.081   8.967 -0.9514  1.1695 -2.2213
    7SAPS  H14Y  918   4.122   1.258   9.014 -3.7500  2.0202  2.0936
    7SAPS  C315  919   3.955   1.170   8.909  0.0838  0.0110  0.3513
    7SAPS  H15X  920   3.876   1.233   8.954 -0.0125 -0.0436  0.2611
    7SAPS  H15Y  921   3.910   1.068   8.909 -2.1328  0.9324 -0.3146
    7SAPS  C316  922   3.991   1.208   8.766 -0.3317  0.2104  0.2080
    7SAPS  H16X  923   4.067   1.139   8.724 -1.1708 -1.1315  0.8106
    7SAPS  H16Y  924   4.041   1.307   8.766 -1.6632  0.9351 -0.8903
    7SAPS  C317  925   3.864   1.233   8.679 -0.1903 -0.2892  0.3493
    7SAPS  H17X  926   3.789   1.287   8.741  1.0855  1.3111  0.5566
    7SAPS  H17Y  927   3.811   1.135   8.680  0.1476 -0.5169 -1.2858
    7SAPS  C318  928   3.889   1.291   8.537 -0.4915  0.4694  0.4052
    7SAPS  H18X  929   3.910   1.210   8.464 -2.8316  1.0465 -1.0209
    7SAPS  H18Y  930   3.973   1.363   8.540  0.0929 -0.2387  1.3396
    7SAPS  H18Z  931   3.801   1.348   8.498  0.6270  0.9952 -1.4796
    8SAPS     N  932   1.273   4.668  10.880 -1.3375  0.0632 -0.4845
    8SAPS   HN1  933   1.181   4.712  10.901  0.7076  3.6328  1.9489
    8SAPS   HN2  934   1.330   4.724  10.813 -1.9130 -0.7161 -1.6557
    8SAPS   HN3  935   1.254   4.573  10.842  1.3514 -0.7442 -0.0462
    8SAPS   C12  936   1.343   4.643  11.012  0.3108  0.3146  0.1984
    8SAPS  H12A  937   1.261   4.616  11.077  0.2354 -0.2821 -0.1366
    8SAPS   C13  938   1.438   4.523  11.016 -0.4485 -0.5588 -0.5442
    8SAPS  O13A  939   1.463   4.465  10.903 -0.3507  0.0853 -0.0008
    8SAPS  O13B  940   1.484   4.480  11.122 -0.3004  0.3922  0.1093
    8SAPS   C11  941   1.412   4.776  11.061 -0.0097  1.1869  0.3481
    8SAPS  H11A  942   1.498   4.799  10.995  0.1307  0.2222  0.1799
    8SAPS  H11B  943   1.460   4.759  11.160  0.1448 -1.3283 -0.0998
    8SAPS     P  944   1.347   5.021  11.002  0.6076  0.0337 -0.0711
    8SAPS   O13  945   1.233   5.113  11.019  0.1995  0.0675  0.2941
    8SAPS   O14  946   1.486   5.059  11.051  0.0195 -0.0398 -0.1000
    8SAPS   O12  947   1.308   4.884  11.069  0.3760 -1.1071 -0.2124
    8SAPS   O11  948   1.357   4.983  10.853 -0.3855  0.1451  0.2509
    8SAPS    C1  949   1.357   5.080  10.757  0.8843  0.1338  0.0414
    8SAPS    HA  950   1.253   5.117  10.749  1.0660  0.6464  0.0103
    8SAPS    HB  951   1.425   5.166  10.777  0.7406  0.5587 -1.2233
    8SAPS    C2  952   1.397   5.029  10.614  0.4302 -0.4978  0.7857
    8SAPS    HS  953   1.316   4.959  10.581  0.4808 -0.9530  1.6041
    8SAPS   O21  954   1.527   4.966  10.613 -0.2201 -0.0267  0.6386
    8SAPS   C21  955   1.525   4.842  10.650 -0.6205  0.1507 -0.1118
    8SAPS   O22  956   1.430   4.779  10.691  0.1342  0.7259 -0.0224
    8SAPS   C22  957   1.676   4.787  10.643  1.2092 -0.2129 -0.2430
    8SAPS   H2R  958   1.724   4.837  10.556  0.9537 -1.4714 -1.1339
    8SAPS   H2S  959   1.726   4.821  10.736  2.0201 -0.9887 -0.3793
    8SAPS    C3  960   1.382   5.146  10.514  0.2175  0.1389  0.3760
    8SAPS    HX  961   1.451   5.227  10.546  1.6869 -1.9556  2.8824
    8SAPS    HY  962   1.281   5.194  10.510  0.9567  1.6569 -1.4851
    8SAPS   O31  963   1.418   5.099  10.380 -0.7524 -0.3366  0.2856
    8SAPS   C31  964   1.365   5.166  10.274 -0.2636  0.1552 -0.0637
    8SAPS   O32  965   1.294   5.265  10.284  0.6510 -0.6428 -0.3011
    8SAPS   C32  966   1.421   5.105  10.149 -0.3615 -0.3114 -0.1570
    8SAPS   H2X  967   1.390   4.999  10.152 -2.1358  0.1614  2.8630
    8SAPS   H2Y  968   1.531   5.094  10.135 -0.5529 -1.5361 -0.8232
    8SAPS   C23  969   1.690   4.631  10.649  0.2920  0.1680 -0.4755
    8SAPS   H3R  970   1.626   4.581  10.725  1.2044 -1.4385 -0.7055
    8SAPS   H3S  971   1.790   4.603  10.688 -0.6237 -1.7259  0.6525
    8SAPS   C24  972   1.673   4.570  10.507 -0.2527 -1.0959  0.2620
    8SAPS   H4R  973   1.693   4.461  10.514 -0.6059 -1.1476  0.4736
    8SAPS   H4S  974   1.749   4.607  10.434 -0.3698  0.1875  0.7738
    8SAPS   C25  975   1.537   4.598  10.449  0.0325 -0.7168 -0.7607
    8SAPS   H5R  976   1.453   4.560  10.511  0.2958 -1.7994 -1.0561
    8SAPS   C26  977   1.507   4.655  10.335 -0.6397 -0.1507 -0.1141
    8SAPS   H6R  978   1.400   4.658  10.306 -0.9569  1.2860  1.0661
    8SAPS   C27  979   1.605   4.706  10.230  0.2487  0.2020  0.7279
    8SAPS   H7R  980   1.696   4.749  10.278 -0.5295  2.1159  0.5692
    8SAPS   H7S  981   1.559   4.798  10.188  1.1589 -0.3812 -1.7179
    8SAPS   C28  982   1.644   4.604  10.124  0.0503  0.3433  0.1583
    8SAPS   H8R  983   1.582   4.513  10.128  0.6675 -0.2647 -2.2367
    8SAPS   C29  984   1.746   4.596  10.037  0.2925 -0.4948 -0.2347
    8SAPS   H9R  985   1.762   4.505   9.977 -1.8979  0.6941 -2.8364
    8SAPS  C210  986   1.857   4.701  10.016 -0.1697  0.7183 -0.6885
    8SAPS  H10R  987   1.949   4.641  10.034 -0.0609  0.3753 -2.2724
    8SAPS  H10S  988   1.845   4.789  10.082  0.7400  0.6540 -0.4074
    8SAPS  C211  989   1.869   4.763   9.879  0.0696  0.6158  0.5980
    8SAPS  H11R  990   1.774   4.774   9.826 -0.2484  3.2098  1.5558
    8SAPS  C212  991   1.982   4.797   9.807 -0.4652 -0.2183  0.2294
    8SAPS  H12R  992   1.977   4.838   9.705  0.7232 -0.6373 -0.0179
    8SAPS  C213  993   2.114   4.780   9.873 -0.0842  0.0017  0.1653
    8SAPS  H13R  994   2.137   4.671   9.879  1.4485  0.3026  0.2859
    8SAPS  H13S  995   2.104   4.793   9.983  0.0522  0.3507  0.1395
    8SAPS  C214  996   2.228   4.853   9.804  0.0652  0.2242 -0.5903
    8SAPS  H14R  997   2.252   4.940   9.866 -2.0227  1.1887 -1.0614
    8SAPS  C215  998   2.275   4.830   9.681  0.2514 -0.4334  0.2363
    8SAPS  H15R  999   2.352   4.897   9.639  0.4217  0.5138  1.9677
    8SAPS  C216 1000   2.235   4.720   9.591  0.0647  0.4587 -0.3105
    8SAPS  H16R 1001   2.149   4.667   9.637 -0.1554  0.4860 -0.6829
    8SAPS  H16S 1002   2.315   4.644   9.604 -0.6049 -0.4384 -1.2502
    8SAPS  C217 1003   2.198   4.760   9.450 -0.1114  0.7779  0.9583
    8SAPS  H17R 1004   2.202   4.662   9.398  1.0758  1.0654  0.4645
    8SAPS  H17S 1005   2.277   4.824   9.405  0.2404  1.9614  3.0828
    8SAPS  C218 1006   2.066   4.832   9.432  0.0541 -1.0805  0.6388
    8SAPS  H18R 1007   2.070   4.906   9.515  1.5412  1.7791 -1.7503
    8SAPS  H18S 1008   1.982   4.763   9.455  0.3048 -0.6980  2.9437
    8SAPS  C219 1009   2.042   4.905   9.297 -0.4589  0.4304 -0.0800
    8SAPS  H19R 1010   2.073   4.830   9.222 -1.0459 -0.1730  0.2679
    8SAPS  H19S 1011   2.108   4.995   9.300 -0.3699  0.3755 -0.3937
    8SAPS  C220 1012   1.901   4.959   9.288 -0.3333  0.1182  0.2137
    8SAPS  H20R 1013   1.830   4.875   9.302  0.6255 -0.8576 -0.6425
    8SAPS  H20S 1014   1.873   4.988   9.184 -1.8485 -1.1865  0.2161
    8SAPS  H20T 1015   1.880   5.050   9.348  1.0125 -0.3299  1.4361
    8SAPS   C33 1016   1.355   5.177  10.028  0.0176 -0.1112 -0.4072
    8SAPS   H3X 1017   1.408   5.274  10.016  0.7270 -0.4170  0.1635
    8SAPS   H3Y 1018   1.250   5.207  10.046  0.4892  2.4325 -1.5282
    8SAPS   C34 1019   1.364   5.099   9.895 -0.1100 -0.4614  0.2803
    8SAPS   H4X 1020   1.320   4.997   9.906 -1.7997  0.0978 -0.8574
    8SAPS   H4Y 1021   1.469   5.091   9.862 -1.1871 -0.3078 -3.6641
    8SAPS   C35 1022   1.286   5.170   9.775 -0.3776  0.4449 -0.3523
    8SAPS   H5X 1023   1.332   5.269   9.758 -0.7506  0.1596 -3.4880
    8SAPS   H5Y 1024   1.181   5.168   9.812  0.0233 -1.7529  0.8698
    8SAPS   C36 1025   1.286   5.097   9.639 -0.4061  0.0629  0.1162
    8SAPS   H6X 1026   1.200   5.132   9.579  0.4162  1.0336 -0.5222
    8SAPS   H6Y 1027   1.269   4.989   9.659 -0.3362  0.0203 -0.0560
    8SAPS   C37 1028   1.414   5.134   9.556  0.2432 -0.1459  0.5100
    8SAPS   H7X 1029   1.507   5.102   9.609  2.1402  4.1784  0.2152
    8SAPS   H7Y 1030   1.413   5.244   9.540 -2.8143 -0.1124  0.4165
    8SAPS   C38 1031   1.412   5.066   9.416 -0.6079 -1.0229  0.5388
    8SAPS   H8X 1032   1.329   5.104   9.353 -2.6597 -1.7767  2.6526
    8SAPS   H8Y 1033   1.396   4.956   9.427 -1.4434 -1.1872 -1.8530
    8SAPS   C39 1034   1.546   5.088   9.337 -0.0534  0.7322 -0.1577
    8SAPS   H9X 1035   1.616   5.027   9.398 -3.0920 -0.2024  2.7484
    8SAPS   H9Y 1036   1.575   5.195   9.342  0.9661  0.5275 -1.2302
    8SAPS  C310 1037   1.553   5.027   9.189  0.6569  0.0188  0.6103
    8SAPS  H10X 1038   1.542   4.917   9.190  3.3123 -0.3239  0.6031
    8SAPS  H10Y 1039   1.661   5.042   9.168  0.9395 -1.9281  0.4971
    8SAPS  C311 1040   1.471   5.103   9.084 -0.2361  0.1111 -0.5905
    8SAPS  H11X 1041   1.522   5.200   9.066  1.1608 -0.4135  0.3760
    8SAPS  H11Y 1042   1.374   5.140   9.122  0.1959  0.1545  0.5137
    8SAPS  C312 1043   1.469   5.018   8.959  0.0298 -0.0017  0.8381
    8SAPS  H12X 1044   1.413   5.077   8.883 -0.7748  1.2639  2.3628
    8SAPS  H12Y 1045   1.408   4.926   8.972 -0.2573  0.3268  1.8445
    8SAPS  C313 1046   1.605   4.987   8.893 -0.8429  0.2442 -0.7553
    8SAPS  H13X 1047   1.656   4.918   8.964  0.6169  0.1296 -1.8649
    8SAPS  H13Y 1048   1.677   5.072   8.883 -0.5424  0.2330  1.0299
    8SAPS  C314 1049   1.590   4.910   8.761 -0.5329  0.8109  0.1655
    8SAPS  H14X 1050   1.553   4.985   8.687  2.1944  1.5414 -0.5659
    8SAPS  H14Y 1051   1.523   4.824   8.783  0.3057  0.2969  0.7589
    8SAPS  C315 1052   1.719   4.858   8.688 -0.2565 -0.3287  0.5266
    8SAPS  H15X 1053   1.766   4.776   8.746 -0.1278  0.6091  1.7789
    8SAPS  H15Y 1054   1.791   4.942   8.683 -0.9323  0.2984  1.1794
    8SAPS  C316 1055   1.692   4.797   8.548 -0.8798 -0.6900  0.0724
    8SAPS  H16X 1056   1.613   4.719   8.542  0.5764 -2.1907 -0.2225
    8SAPS  H16Y 1057   1.784   4.743   8.520  0.7350  1.8482  0.1409
    8SAPS  C317 1058   1.674   4.907   8.437  0.3281 -0.7218 -0.4732
    8SAPS  H17X 1059   1.752   4.985   8.448 -0.9063  0.3625  1.0395
    8SAPS  H17Y 1060   1.575   4.948   8.465 -0.9028 -2.7459 -1.6231
    8SAPS  C318 1061   1.667   4.859   8.294  0.5157  0.1023  0.9460
    8SAPS  H18X 1062   1.767   4.818   8.265 -0.0731 -0.6129 -0.1804
    8SAPS  H18Y 1063   1.642   4.947   8.231  0.5196 -0.3817  0.2544
    8SAPS  H18Z 1064   1.594   4.776   8.280 -2.7433  2.9285 -0.2218
    9SAPS     N 1065   4.714   3.960   6.243  0.0884 -0.3840 -0.2206
    9SAPS   HN1 1066   4.619   3.973   6.282  1.0269  2.0860  1.5256
    9SAPS   HN2 1067   4.704   3.910   6.152  1.5706 -0.3874 -0.4199
    9SAPS   HN3 1068   4.767   3.888   6.296  0.9145  1.9149  2.2893
    9SAPS   C12 1069   4.782   4.093   6.216 -0.9921 -0.0579  0.1722
    9SAPS  H12A 1070   4.887   4.067   6.205 -0.7153  1.2289 -0.3896
    9SAPS   C13 1071   4.750   4.159   6.074  0.1344 -0.0661  0.1345
    9SAPS  O13A 1072   4.667   4.093   6.001 -0.2314 -0.0920  0.0219
    9SAPS  O13B 1073   4.826   4.251   6.029  0.7160 -0.1842 -0.6462
    9SAPS   C11 1074   4.748   4.200   6.327 -1.1192  0.5430 -0.0109
    9SAPS  H11A 1075   4.648   4.242   6.304 -0.5627  0.6793 -2.4273
    9SAPS  H11B 1076   4.814   4.288   6.314 -0.6522  0.2886  0.6011
    9SAPS     P 1077   4.678   4.244   6.576 -0.3582 -0.3660  0.1454
    9SAPS   O13 1078   4.534   4.229   6.542 -0.0830 -0.4824 -0.0296
    9SAPS   O14 1079   4.719   4.206   6.710 -0.2455 -0.1631  0.0344
    9SAPS   O12 1080   4.758   4.157   6.468 -0.0413 -0.0898 -0.3521
    9SAPS   O11 1081   4.712   4.389   6.548 -0.4173  0.0820 -0.5966
    9SAPS    C1 1082   4.851   4.444   6.569  0.0388  0.1816 -0.2089
    9SAPS    HA 1083   4.931   4.372   6.597 -0.1505  0.3926  0.9329
    9SAPS    HB 1084   4.891   4.485   6.474 -0.9202 -1.2467 -1.2707
    9SAPS    C2 1085   4.847   4.558   6.669  0.1507  0.0362  0.4845
    9SAPS    HS 1086   4.942   4.616   6.664  0.5508 -0.4492  1.8997
    9SAPS   O21 1087   4.851   4.507   6.806  0.4617 -0.3354  0.0657
    9SAPS   C21 1088   4.967   4.453   6.852  0.8520  0.3644 -0.8265
    9SAPS   O22 1089   5.072   4.441   6.791  0.2833  0.0956 -0.3369
    9SAPS   C22 1090   4.942   4.395   6.989  0.0233  0.2755 -0.5662
    9SAPS   H2R 1091   4.864   4.452   7.045  1.0745 -0.1751  1.4794
    9SAPS   H2S 1092   4.901   4.292   6.976 -0.5346  0.6526 -1.9673
    9SAPS    C3 1093   4.721   4.653   6.642  0.1724  0.0019  0.8187
    9SAPS    HX 1094   4.624   4.599   6.652 -0.7476  1.8332  2.3995
    9SAPS    HY 1095   4.713   4.691   6.538  2.6629 -1.3405  0.0575
    9SAPS   O31 1096   4.723   4.763   6.734 -0.3906  0.1504  0.4313
    9SAPS   C31 1097   4.800   4.866   6.690  0.7631  0.4579 -0.7579
    9SAPS   O32 1098   4.874   4.861   6.594  0.4091 -0.2831 -0.0500
    9SAPS   C32 1099   4.774   4.990   6.778  0.0188  0.3064  0.7069
    9SAPS   H2X 1100   4.877   5.019   6.807  0.3689  0.5797 -0.7324
    9SAPS   H2Y 1101   4.716   4.964   6.870 -0.6297 -2.7252 -0.4416
    9SAPS   C23 1102   5.072   4.392   7.077 -0.6820 -0.1043 -0.2617
    9SAPS   H3R 1103   5.086   4.495   7.118 -0.4223  0.3634 -1.4735
    9SAPS   H3S 1104   5.157   4.353   7.017  0.7572  1.1877  0.8480
    9SAPS   C24 1105   5.064   4.298   7.198 -0.1755  0.2089 -0.2382
    9SAPS   H4R 1106   5.161   4.308   7.250 -1.4522 -0.3005  2.4492
    9SAPS   H4S 1107   5.044   4.193   7.166  2.0014 -0.5056  0.6069
    9SAPS   C25 1108   4.955   4.327   7.299  0.7617 -0.0509 -0.3008
    9SAPS   H5R 1109   4.855   4.311   7.255  0.6474 -2.3952  0.6618
    9SAPS   C26 1110   4.974   4.370   7.421 -0.4248 -0.2400 -0.3351
    9SAPS   H6R 1111   4.882   4.364   7.482  0.2603 -1.0801  0.6670
    9SAPS   C27 1112   5.100   4.401   7.509  0.0220 -0.8483 -0.2052
    9SAPS   H7R 1113   5.165   4.466   7.447 -1.3024 -0.9097 -1.7023
    9SAPS   H7S 1114   5.172   4.319   7.530  1.1338  0.5173  1.7068
    9SAPS   C28 1115   5.070   4.476   7.636 -0.2021 -0.1073  0.5823
    9SAPS   H8R 1116   5.017   4.571   7.626 -1.5243 -0.9099 -0.3112
    9SAPS   C29 1117   5.111   4.448   7.761  0.7891  0.0087  0.0653
    9SAPS   H9R 1118   5.083   4.524   7.835  0.0467 -0.9927  0.8276
    9SAPS  C210 1119   5.197   4.341   7.824 -0.3770 -0.1384  0.3416
    9SAPS  H10R 1120   5.168   4.329   7.930  0.5305 -1.3564  0.4701
    9SAPS  H10S 1121   5.304   4.369   7.832 -0.9039  2.7492 -1.4151
    9SAPS  C211 1122   5.173   4.193   7.776 -0.3147 -0.3719 -0.3201
    9SAPS  H11R 1123   5.065   4.175   7.779 -0.4337  0.2144 -0.8162
    9SAPS  C212 1124   5.265   4.097   7.744 -0.0447 -0.3501 -0.3838
    9SAPS  H12R 1125   5.223   3.997   7.727 -0.4511 -0.7699  2.5376
    9SAPS  C213 1126   5.413   4.126   7.731  0.4921 -0.2864 -0.4976
    9SAPS  H13R 1127   5.457   4.132   7.832 -1.9767 -2.9953  0.8950
    9SAPS  H13S 1128   5.426   4.218   7.671 -0.2293 -1.3646 -2.4259
    9SAPS  C214 1129   5.478   4.020   7.654 -0.0742  0.6434  1.3342
    9SAPS  H14R 1130   5.542   3.956   7.716  0.3552 -0.9865 -0.6746
    9SAPS  C215 1131   5.464   3.984   7.523  0.2640  0.7766 -0.4119
    9SAPS  H15R 1132   5.508   3.888   7.493  0.4343  0.3795  1.0208
    9SAPS  C216 1133   5.384   4.059   7.422 -0.0051  0.3319  0.2521
    9SAPS  H16R 1134   5.369   4.164   7.455  3.1665 -0.1153  3.8445
    9SAPS  H16S 1135   5.279   4.023   7.416 -0.4393  1.7770 -1.5967
    9SAPS  C217 1136   5.459   4.055   7.287 -0.3925 -0.1732 -0.1851
    9SAPS  H17R 1137   5.483   3.952   7.255  1.5232  0.7095 -1.7902
    9SAPS  H17S 1138   5.560   4.099   7.297  0.6426 -2.5933  0.7283
    9SAPS  C218 1139   5.373   4.121   7.178 -0.6963 -0.3821  0.5752
    9SAPS  H18R 1140   5.385   4.231   7.192 -1.5317 -0.0952 -0.8400
    9SAPS  H18S 1141   5.267   4.095   7.198 -0.1933 -1.0908  2.6145
    9SAPS  C219 1142   5.421   4.060   7.041  0.0400 -0.5535  0.0964
    9SAPS  H19R 1143   5.363   4.107   6.959 -3.4805 -3.5656  0.5829
    9SAPS  H19S 1144   5.390   3.953   7.041 -1.9489 -0.0140  0.6466
    9SAPS  C220 1145   5.572   4.075   7.021 -0.1443  1.0790 -0.7323
    9SAPS  H20R 1146   5.604   4.065   6.915 -2.9016  0.5151 -1.5924
    9SAPS  H20S 1147   5.636   4.020   7.093 -0.3111  0.4284 -1.0743
    9SAPS  H20T 1148   5.591   4.180   7.050  0.5868  0.2360  2.2143
    9SAPS   C33 1149   4.705   5.107   6.698 -0.2417  0.3767 -0.4894
    9SAPS   H3X 1150   4.599   5.082   6.673 -0.1106  0.0955 -0.7766
    9SAPS   H3Y 1151   4.752   5.109   6.598 -1.3413 -2.7443 -1.1795
    9SAPS   C34 1152   4.707   5.238   6.767  0.3834 -0.3512 -0.7144
    9SAPS   H4X 1153   4.659   5.228   6.867 -0.6319  2.8920 -0.7666
    9SAPS   H4Y 1154   4.651   5.314   6.709  0.9377  0.5278 -0.1323
    9SAPS   C35 1155   4.851   5.294   6.804  0.4530  0.0805 -0.5281
    9SAPS   H5X 1156   4.915   5.299   6.713  1.1188  3.6558 -0.0157
    9SAPS   H5Y 1157   4.899   5.208   6.855 -0.8571 -1.4115 -1.6862
    9SAPS   C36 1158   4.858   5.418   6.883  0.3416  0.3162  0.1649
    9SAPS   H6X 1159   4.820   5.496   6.814  1.4092  0.1183 -0.6825
    9SAPS   H6Y 1160   4.962   5.446   6.909  0.9779 -2.5340  1.0877
    9SAPS   C37 1161   4.782   5.411   7.012 -0.0235  0.3767  0.1598
    9SAPS   H7X 1162   4.674   5.392   6.993  0.4898 -1.1122 -1.6356
    9SAPS   H7Y 1163   4.783   5.509   7.064 -0.8463 -0.4648  1.8405
    9SAPS   C38 1164   4.852   5.329   7.118  0.0310 -0.4008 -0.2058
    9SAPS   H8X 1165   4.961   5.350   7.123  0.6812 -3.2977 -0.2662
    9SAPS   H8Y 1166   4.831   5.225   7.085 -1.1799 -0.6904  1.3356
    9SAPS   C39 1167   4.782   5.342   7.254 -1.0686 -0.5302 -0.3895
    9SAPS   H9X 1168   4.813   5.259   7.321  0.8827  0.0452 -0.5012
    9SAPS   H9Y 1169   4.674   5.324   7.237 -0.7320 -2.1988 -0.9435
    9SAPS  C310 1170   4.818   5.466   7.341  0.2404 -0.2609  0.5759
    9SAPS  H10X 1171   4.780   5.548   7.277 -0.6521 -1.4192 -0.4476
    9SAPS  H10Y 1172   4.928   5.479   7.333 -0.1144  4.0967  0.4724
    9SAPS  C311 1173   4.767   5.472   7.484 -0.2512 -0.1813 -0.4314
    9SAPS  H11X 1174   4.677   5.411   7.502 -0.5605  0.4266  0.1063
    9SAPS  H11Y 1175   4.750   5.578   7.512 -0.1180 -0.2574 -0.0678
    9SAPS  C312 1176   4.877   5.421   7.582 -0.4508  0.8503  0.2348
    9SAPS  H12X 1177   4.973   5.467   7.551 -0.2455  0.1224 -0.2124
    9SAPS  H12Y 1178   4.895   5.313   7.567 -0.8317  0.0649  4.1709
    9SAPS  C313 1179   4.846   5.439   7.733 -0.0917 -0.0482  0.0600
    9SAPS  H13X 1180   4.762   5.371   7.759 -0.1265  0.1770  0.5721
    9SAPS  H13Y 1181   4.823   5.544   7.763  1.0044  0.5505 -1.1240
    9SAPS  C314 1182   4.969   5.404   7.818 -0.7152  0.2816 -0.6092
    9SAPS  H14X 1183   5.054   5.465   7.782 -0.5997  1.0685  0.9063
    9SAPS  H14Y 1184   4.989   5.294   7.817  0.6439  0.5061 -0.0421
    9SAPS  C315 1185   4.960   5.446   7.964  0.3824  0.3036 -0.2322
    9SAPS  H15X 1186   4.876   5.390   8.010 -0.3482  2.0639  0.6508
    9SAPS  H15Y 1187   4.939   5.555   7.960  0.2356  0.3160  0.6230
    9SAPS  C316 1188   5.091   5.443   8.034  0.0186 -0.2600  0.1610
    9SAPS  H16X 1189   5.165   5.505   7.978  1.9405 -2.5481 -0.0347
    9SAPS  H16Y 1190   5.135   5.340   8.029  1.5688  0.2501  1.9956
    9SAPS  C317 1191   5.079   5.487   8.172 -0.2214 -0.2023 -0.0015
    9SAPS  H17X 1192   5.006   5.429   8.231 -0.2976 -0.1511 -0.0449
    9SAPS  H17Y 1193   5.041   5.592   8.164  1.3215  0.4412  0.7210
    9SAPS  C318 1194   5.218   5.494   8.237  0.4932 -0.3930  0.3170
    9SAPS  H18X 1195   5.288   5.555   8.177 -0.2431  0.2065  0.0598
    9SAPS  H18Y 1196   5.264   5.393   8.249  3.7179  0.8383 -0.6281
    9SAPS  H18Z 1197   5.207   5.541   8.337 -3.6353  1.5912 -0.8563
   10SAPS     N 1198   4.764   1.786   6.070 -0.1694  0.2059 -0.0802
   10SAPS   HN1 1199   4.807   1.691   6.068 -2.0940 -0.7337  0.2724
   10SAPS   HN2 1200   4.813   1.844   6.000 -3.2055  0.7043 -1.9887
   10SAPS   HN3 1201   4.775   1.824   6.166  1.7275  1.7709 -0.8501
   10SAPS   C12 1202   4.617   1.779   6.041 -0.2583 -0.1543 -0.3344
   10SAPS  H12A 1203   4.585   1.868   5.990 -0.3367  1.0386  1.6970
   10SAPS   C13 1204   4.582   1.669   5.950  0.0276  0.5542 -0.0149
   10SAPS  O13A 1205   4.675   1.599   5.895 -0.0871  0.2292 -0.1579
   10SAPS  O13B 1206   4.467   1.663   5.898 -0.5575 -0.3299  0.0526
   10SAPS   C11 1207   4.537   1.763   6.174  0.1016 -0.3263  0.3085
   10SAPS  H11A 1208   4.566   1.668   6.224  0.9332 -0.5179 -0.5003
   10SAPS  H11B 1209   4.427   1.758   6.160  0.2052 -0.2031 -0.6559
   10SAPS     P 1210   4.500   2.017   6.247 -0.0666  0.1460 -0.1004
   10SAPS   O13 1211   4.609   2.116   6.235  0.4613 -0.2825  0.2885
   10SAPS   O14 1212   4.399   2.007   6.133 -0.7019  0.2414 -0.4195
   10SAPS   O12 1213   4.560   1.867   6.264  0.1515 -0.1943  0.3598
   10SAPS   O11 1214   4.424   2.047   6.390 -0.2223  0.3230 -0.4245
   10SAPS    C1 1215   4.381   1.939   6.471  1.1294  0.4196  0.4399
   10SAPS    HA 1216   4.279   1.970   6.502  0.7258 -0.2820 -0.1685
   10SAPS    HB 1217   4.373   1.844   6.414  5.5589 -1.0045  1.7555
   10SAPS    C2 1218   4.469   1.906   6.591  0.5534  0.1644  0.5337
   10SAPS    HS 1219   4.418   1.825   6.648  1.3770 -0.2971  0.6260
   10SAPS   O21 1220   4.484   2.017   6.681 -0.1943 -0.9152  0.5019
   10SAPS   C21 1221   4.384   2.044   6.756 -0.1212 -0.6803 -0.9683
   10SAPS   O22 1222   4.279   1.983   6.768 -0.7173 -0.4214 -0.7178
   10SAPS   C22 1223   4.415   2.150   6.854  0.2699  0.2497  0.4181
   10SAPS   H2R 1224   4.519   2.187   6.839  1.0412 -1.2100  1.7407
   10SAPS   H2S 1225   4.337   2.229   6.848  1.7972  1.9912  2.0941
   10SAPS    C3 1226   4.605   1.845   6.556 -0.1279 -0.3606 -0.0959
   10SAPS    HX 1227   4.659   1.930   6.510 -3.3635  2.3378  0.6585
   10SAPS    HY 1228   4.596   1.761   6.484  0.0358 -0.4901  0.0337
   10SAPS   O31 1229   4.658   1.794   6.674 -0.4182  0.9249 -0.2856
   10SAPS   C31 1230   4.789   1.761   6.673 -0.4559 -0.4700  0.6161
   10SAPS   O32 1231   4.864   1.785   6.581  0.2582 -0.1531  0.0715
   10SAPS   C32 1232   4.821   1.664   6.788  0.5107 -0.0655 -0.6075
   10SAPS   H2X 1233   4.742   1.587   6.798  1.5020 -0.9597  0.6592
   10SAPS   H2Y 1234   4.795   1.723   6.878 -1.4375 -0.4417 -0.8777
   10SAPS   C23 1235   4.404   2.102   7.001 -0.4284 -0.2898  0.3702
   10SAPS   H3R 1236   4.444   1.999   7.008  0.3333  0.0209  0.7748
   10SAPS   H3S 1237   4.301   2.116   7.040 -1.5513 -0.9934 -2.1745
   10SAPS   C24 1238   4.502   2.178   7.099  0.6115 -0.1294 -0.3418
   10SAPS   H4R 1239   4.459   2.181   7.201  0.3119 -0.1478 -0.4665
   10SAPS   H4S 1240   4.502   2.284   7.068  1.4296 -0.1239 -0.3420
   10SAPS   C25 1241   4.647   2.133   7.105 -0.1079  1.0517  0.4338
   10SAPS   H5R 1242   4.705   2.164   7.017  0.4119  2.2091  1.1576
   10SAPS   C26 1243   4.695   2.066   7.211 -0.1933  0.6734 -0.3015
   10SAPS   H6R 1244   4.801   2.037   7.215 -0.2729  0.4678  0.5249
   10SAPS   C27 1245   4.611   2.026   7.335  0.4788  0.0410  0.7602
   10SAPS   H7R 1246   4.656   1.929   7.366 -0.0635 -1.0736 -1.6927
   10SAPS   H7S 1247   4.511   1.999   7.294  0.5387 -1.1063  1.3444
   10SAPS   C28 1248   4.599   2.123   7.447 -0.3868 -0.7835 -0.2473
   10SAPS   H8R 1249   4.668   2.208   7.441 -0.8468 -0.4569 -0.9977
   10SAPS   C29 1250   4.513   2.121   7.546  0.7839  0.2771 -0.1698
   10SAPS   H9R 1251   4.539   2.190   7.628 -0.4492  0.8371 -0.2357
   10SAPS  C210 1252   4.419   2.011   7.584 -0.1900  0.3466 -0.0963
   10SAPS  H10R 1253   4.420   1.929   7.510  1.2874 -0.9710  1.3002
   10SAPS  H10S 1254   4.312   2.039   7.598 -0.3083 -0.4077  0.6249
   10SAPS  C211 1255   4.464   1.942   7.710 -0.8524 -0.0207  0.0981
   10SAPS  H11R 1256   4.537   1.862   7.692 -0.3164  0.4683  0.1022
   10SAPS  C212 1257   4.414   1.951   7.834  0.1926 -0.2432  0.1498
   10SAPS  H12R 1258   4.472   1.891   7.907  0.2628  0.3355  0.5715
   10SAPS  C213 1259   4.301   2.033   7.887 -0.2101  0.9050 -0.0592
   10SAPS  H13R 1260   4.205   1.978   7.878 -1.4209  3.1731 -2.2811
   10SAPS  H13S 1261   4.288   2.119   7.817  1.7074  1.3397  0.0728
   10SAPS  C214 1262   4.324   2.070   8.031 -0.0297  0.1461 -0.4036
   10SAPS  H14R 1263   4.405   2.144   8.042  1.0864 -0.8196 -1.7738
   10SAPS  C215 1264   4.263   2.016   8.143 -0.1392  0.2239  0.3690
   10SAPS  H15R 1265   4.286   2.061   8.240  0.3780 -2.5585  1.6151
   10SAPS  C216 1266   4.156   1.906   8.140 -0.5233  0.1239 -0.3097
   10SAPS  H16R 1267   4.155   1.856   8.040  0.9008 -1.8898  0.6093
   10SAPS  H16S 1268   4.051   1.940   8.154 -0.3317  0.5620  0.0862
   10SAPS  C217 1269   4.181   1.806   8.252 -0.4013  0.3344  0.3551
   10SAPS  H17R 1270   4.188   1.858   8.350  2.0247 -0.5568  0.7254
   10SAPS  H17S 1271   4.282   1.764   8.230 -0.6522 -0.3947  0.5617
   10SAPS  C218 1272   4.076   1.687   8.264 -1.2613 -1.1358  0.2664
   10SAPS  H18R 1273   3.973   1.726   8.252 -0.5046  0.5929 -1.2312
   10SAPS  H18S 1274   4.087   1.653   8.369  0.8608  2.9402  1.5797
   10SAPS  C219 1275   4.097   1.577   8.159  0.1447  0.6380  0.0418
   10SAPS  H19R 1276   4.098   1.623   8.058  1.1654 -1.1252 -0.7995
   10SAPS  H19S 1277   4.004   1.519   8.176  0.8241 -0.2840  0.7622
   10SAPS  C220 1278   4.205   1.477   8.173 -0.2075 -0.2032 -0.6021
   10SAPS  H20R 1279   4.206   1.434   8.275  2.6992  0.4233 -0.2702
   10SAPS  H20S 1280   4.304   1.528   8.163 -0.5887  1.0067  1.2639
   10SAPS  H20T 1281   4.199   1.394   8.099 -0.1186 -0.6157 -0.1496
   10SAPS   C33 1282   4.959   1.590   6.773  0.0804 -0.0550  0.1194
   10SAPS   H3X 1283   5.044   1.661   6.772 -0.0329  0.1302  1.5889
   10SAPS   H3Y 1284   4.969   1.536   6.676  3.1119  0.6860 -0.0715
   10SAPS   C34 1285   5.000   1.500   6.882 -0.7457 -1.2155 -0.0364
   10SAPS   H4X 1286   5.091   1.447   6.848  1.0843  1.1201  0.9935
   10SAPS   H4Y 1287   4.928   1.418   6.906 -0.4185 -0.7044  3.0888
   10SAPS   C35 1288   5.042   1.578   7.013 -0.2218  0.3376  0.1982
   10SAPS   H5X 1289   4.956   1.637   7.053  0.1667  1.1521 -0.1434
   10SAPS   H5Y 1290   5.130   1.641   6.989 -0.0369  0.5784  1.4371
   10SAPS   C36 1291   5.089   1.483   7.118  1.4173  0.5690 -0.6240
   10SAPS   H6X 1292   5.195   1.452   7.102  1.5550  0.0278  1.1514
   10SAPS   H6Y 1293   5.027   1.392   7.105  2.6875 -0.3881 -0.1659
   10SAPS   C37 1294   5.081   1.552   7.259  0.3397  0.5615 -0.1942
   10SAPS   H7X 1295   4.976   1.566   7.291 -0.0781  0.4832 -1.4859
   10SAPS   H7Y 1296   5.127   1.653   7.262 -0.4994  0.9566  3.1336
   10SAPS   C38 1297   5.158   1.460   7.355  0.4248 -0.6203 -0.8378
   10SAPS   H8X 1298   5.268   1.464   7.336  0.1909  0.1994 -2.2187
   10SAPS   H8Y 1299   5.129   1.353   7.343  0.4487 -0.6352 -0.7659
   10SAPS   C39 1300   5.133   1.507   7.507 -0.3729 -0.6449 -0.8207
   10SAPS   H9X 1301   5.026   1.511   7.534 -0.7335  2.6390 -2.2951
   10SAPS   H9Y 1302   5.186   1.603   7.524  0.5835 -1.0195 -1.5521
   10SAPS  C310 1303   5.196   1.405   7.604  0.9692  0.2629 -0.1824
   10SAPS  H10X 1304   5.286   1.358   7.560  0.9801  0.1344 -0.0218
   10SAPS  H10Y 1305   5.119   1.325   7.610  1.9146 -0.5849  1.0238
   10SAPS  C311 1306   5.228   1.464   7.742  0.7512 -0.2207  0.0797
   10SAPS  H11X 1307   5.317   1.530   7.742  0.8872 -0.4044  0.3924
   10SAPS  H11Y 1308   5.262   1.377   7.802  1.8120  0.2041  0.1197
   10SAPS  C312 1309   5.111   1.527   7.811  0.1850  0.3977  0.3184
   10SAPS  H12X 1310   5.046   1.448   7.855 -0.4541  1.4869  1.4215
   10SAPS  H12Y 1311   5.040   1.586   7.749 -1.5521 -1.9675 -0.0997
   10SAPS  C313 1312   5.162   1.601   7.935  0.6656  0.1097 -0.7232
   10SAPS  H13X 1313   5.222   1.690   7.903 -0.0688  0.8931  0.0450
   10SAPS  H13Y 1314   5.242   1.541   7.985  1.7650  1.2106 -1.0945
   10SAPS  C314 1315   5.047   1.646   8.034 -1.2353  0.7589  0.1969
   10SAPS  H14X 1316   5.006   1.557   8.086  0.2392 -0.2191 -0.2406
   10SAPS  H14Y 1317   4.974   1.696   7.967  0.8285  0.0808 -2.7420
   10SAPS  C315 1318   5.092   1.735   8.156 -0.2606 -0.5025  0.3535
   10SAPS  H15X 1319   5.135   1.832   8.124 -0.2167 -0.5956  0.1265
   10SAPS  H15Y 1320   5.172   1.691   8.220 -0.5067  0.4607  1.3516
   10SAPS  C316 1321   4.981   1.764   8.253  0.5793 -0.1228  0.2028
   10SAPS  H16X 1322   4.928   1.673   8.288 -0.1845  0.6749  1.1604
   10SAPS  H16Y 1323   4.897   1.799   8.191  0.8196 -0.7436 -0.4902
   10SAPS  C317 1324   5.020   1.843   8.374  0.1373 -0.1266 -0.2688
   10SAPS  H17X 1325   4.942   1.913   8.412  0.8839  2.3004 -2.8393
   10SAPS  H17Y 1326   5.103   1.908   8.338  0.3259 -0.3668 -0.2662
   10SAPS  C318 1327   5.078   1.759   8.481 -0.0445  0.8348  0.0658
   10SAPS  H18X 1328   5.129   1.821   8.558  1.5083 -0.1238 -0.1461
   10SAPS  H18Y 1329   5.151   1.682   8.448 -1.0182  0.6763 -1.8075
   10SAPS  H18Z 1330   4.994   1.700   8.523  0.5350  0.2626  0.4355
   11SAPS     N 1331   6.681   2.303   6.252  0.1787 -0.3906 -0.4790
   11SAPS   HN1 1332   6.762   2.357   6.287  0.7400 -0.4631 -1.6206
   11SAPS   HN2 1333   6.602   2.368   6.269  0.0698 -0.4022 -0.9147
   11SAPS   HN3 1334   6.676   2.213   6.305 -0.3907  0.6243  1.2688
   11SAPS   C12 1335   6.689   2.282   6.102  0.6655 -0.3666 -0.0863
   11SAPS  H12A 1336   6.592   2.253   6.065  0.2432  0.7883  0.0832
   11SAPS   C13 1337   6.718   2.419   6.024 -0.2037  0.0743 -0.1107
   11SAPS  O13A 1338   6.714   2.530   6.083  0.2836  0.1361  0.1477
   11SAPS  O13B 1339   6.727   2.412   5.897  0.1921 -0.5475  0.1580
   11SAPS   C11 1340   6.784   2.165   6.069  0.5505  0.0012 -0.0363
   11SAPS  H11A 1341   6.779   2.123   5.967 -1.2236 -0.8662  0.3671
   11SAPS  H11B 1342   6.745   2.081   6.130  0.9898  0.1527  0.4537
   11SAPS     P 1343   7.032   2.092   6.129  0.3102 -0.3715  0.3055
   11SAPS   O13 1344   7.059   2.021   5.997 -0.1759  0.0762  0.0666
   11SAPS   O14 1345   7.145   2.165   6.191 -0.4904 -0.4282  0.5639
   11SAPS   O12 1346   6.917   2.199   6.109  0.1565  0.1341 -0.3907
   11SAPS   O11 1347   6.977   1.983   6.236  0.0271 -0.0517  0.7090
   11SAPS    C1 1348   7.086   1.921   6.315  0.1454  0.1913 -0.0231
   11SAPS    HA 1349   7.141   1.844   6.256  0.4476 -1.0701  1.8472
   11SAPS    HB 1350   7.154   1.996   6.361  0.3959 -1.5153  2.5187
   11SAPS    C2 1351   7.036   1.823   6.431 -0.3188 -0.8159  0.2613
   11SAPS    HS 1352   6.969   1.748   6.384 -1.8960 -0.0943  1.2836
   11SAPS   O21 1353   6.950   1.900   6.523 -0.1156  0.2896 -0.0337
   11SAPS   C21 1354   6.865   1.822   6.594 -0.2143  0.3574  0.2277
   11SAPS   O22 1355   6.835   1.705   6.568 -0.4135  0.2362 -0.2141
   11SAPS   C22 1356   6.796   1.906   6.692  0.6096 -0.2532  0.5770
   11SAPS   H2R 1357   6.872   1.935   6.767  3.0689 -3.1660 -0.5884
   11SAPS   H2S 1358   6.755   1.995   6.639 -0.3316 -1.3126 -0.5377
   11SAPS    C3 1359   7.145   1.752   6.508 -0.2926  0.6460 -0.2649
   11SAPS    HX 1360   7.199   1.682   6.442 -2.2826  0.0740 -1.3614
   11SAPS    HY 1361   7.101   1.679   6.580  0.7115  0.0055 -0.2743
   11SAPS   O31 1362   7.245   1.832   6.575  0.1939  0.3929  0.2511
   11SAPS   C31 1363   7.203   1.882   6.689  0.4386 -0.6223  0.4117
   11SAPS   O32 1364   7.100   1.850   6.748 -0.3879  0.0422 -0.0050
   11SAPS   C32 1365   7.303   1.977   6.747 -0.9163 -0.4142 -0.5299
   11SAPS   H2X 1366   7.261   2.067   6.797  0.8056  1.6795 -2.6075
   11SAPS   H2Y 1367   7.362   2.023   6.664 -0.8293 -0.0465 -0.2655
   11SAPS   C23 1368   6.672   1.836   6.756  0.3598 -0.4583 -0.8829
   11SAPS   H3R 1369   6.676   1.725   6.751  0.6135 -0.4293 -1.4139
   11SAPS   H3S 1370   6.580   1.859   6.698 -1.5339  0.7243  2.3314
   11SAPS   C24 1371   6.638   1.882   6.905  0.1044 -0.1451  0.3533
   11SAPS   H4R 1372   6.544   1.827   6.928  0.6665 -1.0502  0.5026
   11SAPS   H4S 1373   6.627   1.993   6.908  1.3276  0.1108 -2.1009
   11SAPS   C25 1374   6.746   1.834   7.003  0.1114 -0.7377  0.3237
   11SAPS   H5R 1375   6.847   1.863   6.969 -0.4761  0.6752 -0.2923
   11SAPS   C26 1376   6.739   1.745   7.108  0.8927  0.0530  0.3565
   11SAPS   H6R 1377   6.834   1.704   7.145  0.7662  0.3364  1.0231
   11SAPS   C27 1378   6.615   1.677   7.170 -0.6969 -0.2747  0.4501
   11SAPS   H7R 1379   6.649   1.598   7.240 -0.0928  0.6908  1.2614
   11SAPS   H7S 1380   6.559   1.623   7.091  0.5583 -1.8963  0.6041
   11SAPS   C28 1381   6.509   1.772   7.223 -0.1846  0.9223 -0.2716
   11SAPS   H8R 1382   6.438   1.801   7.144 -1.2856 -0.9324 -0.0046
   11SAPS   C29 1383   6.493   1.810   7.349 -0.2515  0.3234 -0.0313
   11SAPS   H9R 1384   6.419   1.885   7.378  0.0878 -0.0244  1.8250
   11SAPS  C210 1385   6.576   1.776   7.466 -0.7797 -0.2212  0.1031
   11SAPS  H10R 1386   6.661   1.713   7.433 -0.1469  0.7806 -0.2119
   11SAPS  H10S 1387   6.513   1.716   7.535 -2.2559  2.1204  0.8876
   11SAPS  C211 1388   6.639   1.889   7.543  0.1092 -0.1311 -0.4485
   11SAPS  H11R 1389   6.711   1.944   7.481  1.8207 -0.8968  0.7678
   11SAPS  C212 1390   6.647   1.906   7.678  0.4186 -0.5418  0.6502
   11SAPS  H12R 1391   6.710   1.986   7.720 -0.5921  0.1972  0.8022
   11SAPS  C213 1392   6.570   1.827   7.779  0.5830 -0.0527  0.1604
   11SAPS  H13R 1393   6.625   1.731   7.792  0.2836 -0.1194  0.9904
   11SAPS  H13S 1394   6.463   1.811   7.754  0.4929  1.2617 -0.3424
   11SAPS  C214 1395   6.565   1.904   7.911  0.4327 -0.0858 -0.0598
   11SAPS  H14R 1396   6.479   1.970   7.931 -0.0791 -1.6068  3.5963
   11SAPS  C215 1397   6.651   1.889   8.017 -0.9572 -0.1715 -0.8646
   11SAPS  H15R 1398   6.643   1.964   8.098 -2.1269  0.5220 -1.5874
   11SAPS  C216 1399   6.770   1.802   8.032 -0.2400  0.3765 -0.6293
   11SAPS  H16R 1400   6.758   1.729   7.950 -1.5605  0.1947 -0.3121
   11SAPS  H16S 1401   6.766   1.739   8.123  1.5946  2.9886  1.4060
   11SAPS  C217 1402   6.906   1.882   8.048  0.4729  0.2656  0.3326
   11SAPS  H17R 1403   6.904   1.934   8.147  0.8408  0.1583  0.3990
   11SAPS  H17S 1404   6.922   1.966   7.978  4.7628 -1.3351 -0.8782
   11SAPS  C218 1405   7.032   1.795   8.027  0.0892 -0.8372  0.1600
   11SAPS  H18R 1406   7.058   1.754   7.928 -0.8354 -0.2168 -0.3561
   11SAPS  H18S 1407   7.032   1.717   8.106  0.0685 -1.9944 -0.9506
   11SAPS  C219 1408   7.159   1.881   8.059  0.4978  0.1970  0.1687
   11SAPS  H19R 1409   7.167   1.916   8.163 -1.5896  1.7528 -0.1311
   11SAPS  H19S 1410   7.139   1.975   8.003  0.4363 -0.2539 -0.5856
   11SAPS  C220 1411   7.291   1.833   7.993  0.1570 -0.2569  0.3724
   11SAPS  H20R 1412   7.286   1.854   7.884 -1.4136  1.8791  0.7937
   11SAPS  H20S 1413   7.340   1.735   8.013  3.3113  0.8767 -1.1320
   11SAPS  H20T 1414   7.368   1.910   8.015 -1.3946  1.2005  0.9411
   11SAPS   C33 1415   7.405   1.902   6.840 -0.1387 -0.2750 -0.0488
   11SAPS   H3X 1416   7.460   1.818   6.792  1.8299  1.0290 -0.1662
   11SAPS   H3Y 1417   7.362   1.839   6.921  1.9510 -2.6467 -0.6517
   11SAPS   C34 1418   7.505   1.985   6.913 -0.3532  0.0236 -0.1205
   11SAPS   H4X 1419   7.448   2.063   6.968 -0.5416  1.5222 -2.3045
   11SAPS   H4Y 1420   7.575   2.043   6.849 -0.2809  0.1314  0.0565
   11SAPS   C35 1421   7.588   1.899   7.013  0.1605  0.0114 -0.5177
   11SAPS   H5X 1422   7.655   1.970   7.068 -0.8714  0.5107  0.1176
   11SAPS   H5Y 1423   7.649   1.821   6.963 -3.0262 -2.3844 -0.9691
   11SAPS   C36 1424   7.499   1.826   7.121  0.3099 -0.1496  0.4491
   11SAPS   H6X 1425   7.456   1.737   7.070 -1.3757  0.8842 -0.0162
   11SAPS   H6Y 1426   7.425   1.899   7.161  1.1603  1.0825 -0.1588
   11SAPS   C37 1427   7.574   1.775   7.244  0.5410  0.1665  0.2759
   11SAPS   H7X 1428   7.589   1.862   7.311  0.0053 -1.4422  2.6193
   11SAPS   H7Y 1429   7.680   1.751   7.222  1.1939  3.5317 -0.9476
   11SAPS   C38 1430   7.517   1.655   7.326  0.7313 -0.3795 -0.5324
   11SAPS   H8X 1431   7.518   1.560   7.268 -0.0106 -0.5806 -0.2312
   11SAPS   H8Y 1432   7.414   1.686   7.351  0.7084 -0.8145 -0.0726
   11SAPS   C39 1433   7.596   1.627   7.466  0.5203 -1.3144  0.7507
   11SAPS   H9X 1434   7.528   1.555   7.517  0.4814 -2.7080 -1.1449
   11SAPS   H9Y 1435   7.598   1.719   7.527 -0.4455  0.5480 -1.8692
   11SAPS  C310 1436   7.731   1.552   7.438  0.2407 -0.4656 -1.0925
   11SAPS  H10X 1437   7.788   1.611   7.362 -0.7923  0.0783 -1.4644
   11SAPS  H10Y 1438   7.694   1.456   7.395 -1.1147  0.8600 -3.0482
   11SAPS  C311 1439   7.817   1.527   7.568 -0.1042  0.3301  0.7903
   11SAPS  H11X 1440   7.743   1.519   7.651 -0.7446 -1.9373  0.0732
   11SAPS  H11Y 1441   7.880   1.619   7.575 -0.4134  0.7197 -0.9945
   11SAPS  C312 1442   7.895   1.395   7.553 -0.1210  0.2286 -0.1310
   11SAPS  H12X 1443   7.953   1.396   7.458 -2.9400  0.4618 -1.9873
   11SAPS  H12Y 1444   7.821   1.313   7.540  0.0952  0.3759 -2.8956
   11SAPS  C313 1445   7.986   1.349   7.668  0.4822 -0.2404 -0.0325
   11SAPS  H13X 1446   8.071   1.420   7.667  1.1797 -0.9923 -2.6477
   11SAPS  H13Y 1447   8.032   1.250   7.645  2.0581  0.3332  0.5337
   11SAPS  C314 1448   7.915   1.328   7.805 -0.3331  0.1734  0.1716
   11SAPS  H14X 1449   7.816   1.282   7.783  0.1661 -0.6043 -0.4854
   11SAPS  H14Y 1450   7.891   1.426   7.851 -1.1628  0.6811 -1.2789
   11SAPS  C315 1451   8.002   1.239   7.897 -0.7209 -0.5466 -0.2497
   11SAPS  H15X 1452   8.009   1.134   7.860  1.1542 -0.5690  0.0256
   11SAPS  H15Y 1453   7.941   1.224   7.989 -1.1967  1.2214 -0.2500
   11SAPS  C316 1454   8.131   1.313   7.938 -0.4535  0.6996  0.1428
   11SAPS  H16X 1455   8.089   1.411   7.969 -2.3338 -0.4179  1.3124
   11SAPS  H16Y 1456   8.197   1.338   7.852  1.1297 -1.2086  0.7613
   11SAPS  C317 1457   8.206   1.258   8.059  0.0178  0.0885  0.4399
   11SAPS  H17X 1458   8.257   1.161   8.041 -0.8151 -0.6238  1.7713
   11SAPS  H17Y 1459   8.135   1.234   8.141  1.2047  0.0927  1.5051
   11SAPS  C318 1460   8.321   1.344   8.109  0.7056  0.2326  0.0055
   11SAPS  H18X 1461   8.301   1.378   8.213  3.1172  1.8662  0.0213
   11SAPS  H18Y 1462   8.345   1.432   8.045  2.9758 -0.0406  0.4067
   11SAPS  H18Z 1463   8.419   1.293   8.100  1.3738  1.7834 -2.3104
   12SAPS     N 1464   1.432   5.661   6.161  0.4253  0.0568  0.4486
   12SAPS   HN1 1465   1.515   5.600   6.146 -0.3457 -0.5073 -1.8324
   12SAPS   HN2 1466   1.457   5.729   6.236  1.5463 -1.9966  2.0618
   12SAPS   HN3 1467   1.351   5.601   6.187 -1.1169  1.9356  0.2147
   12SAPS   C12 1468   1.405   5.712   6.026  0.3690 -0.3630  0.8924
   12SAPS  H12A 1469   1.478   5.792   6.015 -0.0015  0.0460  1.3561
   12SAPS   C13 1470   1.424   5.612   5.911  0.1342 -0.7792 -0.1940
   12SAPS  O13A 1471   1.428   5.489   5.944 -0.5321 -0.6816 -0.1518
   12SAPS  O13B 1472   1.408   5.655   5.792 -0.2082 -0.0451 -0.0889
   12SAPS   C11 1473   1.265   5.777   6.022  0.1686  0.1608  0.4049
   12SAPS  H11A 1474   1.179   5.707   6.036 -1.4357  1.7441 -1.0853
   12SAPS  H11B 1475   1.255   5.808   5.916 -2.1180 -2.4742 -0.2770
   12SAPS     P 1476   1.167   5.995   6.114 -0.3536  0.0259  0.1690
   12SAPS   O13 1477   1.209   6.084   6.010  0.3193 -0.5415 -0.9423
   12SAPS   O14 1478   1.032   5.932   6.102  0.0305  0.2360  0.0367
   12SAPS   O12 1479   1.268   5.875   6.124  0.3573 -0.3153 -0.5416
   12SAPS   O11 1480   1.181   6.077   6.254  0.3954 -0.1689 -0.1694
   12SAPS    C1 1481   1.236   6.002   6.370 -0.3785 -0.5222  0.6230
   12SAPS    HA 1482   1.303   5.920   6.336 -1.0955 -0.2023 -1.8351
   12SAPS    HB 1483   1.300   6.066   6.434 -1.3338  0.7026  0.3931
   12SAPS    C2 1484   1.121   5.933   6.454 -0.9930 -0.0518  0.1969
   12SAPS    HS 1485   1.071   5.879   6.371  2.6122 -0.3866 -1.9708
   12SAPS   O21 1486   1.036   6.028   6.529 -0.2741  0.4812  0.4024
   12SAPS   C21 1487   0.906   6.000   6.524  0.2122  0.7346 -0.2692
   12SAPS   O22 1488   0.860   5.907   6.455 -0.7517  0.1517  0.0322
   12SAPS   C22 1489   0.827   6.104   6.604 -0.0910 -0.5175  0.1247
   12SAPS   H2R 1490   0.902   6.171   6.651 -0.7068  0.1209  0.2331
   12SAPS   H2S 1491   0.759   6.156   6.532 -0.5408 -1.3213 -0.0419
   12SAPS    C3 1492   1.170   5.823   6.558  0.8675  0.4455 -0.1808
   12SAPS    HX 1493   1.223   5.745   6.499  1.2197  2.0330 -2.0321
   12SAPS    HY 1494   1.072   5.787   6.596  1.1635  0.1195  0.2972
   12SAPS   O31 1495   1.256   5.873   6.663 -0.1642  0.4434  0.1374
   12SAPS   C31 1496   1.245   5.802   6.772 -0.2938 -0.3089  0.0727
   12SAPS   O32 1497   1.172   5.703   6.786  0.1111  0.1860 -0.3299
   12SAPS   C32 1498   1.355   5.823   6.876 -0.1330  0.6892 -0.3817
   12SAPS   H2X 1499   1.397   5.925   6.861  0.1532  0.4190 -1.5148
   12SAPS   H2Y 1500   1.442   5.761   6.847  0.5158  2.7649 -3.3947
   12SAPS   C23 1501   0.741   6.031   6.710  0.3607 -0.0471  0.2348
   12SAPS   H3R 1502   0.671   5.966   6.653  0.0956  0.5162 -0.0844
   12SAPS   H3S 1503   0.695   6.117   6.763 -0.5769 -0.5942  0.3388
   12SAPS   C24 1504   0.813   5.931   6.805 -0.0662  0.3470  0.3945
   12SAPS   H4R 1505   0.839   5.837   6.752 -1.6938  0.7449 -1.2358
   12SAPS   H4S 1506   0.741   5.899   6.883  1.4315 -3.9510  0.2764
   12SAPS   C25 1507   0.932   5.989   6.871 -0.1079 -0.4976 -0.7584
   12SAPS   H5R 1508   1.023   5.985   6.810  0.3049 -0.8791 -0.1329
   12SAPS   C26 1509   0.945   6.028   6.996  0.3533 -0.8444  0.2472
   12SAPS   H6R 1510   1.051   6.049   7.021 -0.3253  0.0028  2.6893
   12SAPS   C27 1511   0.847   6.039   7.104  0.3989  0.3249 -0.0484
   12SAPS   H7R 1512   0.740   6.022   7.080 -0.6171 -0.5879  4.2130
   12SAPS   H7S 1513   0.848   6.146   7.134 -1.9441  0.4076 -0.0254
   12SAPS   C28 1514   0.887   5.955   7.222  0.3623 -0.4084  0.2197
   12SAPS   H8R 1515   0.884   5.846   7.205 -0.5079 -0.1672 -1.3655
   12SAPS   C29 1516   0.899   5.986   7.353  0.0830 -0.4503 -0.4433
   12SAPS   H9R 1517   0.928   5.910   7.427  0.7659  0.0316 -0.2121
   12SAPS  C210 1518   0.894   6.131   7.407 -0.3467 -0.1031 -0.0945
   12SAPS  H10R 1519   0.870   6.130   7.515 -2.1203 -1.0325 -0.4609
   12SAPS  H10S 1520   0.798   6.180   7.378 -1.7286 -1.8244  1.3681
   12SAPS  C211 1521   1.005   6.227   7.360  0.3407 -0.2922 -0.6244
   12SAPS  H11R 1522   1.023   6.245   7.253  1.4503 -0.3266 -0.4588
   12SAPS  C212 1523   1.087   6.298   7.440  0.2582  0.4317  0.6938
   12SAPS  H12R 1524   1.170   6.333   7.376 -1.1298  0.1775 -1.3419
   12SAPS  C213 1525   1.103   6.298   7.589 -0.3894 -0.1003  0.1584
   12SAPS  H13R 1526   1.017   6.354   7.632 -1.3445 -2.5852  1.6977
   12SAPS  H13S 1527   1.191   6.359   7.619 -0.2682  1.3658 -2.7542
   12SAPS  C214 1528   1.124   6.171   7.663  0.1199 -0.6189  0.7220
   12SAPS  H14R 1529   1.175   6.091   7.608 -0.4077 -0.1626 -0.4950
   12SAPS  C215 1530   1.105   6.150   7.793  0.1809 -0.3222  0.1015
   12SAPS  H15R 1531   1.109   6.050   7.837  0.5768 -0.2736  0.1822
   12SAPS  C216 1532   1.059   6.265   7.885 -0.3414 -0.2061  0.5374
   12SAPS  H16R 1533   0.954   6.251   7.920 -0.1243  1.2241  1.8600
   12SAPS  H16S 1534   1.047   6.364   7.837  1.4534 -0.7730 -1.1924
   12SAPS  C217 1535   1.159   6.289   7.998  0.3137 -0.5639 -0.6884
   12SAPS  H17R 1536   1.263   6.308   7.966  0.7012 -1.5111 -0.0465
   12SAPS  H17S 1537   1.160   6.201   8.066 -1.7692  0.5795  0.9375
   12SAPS  C218 1538   1.094   6.400   8.085  0.1587 -0.0545 -0.4587
   12SAPS  H18R 1539   1.015   6.348   8.143 -0.5631  0.8833 -0.5718
   12SAPS  H18S 1540   1.039   6.482   8.035  1.2179  0.2511 -1.1648
   12SAPS  C219 1541   1.197   6.464   8.178 -0.3615  0.6060  0.6177
   12SAPS  H19R 1542   1.175   6.565   8.219 -0.1705  1.3467 -1.0351
   12SAPS  H19S 1543   1.287   6.482   8.114 -1.5450 -0.0833 -1.3325
   12SAPS  C220 1544   1.248   6.385   8.300  0.2374 -0.1026  0.4441
   12SAPS  H20R 1545   1.279   6.284   8.265  1.6547  0.7455 -0.8902
   12SAPS  H20S 1546   1.154   6.371   8.357 -0.8657  0.1748 -1.2248
   12SAPS  H20T 1547   1.322   6.440   8.361  0.8742 -0.2405 -0.1846
   12SAPS   C33 1548   1.306   5.820   7.021  0.7034 -0.3649  0.2771
   12SAPS   H3X 1549   1.273   5.715   7.038  0.5544 -0.3561  0.0396
   12SAPS   H3Y 1550   1.218   5.888   7.024  1.7830  1.0691  1.0704
   12SAPS   C34 1551   1.407   5.871   7.119 -0.1864 -0.1306 -0.3045
   12SAPS   H4X 1552   1.444   5.973   7.095  1.7860 -0.5374  0.7853
   12SAPS   H4Y 1553   1.500   5.810   7.117 -1.4895 -2.2487  0.5465
   12SAPS   C35 1554   1.345   5.858   7.265  0.0585 -0.2656  0.4611
   12SAPS   H5X 1555   1.326   5.750   7.282 -0.7757 -0.1938  0.0415
   12SAPS   H5Y 1556   1.247   5.909   7.277  0.5576  0.3582  2.1506
   12SAPS   C36 1557   1.439   5.902   7.378 -0.0083  0.0196 -0.7105
   12SAPS   H6X 1558   1.456   6.012   7.378  1.0611 -0.1294  0.2538
   12SAPS   H6Y 1559   1.531   5.843   7.362 -0.5665 -1.0700 -0.0287
   12SAPS   C37 1560   1.366   5.879   7.516 -0.4727 -0.6825  0.6510
   12SAPS   H7X 1561   1.258   5.898   7.496  0.0639  0.8722 -1.0233
   12SAPS   H7Y 1562   1.397   5.955   7.591  1.3405 -0.2155 -0.5181
   12SAPS   C38 1563   1.394   5.734   7.581  0.2951 -0.3530  0.0802
   12SAPS   H8X 1564   1.497   5.719   7.618  0.9965 -1.0760 -2.0803
   12SAPS   H8Y 1565   1.380   5.663   7.497 -1.0644  0.8200 -0.7262
   12SAPS   C39 1566   1.289   5.710   7.700  0.0918  0.7109  0.3832
   12SAPS   H9X 1567   1.260   5.604   7.710 -1.8631  1.1791  0.0738
   12SAPS   H9Y 1568   1.192   5.759   7.676 -1.3948 -1.9581  0.6318
   12SAPS  C310 1569   1.319   5.781   7.834  0.0350  0.2862  0.6257
   12SAPS  H10X 1570   1.333   5.891   7.823  2.0085  0.1027  0.9544
   12SAPS  H10Y 1571   1.420   5.742   7.860  2.0312  1.7545 -3.8026
   12SAPS  C311 1572   1.219   5.741   7.942  1.0565 -0.2133  0.4388
   12SAPS  H11X 1573   1.222   5.630   7.928  0.8927 -0.0590 -0.9843
   12SAPS  H11Y 1574   1.116   5.768   7.911  0.7822 -0.3086  1.2458
   12SAPS  C312 1575   1.257   5.786   8.084  0.2774 -0.3057  0.4123
   12SAPS  H12X 1576   1.169   5.781   8.151 -1.2156 -2.0766 -1.5565
   12SAPS  H12Y 1577   1.276   5.895   8.086 -1.1207 -0.0537  0.6743
   12SAPS  C313 1578   1.383   5.715   8.133 -0.9357  0.1639  0.2945
   12SAPS  H13X 1579   1.462   5.720   8.056 -0.9222 -1.4037  0.1699
   12SAPS  H13Y 1580   1.353   5.613   8.167 -0.4935  0.1126  0.5418
   12SAPS  C314 1581   1.441   5.774   8.260  0.0685 -0.2735  0.5221
   12SAPS  H14X 1582   1.364   5.781   8.339  2.2372 -1.8213  2.9667
   12SAPS  H14Y 1583   1.465   5.880   8.235  0.1242 -0.7895 -1.8877
   12SAPS  C315 1584   1.577   5.710   8.297 -0.1269 -0.2018 -0.1924
   12SAPS  H15X 1585   1.637   5.708   8.204 -1.2475 -0.5574 -0.9202
   12SAPS  H15Y 1586   1.576   5.604   8.330  3.2014 -0.2557  0.1614
   12SAPS  C316 1587   1.646   5.804   8.403 -0.6479  0.0433 -0.1278
   12SAPS  H16X 1588   1.573   5.827   8.484 -1.4580 -1.7957 -0.2838
   12SAPS  H16Y 1589   1.672   5.898   8.351 -0.6425  0.4007  0.5151
   12SAPS  C317 1590   1.772   5.754   8.472  0.4218  0.1734  0.3244
   12SAPS  H17X 1591   1.769   5.657   8.526  1.8226 -0.3876 -0.5313
   12SAPS  H17Y 1592   1.807   5.824   8.550  1.2528 -0.1292  0.2363
   12SAPS  C318 1593   1.885   5.726   8.370  0.1120  0.3100 -0.4279
   12SAPS  H18X 1594   1.896   5.808   8.296 -0.4674  1.0262  0.2512
   12SAPS  H18Y 1595   1.857   5.632   8.317 -0.6309  0.5096 -0.4014
   12SAPS  H18Z 1596   1.983   5.713   8.420  0.0806  0.2242 -0.3889
   13SAPS     N 1597   0.768   1.105   5.995  0.4108  0.2191  0.2083
   13SAPS   HN1 1598   0.866   1.130   6.022  1.2009 -0.2564 -1.9874
   13SAPS   HN2 1599   0.728   1.190   5.950 -0.6878 -0.8689 -0.9258
   13SAPS   HN3 1600   0.711   1.082   6.079 -1.8774  2.1582 -0.7211
   13SAPS   C12 1601   0.794   1.001   5.891  0.2832 -0.0116 -0.6519
   13SAPS  H12A 1602   0.702   0.946   5.884 -0.6493  1.5909 -1.5109
   13SAPS   C13 1603   0.812   1.060   5.750  0.1021  1.1432  0.1119
   13SAPS  O13A 1604   0.804   1.187   5.729 -0.0374 -0.1514 -0.0034
   13SAPS  O13B 1605   0.834   0.975   5.655 -0.0902  0.7713  0.1297
   13SAPS   C11 1606   0.902   0.903   5.938 -0.6279 -0.3942 -0.0619
   13SAPS  H11A 1607   0.922   0.829   5.857  0.6532 -0.9715  0.7479
   13SAPS  H11B 1608   0.854   0.841   6.017 -0.3424  1.0149  1.2650
   13SAPS     P 1609   1.140   0.886   6.053  0.1169  0.0858 -0.2109
   13SAPS   O13 1610   1.158   0.751   5.994  0.3678 -0.6504  0.2757
   13SAPS   O14 1611   1.262   0.964   6.069  0.7357 -0.8228 -0.9496
   13SAPS   O12 1612   1.027   0.970   5.979 -0.3591 -0.6185 -0.1028
   13SAPS   O11 1613   1.069   0.864   6.192 -0.1474 -0.4540 -0.2979
   13SAPS    C1 1614   1.067   0.967   6.290  0.5720 -0.3335  0.5358
   13SAPS    HA 1615   1.081   1.065   6.238  0.1086 -0.6016 -0.1116
   13SAPS    HB 1616   0.972   0.970   6.347  1.4506  0.2457  2.0241
   13SAPS    C2 1617   1.180   0.955   6.395  0.4781  0.2518  0.1168
   13SAPS    HS 1618   1.277   0.975   6.346 -0.5135  3.4892 -0.8327
   13SAPS   O21 1619   1.174   0.821   6.451  0.2700 -0.1061  0.1553
   13SAPS   C21 1620   1.275   0.737   6.414 -0.3057  0.6723  0.3889
   13SAPS   O22 1621   1.354   0.761   6.328  0.2247 -0.2388  0.8312
   13SAPS   C22 1622   1.284   0.615   6.509  0.8340 -0.1270  0.2165
   13SAPS   H2R 1623   1.296   0.645   6.615 -1.7910  0.4849  0.4075
   13SAPS   H2S 1624   1.190   0.556   6.503  0.9873 -0.2810 -0.9972
   13SAPS    C3 1625   1.160   1.054   6.519  0.4185  0.0953  0.0210
   13SAPS    HX 1626   1.236   1.043   6.599  0.2340  0.6215  0.2698
   13SAPS    HY 1627   1.060   1.020   6.554 -0.0760  0.7272 -0.7453
   13SAPS   O31 1628   1.176   1.194   6.476  0.3611  1.4326  0.4000
   13SAPS   C31 1629   1.085   1.283   6.518  0.4940  0.3524 -0.1138
   13SAPS   O32 1630   0.981   1.255   6.576 -0.3839 -0.2317 -0.6327
   13SAPS   C32 1631   1.128   1.426   6.463  0.5455  0.6531 -1.1744
   13SAPS   H2X 1632   1.132   1.406   6.354 -0.9395 -0.6065 -1.0414
   13SAPS   H2Y 1633   1.230   1.435   6.504  0.6878 -1.2550 -1.0279
   13SAPS   C23 1634   1.400   0.509   6.485 -0.4531  0.1303 -0.3068
   13SAPS   H3R 1635   1.485   0.568   6.446 -1.6468  1.5923 -0.8060
   13SAPS   H3S 1636   1.378   0.444   6.398  2.6506  0.1572 -1.2178
   13SAPS   C24 1637   1.433   0.439   6.616  0.0867 -0.8411  0.0274
   13SAPS   H4R 1638   1.338   0.436   6.674  0.5660 -1.3643  0.8025
   13SAPS   H4S 1639   1.512   0.504   6.658 -0.7922  1.6753 -1.9419
   13SAPS   C25 1640   1.488   0.298   6.589 -0.2572  0.3015 -0.0575
   13SAPS   H5R 1641   1.487   0.278   6.481  0.8747  3.1202 -0.6861
   13SAPS   C26 1642   1.549   0.212   6.676 -0.0017 -0.4157 -0.8324
   13SAPS   H6R 1643   1.590   0.113   6.652  2.6382  0.5148 -0.4886
   13SAPS   C27 1644   1.574   0.260   6.819 -0.3072  0.2482 -0.2691
   13SAPS   H7R 1645   1.494   0.215   6.882  1.0231 -0.6409  0.8493
   13SAPS   H7S 1646   1.562   0.368   6.839  0.1994  0.7711 -2.4860
   13SAPS   C28 1647   1.708   0.231   6.889 -0.1059 -0.4730  0.3610
   13SAPS   H8R 1648   1.766   0.164   6.824 -1.5582  0.2389 -1.7882
   13SAPS   C29 1649   1.753   0.296   7.000  0.5470 -0.0283 -0.6075
   13SAPS   H9R 1650   1.838   0.254   7.056 -1.0222  0.9432  2.7384
   13SAPS  C210 1651   1.668   0.392   7.086  0.3942  0.3539  0.3379
   13SAPS  H10R 1652   1.647   0.337   7.181  0.7989  0.3352  0.4156
   13SAPS  H10S 1653   1.569   0.410   7.039  0.8536 -0.2138 -0.8796
   13SAPS  C211 1654   1.725   0.521   7.117 -0.1528 -0.5974 -0.5429
   13SAPS  H11R 1655   1.769   0.569   7.029 -1.0384  1.4322  0.0672
   13SAPS  C212 1656   1.713   0.594   7.234  0.8002  0.5171  0.5164
   13SAPS  H12R 1657   1.775   0.685   7.241  1.3430  0.1680  0.3727
   13SAPS  C213 1658   1.640   0.555   7.352 -0.6352  0.8033 -0.9011
   13SAPS  H13R 1659   1.562   0.477   7.338 -1.0805  0.0656  3.7820
   13SAPS  H13S 1660   1.577   0.641   7.384  1.2018  1.4369  1.3159
   13SAPS  C214 1661   1.727   0.508   7.467 -0.0948  0.9193 -0.2488
   13SAPS  H14R 1662   1.757   0.402   7.464  0.9112  1.1823  0.2164
   13SAPS  C215 1663   1.781   0.583   7.565 -0.2255  0.7675 -0.4856
   13SAPS  H15R 1664   1.847   0.534   7.637 -2.6641 -2.1141 -0.0183
   13SAPS  C216 1665   1.769   0.732   7.580  0.7276 -0.8192 -1.2181
   13SAPS  H16R 1666   1.700   0.764   7.499  1.7353 -2.1721 -2.6685
   13SAPS  H16S 1667   1.873   0.769   7.576  1.2137 -1.2446  3.0056
   13SAPS  C217 1668   1.702   0.778   7.710 -0.5821 -0.2269  0.1363
   13SAPS  H17R 1669   1.626   0.703   7.740 -0.4143 -1.1240 -1.5666
   13SAPS  H17S 1670   1.657   0.878   7.691  0.0079 -0.0280 -0.2317
   13SAPS  C218 1671   1.804   0.802   7.831  0.4874  0.2225  0.3847
   13SAPS  H18R 1672   1.886   0.865   7.791 -0.0370  0.9014  0.3600
   13SAPS  H18S 1673   1.846   0.702   7.854  1.8383  0.9515  1.2077
   13SAPS  C219 1674   1.739   0.860   7.955 -0.3799 -0.6022 -0.2705
   13SAPS  H19R 1675   1.747   0.970   7.951  2.1540 -0.5430  2.5745
   13SAPS  H19S 1676   1.796   0.818   8.042 -1.7794 -1.6301  0.1985
   13SAPS  C220 1677   1.595   0.813   7.975  0.2402 -0.3127 -0.1395
   13SAPS  H20R 1678   1.545   0.851   8.066 -1.7331  1.3280 -1.7898
   13SAPS  H20S 1679   1.579   0.703   7.981 -0.2947 -0.2049  0.5528
   13SAPS  H20T 1680   1.532   0.862   7.897  0.5452  0.7514  0.2707
   13SAPS   C33 1681   1.031   1.551   6.496  0.2409  0.2695 -0.0889
   13SAPS   H3X 1682   0.927   1.533   6.461 -0.5667  0.0332  2.2449
   13SAPS   H3Y 1683   1.061   1.641   6.439  0.0205  1.1422  1.1255
   13SAPS   C34 1684   1.039   1.593   6.648 -0.2545 -0.1593  0.1431
   13SAPS   H4X 1685   1.013   1.500   6.702  1.9900 -0.8288  0.1877
   13SAPS   H4Y 1686   0.956   1.667   6.651 -2.3600 -2.3507 -0.6378
   13SAPS   C35 1687   1.172   1.643   6.681 -0.1077 -0.7961 -0.3930
   13SAPS   H5X 1688   1.217   1.697   6.594 -0.8243  1.0233  0.3073
   13SAPS   H5Y 1689   1.246   1.568   6.717  2.4746  2.4937  1.7555
   13SAPS   C36 1690   1.152   1.754   6.787 -0.0893  0.1905 -0.5189
   13SAPS   H6X 1691   1.127   1.707   6.884  2.5263 -0.1503  0.0629
   13SAPS   H6Y 1692   1.074   1.830   6.764  1.4647  2.0393 -0.0117
   13SAPS   C37 1693   1.283   1.822   6.823  0.7344  0.4710 -0.1909
   13SAPS   H7X 1694   1.294   1.907   6.752  0.1111  0.5916 -0.1473
   13SAPS   H7Y 1695   1.372   1.755   6.827  0.3114 -0.0455  1.4993
   13SAPS   C38 1696   1.292   1.873   6.972  0.0724 -0.0226  0.1679
   13SAPS   H8X 1697   1.248   1.793   7.036  1.2027 -0.4788  0.4003
   13SAPS   H8Y 1698   1.226   1.961   6.986  0.6442  0.1762  1.7340
   13SAPS   C39 1699   1.435   1.914   7.009 -0.7744  0.0892 -0.2346
   13SAPS   H9X 1700   1.491   1.968   6.929  1.5030  0.0249  1.2108
   13SAPS   H9Y 1701   1.493   1.822   7.031  0.3182  0.8387  0.1330
   13SAPS  C310 1702   1.428   1.993   7.139  0.1678 -0.2932 -0.3833
   13SAPS  H10X 1703   1.360   1.932   7.202  0.0575  0.0599 -0.1538
   13SAPS  H10Y 1704   1.378   2.091   7.121 -2.5218 -1.9573 -2.6873
   13SAPS  C311 1705   1.565   2.017   7.199 -1.1753  0.9483  0.6627
   13SAPS  H11X 1706   1.598   2.116   7.161  0.3315  0.1521 -0.2254
   13SAPS  H11Y 1707   1.633   1.940   7.157  0.3881  2.7193 -0.2323
   13SAPS  C312 1708   1.575   2.030   7.350 -0.1376  0.4385  0.0866
   13SAPS  H12X 1709   1.676   2.063   7.383 -0.2962  0.1419  0.8912
   13SAPS  H12Y 1710   1.578   1.925   7.386 -0.0897  0.4974  0.2558
   13SAPS  C313 1711   1.461   2.101   7.427 -0.0396 -0.8661  0.0669
   13SAPS  H13X 1712   1.375   2.031   7.439  0.8736 -2.5308 -2.3231
   13SAPS  H13Y 1713   1.405   2.191   7.390 -0.4051  0.4145  3.3831
   13SAPS  C314 1714   1.503   2.145   7.559  0.0769 -0.7303 -0.0777
   13SAPS  H14X 1715   1.577   2.228   7.558  0.7671 -1.3034  1.1358
   13SAPS  H14Y 1716   1.549   2.063   7.617 -1.4736 -1.4335  0.2076
   13SAPS  C315 1717   1.381   2.176   7.647  0.2137 -0.4140  0.4616
   13SAPS  H15X 1718   1.315   2.087   7.648  1.2138 -1.1659  0.2484
   13SAPS  H15Y 1719   1.318   2.244   7.585  0.3207 -0.6708  0.0667
   13SAPS  C316 1720   1.398   2.228   7.785 -0.1328  0.2653  0.9668
   13SAPS  H16X 1721   1.451   2.148   7.841  0.8644  0.1108 -0.1367
   13SAPS  H16Y 1722   1.300   2.249   7.832  0.1943  1.6401  1.1007
   13SAPS  C317 1723   1.475   2.359   7.801  0.5134 -0.2132 -0.0444
   13SAPS  H17X 1724   1.408   2.432   7.750  0.4107 -0.6100 -0.4871
   13SAPS  H17Y 1725   1.571   2.363   7.746 -0.6983  1.6960 -2.2030
   13SAPS  C318 1726   1.485   2.387   7.949 -0.1447 -0.3625 -0.2316
   13SAPS  H18X 1727   1.512   2.295   8.005  0.5899 -0.9848 -1.5835
   13SAPS  H18Y 1728   1.384   2.423   7.977 -0.5123  0.9970 -3.0305
   13SAPS  H18Z 1729   1.554   2.469   7.980 -2.0872  1.1519  0.3398
   14SAPS     N 1730   6.521   3.488   5.921  0.2037  0.1901  0.3139
   14SAPS   HN1 1731   6.615   3.458   5.889 -0.7672 -0.8346 -1.7723
   14SAPS   HN2 1732   6.518   3.564   5.992  0.3837  0.6140 -0.1283
   14SAPS   HN3 1733   6.462   3.410   5.956 -2.4088  1.6266 -0.6001
   14SAPS   C12 1734   6.455   3.537   5.794  0.2516 -0.4679  0.1475
   14SAPS  H12A 1735   6.515   3.614   5.746  1.1396 -1.2428 -0.0105
   14SAPS   C13 1736   6.455   3.428   5.683 -0.7771 -0.2295  0.3075
   14SAPS  O13A 1737   6.531   3.329   5.712  0.0327  0.5486 -0.3235
   14SAPS  O13B 1738   6.427   3.457   5.563 -0.2876 -0.2711 -0.2681
   14SAPS   C11 1739   6.314   3.589   5.819  0.6157 -0.0097  0.0904
   14SAPS  H11A 1740   6.249   3.515   5.872 -3.2036  2.9754  0.0417
   14SAPS  H11B 1741   6.264   3.616   5.724 -0.1402  1.8634  0.9607
   14SAPS     P 1742   6.231   3.830   5.901  0.3651 -0.2241  0.0100
   14SAPS   O13 1743   6.311   3.951   5.925  0.7522 -0.2363  0.3581
   14SAPS   O14 1744   6.158   3.830   5.770 -0.3876 -0.1558 -0.0348
   14SAPS   O12 1745   6.319   3.699   5.910 -0.0059  0.1380  0.8558
   14SAPS   O11 1746   6.146   3.811   6.026 -0.2854 -0.2706 -0.7702
   14SAPS    C1 1747   6.041   3.711   6.042  0.5015  0.4950  0.0847
   14SAPS    HA 1748   5.942   3.758   6.023  1.9519  2.8392 -2.4724
   14SAPS    HB 1749   6.057   3.629   5.969  3.1172 -0.0832  1.2126
   14SAPS    C2 1750   6.056   3.640   6.182 -0.5130  1.1913 -0.3379
   14SAPS    HS 1751   5.967   3.574   6.195 -0.2239  0.7790 -0.4551
   14SAPS   O21 1752   6.072   3.736   6.291  0.0998 -0.4106  0.0268
   14SAPS   C21 1753   5.960   3.807   6.316  0.1934 -0.0210 -0.8310
   14SAPS   O22 1754   5.856   3.806   6.250 -0.0121 -0.2355 -0.2870
   14SAPS   C22 1755   5.989   3.907   6.433 -0.0006 -0.6405  0.0116
   14SAPS   H2R 1756   6.035   3.844   6.512 -0.2643 -1.7886 -0.7352
   14SAPS   H2S 1757   6.061   3.986   6.400  0.0231 -0.3527  0.7489
   14SAPS    C3 1758   6.181   3.553   6.180  0.2577 -0.2499  0.1574
   14SAPS    HX 1759   6.264   3.621   6.150 -0.7305  1.2721  0.7635
   14SAPS    HY 1760   6.171   3.476   6.100 -0.9119 -0.0881  0.1247
   14SAPS   O31 1761   6.203   3.496   6.304  0.3926 -0.6764 -0.3413
   14SAPS   C31 1762   6.294   3.548   6.375  0.2541 -0.2430  0.0662
   14SAPS   O32 1763   6.390   3.617   6.343  0.2566 -0.3581 -0.0016
   14SAPS   C32 1764   6.252   3.523   6.515  0.3324 -0.0247  1.1271
   14SAPS   H2X 1765   6.329   3.450   6.547  1.9319  1.3088  0.4723
   14SAPS   H2Y 1766   6.150   3.480   6.520 -0.4896  1.7291  0.3741
   14SAPS   C23 1767   5.861   3.974   6.486  0.1818  0.3362 -0.2135
   14SAPS   H3R 1768   5.781   3.902   6.517  0.7911 -0.1850  0.1654
   14SAPS   H3S 1769   5.810   4.029   6.405 -0.6720 -0.3413 -0.1564
   14SAPS   C24 1770   5.878   4.081   6.593 -0.6125 -0.0094 -0.2994
   14SAPS   H4R 1771   5.787   4.141   6.615  1.3195  2.4161  1.7133
   14SAPS   H4S 1772   5.957   4.145   6.549  0.3999 -0.5010  0.7416
   14SAPS   C25 1773   5.944   4.014   6.719 -0.4729 -0.9138 -0.4557
   14SAPS   H5R 1774   5.874   3.943   6.764 -2.7622  0.3702 -1.7852
   14SAPS   C26 1775   6.068   4.042   6.775  0.7934 -0.1199  0.0186
   14SAPS   H6R 1776   6.083   3.975   6.861 -1.9814 -1.8555 -0.7101
   14SAPS   C27 1777   6.163   4.132   6.712 -0.7013  0.1590  0.0917
   14SAPS   H7R 1778   6.147   4.235   6.752 -2.4946 -0.0207 -0.0983
   14SAPS   H7S 1779   6.170   4.140   6.601  4.1139  0.1221  0.1642
   14SAPS   C28 1780   6.307   4.097   6.734  0.3902 -0.6214 -0.0270
   14SAPS   H8R 1781   6.339   4.011   6.673 -1.5424 -1.6227  0.2602
   14SAPS   C29 1782   6.405   4.152   6.806 -0.4536  0.2859  0.0360
   14SAPS   H9R 1783   6.498   4.093   6.810 -1.0141 -0.5509  1.5695
   14SAPS  C210 1784   6.404   4.275   6.892  0.0792 -0.0521  0.3405
   14SAPS  H10R 1785   6.389   4.248   6.999  1.5346  1.7649  1.0533
   14SAPS  H10S 1786   6.320   4.342   6.863 -1.5477 -1.8389  0.7332
   14SAPS  C211 1787   6.521   4.373   6.876 -0.0481  0.0203 -0.1931
   14SAPS  H11R 1788   6.549   4.384   6.770  1.1650 -0.0155  0.1099
   14SAPS  C212 1789   6.592   4.445   6.964 -0.1207 -0.1095  0.2061
   14SAPS  H12R 1790   6.670   4.511   6.922 -0.8435  1.2474  0.9091
   14SAPS  C213 1791   6.580   4.450   7.113 -0.1605  0.1708 -0.0058
   14SAPS  H13R 1792   6.666   4.499   7.162 -0.4373 -1.6923  2.5496
   14SAPS  H13S 1793   6.586   4.343   7.144 -0.8705 -0.5022 -2.0224
   14SAPS  C214 1794   6.440   4.495   7.162 -0.4894  0.2831  0.0488
   14SAPS  H14R 1795   6.365   4.481   7.083  1.0062 -0.7131 -1.2762
   14SAPS  C215 1796   6.419   4.532   7.290 -0.6460 -0.0172  0.0843
   14SAPS  H15R 1797   6.316   4.558   7.319 -0.4363 -0.2903  1.1233
   14SAPS  C216 1798   6.528   4.533   7.393  0.3436  0.3445  0.2009
   14SAPS  H16R 1799   6.552   4.638   7.420  1.0244  0.4368 -0.6955
   14SAPS  H16S 1800   6.624   4.489   7.357  0.5397 -0.7544  1.9040
   14SAPS  C217 1801   6.500   4.451   7.521  0.3229 -0.4482 -0.0572
   14SAPS  H17R 1802   6.499   4.350   7.475  0.5187 -0.5185  0.0912
   14SAPS  H17S 1803   6.401   4.469   7.569  0.6256  0.8059  0.1315
   14SAPS  C218 1804   6.606   4.466   7.635 -0.1268 -0.8726  0.4388
   14SAPS  H18R 1805   6.712   4.463   7.602 -0.7725  0.7346 -2.1068
   14SAPS  H18S 1806   6.605   4.369   7.689  1.6420 -1.1197  0.1107
   14SAPS  C219 1807   6.576   4.591   7.718 -0.0516 -0.0993  0.1506
   14SAPS  H19R 1808   6.470   4.589   7.752  0.2713 -0.3711  1.1794
   14SAPS  H19S 1809   6.583   4.683   7.656  0.6636  0.7007  1.3634
   14SAPS  C220 1810   6.656   4.598   7.849 -0.0677  0.8424 -0.1423
   14SAPS  H20R 1811   6.763   4.622   7.830  0.1912 -1.8513 -2.8739
   14SAPS  H20S 1812   6.649   4.497   7.895 -2.6349  0.5200 -1.0659
   14SAPS  H20T 1813   6.614   4.666   7.926 -1.7388 -0.0553 -0.2331
   14SAPS   C33 1814   6.274   3.642   6.609 -0.1515  0.2874 -0.2249
   14SAPS   H3X 1815   6.216   3.730   6.572  2.2617  1.8146 -0.5796
   14SAPS   H3Y 1816   6.383   3.665   6.609  0.1670 -1.1017 -1.1839
   14SAPS   C34 1817   6.237   3.621   6.759 -0.4060 -0.3329 -0.2335
   14SAPS   H4X 1818   6.258   3.519   6.797 -0.1214  0.4528  1.8811
   14SAPS   H4Y 1819   6.127   3.636   6.762 -0.6035 -1.6275 -0.3928
   14SAPS   C35 1820   6.319   3.724   6.842  0.4065 -0.7867 -0.7066
   14SAPS   H5X 1821   6.302   3.827   6.804 -0.5440 -0.1900  1.1825
   14SAPS   H5Y 1822   6.424   3.707   6.810  0.5911 -0.0466 -0.5268
   14SAPS   C36 1823   6.285   3.708   6.989  0.0554 -0.1412  0.0040
   14SAPS   H6X 1824   6.307   3.604   7.021 -1.0638 -0.8769 -1.4663
   14SAPS   H6Y 1825   6.175   3.723   7.000 -0.0743 -1.1570  0.1999
   14SAPS   C37 1826   6.352   3.824   7.071  0.1573  0.0876 -0.0862
   14SAPS   H7X 1827   6.328   3.919   7.019 -0.1753 -0.3424 -0.7252
   14SAPS   H7Y 1828   6.461   3.806   7.065 -0.0934 -1.6123 -0.2594
   14SAPS   C38 1829   6.317   3.818   7.222  0.5528  0.4805 -0.2124
   14SAPS   H8X 1830   6.310   3.713   7.256 -0.5385  0.6678  0.1690
   14SAPS   H8Y 1831   6.214   3.859   7.223 -0.0337 -0.9681  0.1861
   14SAPS   C39 1832   6.413   3.897   7.302  0.7252  0.1905 -0.3823
   14SAPS   H9X 1833   6.392   4.004   7.285  2.1464  1.8839  6.0236
   14SAPS   H9Y 1834   6.516   3.876   7.267  1.7227  2.5635  0.9314
   14SAPS  C310 1835   6.396   3.857   7.454  0.0154 -0.2519  0.6293
   14SAPS  H10X 1836   6.411   3.748   7.469 -1.0412 -0.5343 -0.3357
   14SAPS  H10Y 1837   6.290   3.859   7.487 -0.1022  3.0251  0.3847
   14SAPS  C311 1838   6.491   3.938   7.552 -0.6157 -0.0903 -0.4084
   14SAPS  H11X 1839   6.486   4.043   7.517  0.6651 -0.5301 -2.0568
   14SAPS  H11Y 1840   6.594   3.898   7.549 -0.4352 -0.0963  2.6876
   14SAPS  C312 1841   6.433   3.915   7.699  0.3966  0.0029  0.1635
   14SAPS  H12X 1842   6.509   3.941   7.775  2.0236  0.0299 -1.4152
   14SAPS  H12Y 1843   6.417   3.805   7.707  2.4658 -0.3166  0.4776
   14SAPS  C313 1844   6.306   3.993   7.742  0.0417  0.5632 -0.2995
   14SAPS  H13X 1845   6.229   3.944   7.678  0.4152 -1.0396  0.4201
   14SAPS  H13Y 1846   6.321   4.099   7.711  1.5597  1.3641  2.7800
   14SAPS  C314 1847   6.266   3.967   7.889 -0.0865  0.0477  0.3924
   14SAPS  H14X 1848   6.341   3.991   7.967 -0.6199  1.2909  0.5409
   14SAPS  H14Y 1849   6.251   3.857   7.896 -0.2186  0.0238 -0.2145
   14SAPS  C315 1850   6.137   4.029   7.924 -0.3982 -0.3761  0.7753
   14SAPS  H15X 1851   6.052   3.999   7.858  0.4639 -0.0043 -0.5300
   14SAPS  H15Y 1852   6.147   4.139   7.919  1.2808 -0.5667 -2.1780
   14SAPS  C316 1853   6.115   4.014   8.073  0.2496 -0.1837  0.0352
   14SAPS  H16X 1854   6.198   4.060   8.130 -0.8263  0.6540  0.9710
   14SAPS  H16Y 1855   6.118   3.907   8.102 -0.5503 -0.1867  0.1485
   14SAPS  C317 1856   5.988   4.087   8.112  0.0161  0.3737 -0.1065
   14SAPS  H17X 1857   5.905   4.048   8.049  1.6686  0.5756 -2.5442
   14SAPS  H17Y 1858   5.991   4.195   8.084 -0.7943  0.3644 -0.2711
   14SAPS  C318 1859   5.948   4.069   8.254 -0.0722 -0.0072  0.4333
   14SAPS  H18X 1860   6.026   4.124   8.311 -0.1860  2.0722 -1.2637
   14SAPS  H18Y 1861   5.948   3.961   8.280 -0.5957 -0.3707 -0.9632
   14SAPS  H18Z 1862   5.856   4.125   8.282  0.2540  1.1970 -0.7734
   15SAPS     N 1863   6.334   1.706   5.752 -0.0560  0.0235  0.2786
   15SAPS   HN1 1864   6.417   1.656   5.790 -0.1986 -0.0196  0.5345
   15SAPS   HN2 1865   6.260   1.645   5.712 -2.3060  2.7500 -0.0236
   15SAPS   HN3 1866   6.379   1.781   5.695  1.2480 -0.3211  0.8044
   15SAPS   C12 1867   6.246   1.782   5.852  0.0609 -0.2738  0.2074
   15SAPS  H12A 1868   6.305   1.865   5.887 -1.0289 -0.6341  3.1134
   15SAPS   C13 1869   6.112   1.845   5.797  0.3493 -0.8171  0.0944
   15SAPS  O13A 1870   6.080   1.824   5.677 -0.1230 -0.0862 -0.0425
   15SAPS  O13B 1871   6.049   1.925   5.869  0.0315 -0.2675  0.3123
   15SAPS   C11 1872   6.219   1.689   5.975 -0.5351 -0.6024 -0.3112
   15SAPS  H11A 1873   6.152   1.617   5.923 -2.1736  0.0551  0.8048
   15SAPS  H11B 1874   6.163   1.736   6.059  0.1040 -0.7901  0.2223
   15SAPS     P 1875   6.440   1.685   6.110 -0.1491 -0.2680 -0.0575
   15SAPS   O13 1876   6.512   1.586   6.199  0.5625 -0.3578  0.1375
   15SAPS   O14 1877   6.518   1.767   6.015  0.0732 -0.4656  0.6486
   15SAPS   O12 1878   6.336   1.615   6.022 -0.4518 -0.2227  0.3108
   15SAPS   O11 1879   6.364   1.777   6.212  0.6641  0.0643  0.0706
   15SAPS    C1 1880   6.281   1.724   6.319  0.2304  0.0050 -0.0639
   15SAPS    HA 1881   6.212   1.642   6.291 -1.6320  1.9244 -1.3838
   15SAPS    HB 1882   6.343   1.675   6.398  0.5141 -0.6232 -0.6707
   15SAPS    C2 1883   6.203   1.839   6.390 -0.1381  0.5060 -0.2072
   15SAPS    HS 1884   6.149   1.884   6.304 -2.2119 -0.7272  0.3651
   15SAPS   O21 1885   6.297   1.929   6.453 -0.8359  0.0405  0.5902
   15SAPS   C21 1886   6.260   2.053   6.475  0.5393 -0.2698  0.0485
   15SAPS   O22 1887   6.146   2.099   6.467  0.0398  0.2991  0.0817
   15SAPS   C22 1888   6.387   2.136   6.515  0.7010 -0.8753 -0.0588
   15SAPS   H2R 1889   6.469   2.064   6.535  0.3536 -1.5801 -1.1125
   15SAPS   H2S 1890   6.413   2.204   6.431 -0.8756 -0.1057  0.0489
   15SAPS    C3 1891   6.094   1.785   6.489 -1.1194  0.1190  0.1510
   15SAPS    HX 1892   6.039   1.711   6.428  0.6315 -0.4362 -0.8181
   15SAPS    HY 1893   6.021   1.865   6.515 -1.7383 -0.4539  0.1995
   15SAPS   O31 1894   6.148   1.705   6.597 -0.2955 -0.1200 -0.4925
   15SAPS   C31 1895   6.158   1.772   6.711  0.0796  0.2296  0.7759
   15SAPS   O32 1896   6.132   1.892   6.722  0.0984  0.5679 -0.1728
   15SAPS   C32 1897   6.213   1.680   6.817 -0.6163 -0.0718  0.0816
   15SAPS   H2X 1898   6.239   1.738   6.908  0.3548  0.8853 -0.7978
   15SAPS   H2Y 1899   6.307   1.636   6.779 -1.3207 -0.9767 -0.6705
   15SAPS   C23 1900   6.349   2.217   6.643 -0.4251 -0.1369 -0.5042
   15SAPS   H3R 1901   6.299   2.148   6.714  0.1713  0.4659  0.5135
   15SAPS   H3S 1902   6.282   2.303   6.621  0.6015  1.5777  2.4808
   15SAPS   C24 1903   6.469   2.291   6.718  1.3410 -0.5256 -0.4334
   15SAPS   H4R 1904   6.530   2.205   6.754  1.0344 -0.6092 -0.1146
   15SAPS   H4S 1905   6.432   2.343   6.809  1.9496 -0.8311 -0.0015
   15SAPS   C25 1906   6.542   2.386   6.627  0.2343 -0.6306  0.9222
   15SAPS   H5R 1907   6.483   2.450   6.559 -0.5748 -1.5565  0.7317
   15SAPS   C26 1908   6.676   2.392   6.624 -0.2914 -0.4020  0.3458
   15SAPS   H6R 1909   6.735   2.443   6.547  1.0625 -2.7587 -0.2664
   15SAPS   C27 1910   6.772   2.320   6.722  0.8945 -0.1578 -0.0801
   15SAPS   H7R 1911   6.759   2.211   6.706 -0.5889 -0.2443  1.4409
   15SAPS   H7S 1912   6.720   2.343   6.817 -0.9136  2.6357 -1.5796
   15SAPS   C28 1913   6.917   2.356   6.717 -0.4646 -1.1068 -0.3418
   15SAPS   H8R 1914   6.957   2.394   6.622 -1.9346 -1.9488 -1.3374
   15SAPS   C29 1915   6.997   2.338   6.824  1.2087 -0.5194  0.2899
   15SAPS   H9R 1916   7.103   2.366   6.814  1.0377  0.3567  0.8084
   15SAPS  C210 1917   6.957   2.273   6.952  0.1542 -0.2526 -0.0351
   15SAPS  H10R 1918   6.846   2.264   6.949  0.1248  0.4470 -1.9185
   15SAPS  H10S 1919   6.972   2.349   7.033 -2.1594  1.1951 -0.8350
   15SAPS  C211 1920   7.022   2.139   6.954  0.1344 -0.2923 -0.1278
   15SAPS  H11R 1921   6.987   2.062   6.883 -0.2183 -0.3768  0.1392
   15SAPS  C212 1922   7.112   2.101   7.043 -0.5275  0.4696 -0.0045
   15SAPS  H12R 1923   7.150   1.998   7.048 -2.4700 -0.2285  3.8714
   15SAPS  C213 1924   7.158   2.175   7.163  0.4983  0.2016  0.0199
   15SAPS  H13R 1925   7.072   2.162   7.231 -0.8890  0.4384 -1.6085
   15SAPS  H13S 1926   7.157   2.284   7.141  0.5882  0.1910 -0.0357
   15SAPS  C214 1927   7.290   2.160   7.228  0.4037  0.4228 -0.0448
   15SAPS  H14R 1928   7.366   2.185   7.153  0.0083 -0.7892 -0.8802
   15SAPS  C215 1929   7.318   2.116   7.355 -0.2132 -0.5318 -0.0674
   15SAPS  H15R 1930   7.421   2.131   7.389  0.1922  1.2318 -1.9280
   15SAPS  C216 1931   7.211   2.073   7.458  0.4048 -0.6952  0.0827
   15SAPS  H16R 1932   7.112   2.101   7.418  0.1585  1.0134  1.7249
   15SAPS  H16S 1933   7.224   2.120   7.558 -2.5107 -1.1989  0.7825
   15SAPS  C217 1934   7.204   1.923   7.484 -0.2164  0.1887 -0.1544
   15SAPS  H17R 1935   7.279   1.891   7.558  0.2280 -0.8056 -1.0043
   15SAPS  H17S 1936   7.221   1.867   7.389 -2.8726 -0.1984 -0.4837
   15SAPS  C218 1937   7.062   1.865   7.522 -0.1105 -0.3340 -0.4209
   15SAPS  H18R 1938   6.994   1.858   7.434  0.4531 -0.9571 -0.8157
   15SAPS  H18S 1939   7.014   1.928   7.600 -1.6360 -0.3847 -1.2753
   15SAPS  C219 1940   7.082   1.721   7.573  0.6997  0.7886  0.0455
   15SAPS  H19R 1941   6.993   1.692   7.635  0.9219  1.6573  0.7962
   15SAPS  H19S 1942   7.168   1.712   7.642  0.4661  0.6825  0.3261
   15SAPS  C220 1943   7.090   1.625   7.461 -0.0037 -0.0338 -0.0433
   15SAPS  H20R 1944   7.082   1.524   7.508 -0.0302  1.2101  2.8647
   15SAPS  H20S 1945   7.182   1.640   7.401 -1.3197 -0.1278 -2.1841
   15SAPS  H20T 1946   7.010   1.628   7.384  0.6534 -2.4842 -0.9239
   15SAPS   C33 1947   6.106   1.571   6.855  0.0931 -0.5698 -0.1297
   15SAPS   H3X 1948   6.081   1.514   6.764  1.2835 -0.5454 -0.4928
   15SAPS   H3Y 1949   6.010   1.614   6.891 -0.3125  0.8437 -2.6879
   15SAPS   C34 1950   6.157   1.473   6.967 -0.4228  0.0989  0.6448
   15SAPS   H4X 1951   6.268   1.468   6.963 -0.3271  1.7769  0.1429
   15SAPS   H4Y 1952   6.093   1.382   6.970 -0.6045  0.1437 -0.8374
   15SAPS   C35 1953   6.144   1.545   7.107 -0.2774  1.1108  0.0221
   15SAPS   H5X 1954   6.039   1.571   7.130 -0.0087  0.9779  1.5143
   15SAPS   H5Y 1955   6.209   1.635   7.116 -0.1732  1.0442 -0.0675
   15SAPS   C36 1956   6.177   1.456   7.230  0.3540  0.7409 -0.1856
   15SAPS   H6X 1957   6.256   1.381   7.208 -1.4135 -0.9688 -1.0020
   15SAPS   H6Y 1958   6.088   1.397   7.260  1.2785 -1.1093 -0.9678
   15SAPS   C37 1959   6.220   1.524   7.363  0.0242 -0.5172 -0.1519
   15SAPS   H7X 1960   6.302   1.596   7.340  0.8578 -1.1650  0.6934
   15SAPS   H7Y 1961   6.277   1.462   7.436  0.4606 -0.2359 -0.2474
   15SAPS   C38 1962   6.106   1.596   7.437  0.9290  0.1266  0.0840
   15SAPS   H8X 1963   6.028   1.517   7.443  1.5967 -0.5299  0.2481
   15SAPS   H8Y 1964   6.076   1.685   7.377  0.3488 -0.4501 -0.4976
   15SAPS   C39 1965   6.148   1.644   7.574 -0.7056 -0.2351 -0.0372
   15SAPS   H9X 1966   6.061   1.706   7.607 -0.3868 -0.1752  0.7162
   15SAPS   H9Y 1967   6.240   1.705   7.560 -0.6363 -0.3076  0.1083
   15SAPS  C310 1968   6.168   1.533   7.689 -0.5711 -0.0660 -0.4241
   15SAPS  H10X 1969   6.259   1.476   7.663  0.2043 -0.1160  2.1687
   15SAPS  H10Y 1970   6.074   1.473   7.688 -0.6565  0.0274  0.6581
   15SAPS  C311 1971   6.185   1.593   7.830  0.4045  0.4763 -0.3712
   15SAPS  H11X 1972   6.127   1.685   7.852  0.2155  0.0458  0.9905
   15SAPS  H11Y 1973   6.295   1.611   7.837  0.5279 -0.0274 -0.9064
   15SAPS  C312 1974   6.122   1.493   7.937  0.1659  0.0550 -0.3099
   15SAPS  H12X 1975   6.016   1.473   7.909 -0.1518 -0.0676  0.9250
   15SAPS  H12Y 1976   6.113   1.548   8.033 -0.0960  2.7581 -1.7563
   15SAPS  C313 1977   6.197   1.369   7.966  0.2335  0.0938 -0.0984
   15SAPS  H13X 1978   6.302   1.400   7.981 -0.6306  2.7363  0.9578
   15SAPS  H13Y 1979   6.177   1.306   7.877  1.2263  1.3003 -1.2078
   15SAPS  C314 1980   6.149   1.283   8.080 -0.2132 -0.7799  0.1750
   15SAPS  H14X 1981   6.188   1.332   8.172  1.2956  0.0644 -0.8677
   15SAPS  H14Y 1982   6.203   1.186   8.072 -0.1629 -0.7128 -0.2935
   15SAPS  C315 1983   5.998   1.252   8.075  0.4266  0.2226 -0.4166
   15SAPS  H15X 1984   5.982   1.182   7.990 -1.7185 -2.2323  1.8210
   15SAPS  H15Y 1985   5.933   1.341   8.059  0.9299  0.8374  0.8158
   15SAPS  C316 1986   5.941   1.173   8.197  0.5783  0.4065  0.3958
   15SAPS  H16X 1987   6.021   1.106   8.234  1.5183 -0.5554 -3.0023
   15SAPS  H16Y 1988   5.854   1.118   8.153  1.5259 -1.7987  1.1354
   15SAPS  C317 1989   5.888   1.276   8.298 -0.0068 -0.3000  0.0406
   15SAPS  H17X 1990   5.827   1.355   8.251 -0.3663  0.6566  1.9895
   15SAPS  H17Y 1991   5.978   1.326   8.340  1.6490 -2.4861 -0.6991
   15SAPS  C318 1992   5.816   1.208   8.413 -0.4744  0.2642 -0.5919
   15SAPS  H18X 1993   5.775   1.291   8.473 -1.1832  0.5983 -1.5140
   15SAPS  H18Y 1994   5.883   1.151   8.481 -0.3509  2.0313  0.8250
   15SAPS  H18Z 1995   5.733   1.144   8.376  1.4647 -0.2998 -4.5866
   16SAPS     N 1996   2.362   5.227   6.216 -0.7053 -0.5867  0.1614
   16SAPS   HN1 1997   2.424   5.298   6.260  0.3053 -2.0156  1.1072
   16SAPS   HN2 1998   2.416   5.186   6.137  0.6308 -0.3163  0.8942
   16SAPS   HN3 1999   2.276   5.277   6.185  1.3247  3.2723  0.0716
   16SAPS   C12 2000   2.339   5.138   6.331 -0.2658 -0.2583  0.0811
   16SAPS  H12A 2001   2.243   5.093   6.311 -1.0984  0.8842  1.2921
   16SAPS   C13 2002   2.453   5.039   6.358 -0.3512  1.1525 -0.3049
   16SAPS  O13A 2003   2.556   5.042   6.283  0.7500 -0.1098 -0.2169
   16SAPS  O13B 2004   2.443   4.952   6.444  1.0832  0.0913 -0.4057
   16SAPS   C11 2005   2.315   5.233   6.460  0.4674 -0.1362  0.6879
   16SAPS  H11A 2006   2.281   5.160   6.537  1.2909 -1.0174  0.2494
   16SAPS  H11B 2007   2.240   5.308   6.429  0.2859 -0.8638 -0.7062
   16SAPS     P 2008   2.472   5.437   6.483  0.2392  0.2208 -0.4688
   16SAPS   O13 2009   2.593   5.463   6.560  0.2051  0.5849 -0.1806
   16SAPS   O14 2010   2.473   5.457   6.340 -0.0064 -0.6697 -0.0320
   16SAPS   O12 2011   2.436   5.284   6.510 -0.0339  0.2100 -0.0213
   16SAPS   O11 2012   2.349   5.517   6.543  0.0447 -0.6702  0.3356
   16SAPS    C1 2013   2.334   5.521   6.690  0.1494  0.5475  0.4228
   16SAPS    HA 2014   2.224   5.511   6.707 -0.8039  0.0873 -4.4546
   16SAPS    HB 2015   2.383   5.441   6.750  0.9436  1.5994  1.1982
   16SAPS    C2 2016   2.377   5.659   6.743 -0.3965  0.2825  0.6375
   16SAPS    HS 2017   2.480   5.673   6.705 -0.7177  1.7046  0.2558
   16SAPS   O21 2018   2.370   5.664   6.887  0.9376  0.5262  0.3657
   16SAPS   C21 2019   2.471   5.721   6.950  0.4001 -0.2755 -0.2581
   16SAPS   O22 2020   2.577   5.761   6.899  0.3601 -1.0957 -0.6397
   16SAPS   C22 2021   2.447   5.721   7.097  0.5315 -0.1100  1.5571
   16SAPS   H2R 2022   2.373   5.803   7.114  0.2231 -0.3572  1.3939
   16SAPS   H2S 2023   2.402   5.626   7.132  1.4237 -2.2086 -2.4952
   16SAPS    C3 2024   2.292   5.771   6.689  0.1385 -0.6701  0.1471
   16SAPS    HX 2025   2.188   5.735   6.708 -0.3101 -0.2997 -1.4317
   16SAPS    HY 2026   2.311   5.775   6.579  1.1386 -1.1596  0.2915
   16SAPS   O31 2027   2.329   5.895   6.752  0.1677 -0.1237 -0.6260
   16SAPS   C31 2028   2.228   5.962   6.810  0.6893  0.4461 -0.4894
   16SAPS   O32 2029   2.110   5.924   6.802 -0.1781  0.2249 -0.9771
   16SAPS   C32 2030   2.268   6.094   6.870  0.1862  0.2388  0.1329
   16SAPS   H2X 2031   2.175   6.155   6.863 -1.8521 -2.8169 -2.5591
   16SAPS   H2Y 2032   2.350   6.137   6.809  0.3031  1.3669  1.0529
   16SAPS   C23 2033   2.573   5.752   7.181  0.5371  0.0822 -0.2461
   16SAPS   H3R 2034   2.612   5.853   7.158 -0.8578  1.1431  1.7217
   16SAPS   H3S 2035   2.652   5.680   7.152 -0.4616 -0.6682 -1.2216
   16SAPS   C24 2036   2.544   5.726   7.327  0.3699 -0.6986 -0.4414
   16SAPS   H4R 2037   2.634   5.722   7.391  0.7591  0.7269 -0.8601
   16SAPS   H4S 2038   2.488   5.630   7.339 -0.9462  0.3275  2.5192
   16SAPS   C25 2039   2.440   5.820   7.380 -0.1856 -0.0666 -0.2108
   16SAPS   H5R 2040   2.427   5.915   7.325 -1.3726  0.1065  0.3413
   16SAPS   C26 2041   2.361   5.812   7.486  0.2085 -0.0773 -0.2195
   16SAPS   H6R 2042   2.297   5.901   7.495  1.3132  0.8350 -1.1647
   16SAPS   C27 2043   2.342   5.702   7.585 -0.6215 -0.1450 -0.7283
   16SAPS   H7R 2044   2.425   5.628   7.593 -0.2548  0.1882 -1.3864
   16SAPS   H7S 2045   2.267   5.633   7.540 -2.5757 -0.7922  3.0664
   16SAPS   C28 2046   2.283   5.734   7.726  0.1659  0.5099  0.3909
   16SAPS   H8R 2047   2.178   5.764   7.726 -0.7775 -2.5357  0.6317
   16SAPS   C29 2048   2.348   5.749   7.842 -0.0486  0.2651 -0.1864
   16SAPS   H9R 2049   2.292   5.794   7.926 -1.9675  0.4870 -1.5230
   16SAPS  C210 2050   2.498   5.732   7.874  0.1655 -1.1351 -0.5442
   16SAPS  H10R 2051   2.548   5.661   7.806 -0.8170 -1.6143 -0.7728
   16SAPS  H10S 2052   2.502   5.686   7.975 -1.8264 -1.5170 -0.6024
   16SAPS  C211 2053   2.587   5.860   7.877  0.3795  0.8082  0.4206
   16SAPS  H11R 2054   2.554   5.937   7.806 -0.3756  1.6476  1.6453
   16SAPS  C212 2055   2.687   5.879   7.971 -0.3731  0.1628  1.3368
   16SAPS  H12R 2056   2.763   5.955   7.943 -0.4531 -0.4720 -0.8134
   16SAPS  C213 2057   2.726   5.786   8.087 -0.0650 -0.4783  0.5534
   16SAPS  H13R 2058   2.628   5.742   8.116 -0.8382  0.9990  0.2627
   16SAPS  H13S 2059   2.758   5.853   8.169  1.1509 -1.3512  0.8287
   16SAPS  C214 2060   2.833   5.679   8.064 -0.2096  0.8258  0.2605
   16SAPS  H14R 2061   2.816   5.611   7.979 -0.5453  0.0597  0.9239
   16SAPS  C215 2062   2.937   5.651   8.152 -0.1263 -0.8062  0.5575
   16SAPS  H15R 2063   3.008   5.577   8.113  0.0502 -0.0055 -0.6734
   16SAPS  C216 2064   2.974   5.722   8.279 -0.3618 -0.1650 -0.0337
   16SAPS  H16R 2065   2.949   5.654   8.364  1.6568 -1.3731 -0.3458
   16SAPS  H16S 2066   2.929   5.823   8.291 -1.3865 -0.6218  0.1323
   16SAPS  C217 2067   3.134   5.734   8.289  0.5272  0.1640 -0.2102
   16SAPS  H17R 2068   3.182   5.790   8.206  2.0548 -0.2565  0.3447
   16SAPS  H17S 2069   3.175   5.631   8.297 -0.1617 -0.1960 -1.1538
   16SAPS  C218 2070   3.172   5.793   8.429  0.3122 -0.7856 -0.1190
   16SAPS  H18R 2071   3.157   5.710   8.501  1.6297 -1.1017 -0.1836
   16SAPS  H18S 2072   3.102   5.874   8.459  3.3819  1.0349  2.8294
   16SAPS  C219 2073   3.316   5.851   8.431 -0.7320  0.3497  0.0500
   16SAPS  H19R 2074   3.319   5.920   8.344  0.3236 -0.3073 -0.4597
   16SAPS  H19S 2075   3.380   5.767   8.397 -0.3859  1.4986 -2.3671
   16SAPS  C220 2076   3.376   5.913   8.558  0.9808  0.2008  0.5525
   16SAPS  H20R 2077   3.307   5.996   8.586  0.1734 -0.9738  2.1974
   16SAPS  H20S 2078   3.476   5.960   8.545  0.1396  2.8712  2.7331
   16SAPS  H20T 2079   3.376   5.842   8.643 -3.0037 -1.1296 -0.3693
   16SAPS   C33 2080   2.311   6.088   7.021  0.6481  0.3091  0.4281
   16SAPS   H3X 2081   2.407   6.033   7.034  0.8386  0.3915 -0.5791
   16SAPS   H3Y 2082   2.236   6.028   7.077  0.4845  2.2557  2.4340
   16SAPS   C34 2083   2.340   6.229   7.076  0.2385 -0.3389 -0.3325
   16SAPS   H4X 2084   2.254   6.298   7.079 -0.0103 -0.4640 -2.6035
   16SAPS   H4Y 2085   2.418   6.273   7.010  0.7735  1.6048  1.5018
   16SAPS   C35 2086   2.395   6.226   7.219 -0.6722  0.5839 -0.1702
   16SAPS   H5X 2087   2.448   6.322   7.236  2.0685 -1.2062  2.2672
   16SAPS   H5Y 2088   2.479   6.154   7.219 -0.7524  0.4414 -1.9459
   16SAPS   C36 2089   2.292   6.213   7.329 -0.9718  0.6229 -0.1314
   16SAPS   H6X 2090   2.217   6.136   7.303 -0.6759  0.0856  0.5578
   16SAPS   H6Y 2091   2.251   6.315   7.338  2.4170  2.3905 -2.4399
   16SAPS   C37 2092   2.363   6.185   7.465 -0.2123 -0.1809  0.2019
   16SAPS   H7X 2093   2.416   6.277   7.499  1.8989 -0.7297 -1.3910
   16SAPS   H7Y 2094   2.437   6.105   7.443 -1.1067 -1.4874  1.7107
   16SAPS   C38 2095   2.250   6.170   7.571  0.0972 -0.2124 -0.0074
   16SAPS   H8X 2096   2.204   6.070   7.555  0.4252 -0.4318  0.4026
   16SAPS   H8Y 2097   2.178   6.252   7.551  1.6256  0.7346 -2.0022
   16SAPS   C39 2098   2.293   6.164   7.719 -0.3480  0.1590  0.5659
   16SAPS   H9X 2099   2.357   6.074   7.725 -2.1883 -1.4689 -1.9308
   16SAPS   H9Y 2100   2.204   6.139   7.781 -0.9146 -0.4781 -0.4834
   16SAPS  C310 2101   2.344   6.292   7.786  0.4704 -0.1361  0.4550
   16SAPS  H10X 2102   2.264   6.368   7.778  1.6448  0.9402 -1.9882
   16SAPS  H10Y 2103   2.434   6.327   7.731  0.8303  0.2918  1.2884
   16SAPS  C311 2104   2.377   6.277   7.939  0.2935  0.5000 -0.3936
   16SAPS  H11X 2105   2.282   6.246   7.987  0.6783  1.0502  0.7423
   16SAPS  H11Y 2106   2.387   6.382   7.973 -0.9477  1.2521 -2.1907
   16SAPS  C312 2107   2.492   6.189   7.982  0.1063  0.5507 -0.7129
   16SAPS  H12X 2108   2.585   6.237   7.945  0.3837  0.5696 -0.0004
   16SAPS  H12Y 2109   2.484   6.089   7.934 -1.0562  2.0320 -3.8752
   16SAPS  C313 2110   2.513   6.187   8.136  0.0946  0.3180 -0.8504
   16SAPS  H13X 2111   2.531   6.291   8.169  2.5833 -0.8336  1.9246
   16SAPS  H13Y 2112   2.604   6.127   8.160 -0.5047  0.5491  2.5668
   16SAPS  C314 2113   2.408   6.129   8.234  0.0667  0.2594 -0.6120
   16SAPS  H14X 2114   2.314   6.187   8.224 -0.5162 -0.4808  0.3910
   16SAPS  H14Y 2115   2.445   6.152   8.336  0.7678 -0.0839 -0.7780
   16SAPS  C315 2116   2.393   5.978   8.217  1.1280 -0.3319  0.6673
   16SAPS  H15X 2117   2.496   5.939   8.235  1.4873  0.4782  0.4488
   16SAPS  H15Y 2118   2.365   5.951   8.113  0.7301 -0.2382  0.7497
   16SAPS  C316 2119   2.305   5.929   8.336 -0.4729 -0.0595  0.1202
   16SAPS  H16X 2120   2.208   5.982   8.322  0.3968  1.1763 -1.6115
   16SAPS  H16Y 2121   2.340   5.965   8.434 -2.8680  1.3552  0.5348
   16SAPS  C317 2122   2.276   5.782   8.349  1.2313  0.4726  0.4522
   16SAPS  H17X 2123   2.217   5.763   8.442 -1.1087  1.3365 -0.7558
   16SAPS  H17Y 2124   2.364   5.717   8.367  0.2425 -0.4582  2.2379
   16SAPS  C318 2125   2.211   5.729   8.213  0.5925 -0.2126 -0.9437
   16SAPS  H18X 2126   2.141   5.804   8.170  0.2004  0.5835  0.9736
   16SAPS  H18Y 2127   2.138   5.645   8.225 -1.7344  1.8699  0.5413
   16SAPS  H18Z 2128   2.292   5.697   8.144  1.0491  0.4429 -0.7154
   17SAPC     N 2129   0.023   1.741  10.720  0.2751  0.0469  0.3703
   17SAPC   C12 2130   0.164   1.754  10.677 -0.2673 -0.3372  0.1723
   17SAPC  H12A 2131   0.232   1.787  10.754 -1.5050 -1.2422  1.7257
   17SAPC  H12B 2132   0.165   1.824  10.595  1.1751  1.5935  1.7511
   17SAPC   C13 2133  -0.055   1.707  10.599  0.1386 -0.0223 -0.8372
   17SAPC  H13A 2134  -0.015   1.614  10.558 -0.1304 -0.5207  0.0161
   17SAPC  H13B 2135  -0.155   1.696  10.637  1.2698  0.2833  2.5500
   17SAPC  H13C 2136  -0.063   1.791  10.532  0.2339 -0.7212 -1.7511
   17SAPC   C14 2137   0.011   1.635  10.828 -0.2193  0.2775 -0.3370
   17SAPC  H14A 2138   0.043   1.538  10.794  0.8906  0.2611  0.6663
   17SAPC  H14B 2139   0.060   1.659  10.922 -0.5402  0.1547 -0.1365
   17SAPC  H14C 2140  -0.096   1.631  10.840 -0.6876  0.6172 -3.5219
   17SAPC   C15 2141  -0.032   1.864  10.779 -0.1042  0.5157 -0.1076
   17SAPC  H15A 2142  -0.137   1.850  10.800  0.0659  0.6152  0.8706
   17SAPC  H15B 2143   0.021   1.891  10.869  2.7104 -0.6714 -1.2763
   17SAPC  H15C 2144  -0.021   1.947  10.712  0.8003  1.8638  1.6445
   17SAPC   C11 2145   0.226   1.624  10.619 -0.1056  0.3143 -0.4313
   17SAPC  H11A 2146   0.197   1.540  10.685  1.3304  0.5636  0.5507
   17SAPC  H11B 2147   0.337   1.624  10.623 -0.0470  0.6714 -1.6182
   17SAPC     P 2148   0.256   1.656  10.363  0.2768 -0.3705  0.0944
   17SAPC   O13 2149   0.224   1.804  10.351 -0.4428  0.3252  0.0022
   17SAPC   O14 2150   0.401   1.617  10.357  0.3286  0.1268 -0.6139
   17SAPC   O12 2151   0.182   1.592  10.487 -0.3708  0.2784 -0.3541
   17SAPC   O11 2152   0.176   1.578  10.247 -0.2463  0.3331 -0.3118
   17SAPC    C1 2153   0.042   1.545  10.248 -0.0172 -0.6579  0.6275
   17SAPC    HA 2154   0.020   1.437  10.264 -1.4623 -0.5034 -0.1578
   17SAPC    HB 2155  -0.018   1.599  10.324  3.4838  0.9835  2.4574
   17SAPC    C2 2156  -0.006   1.593  10.100  0.1903  0.6769  0.0420
   17SAPC    HS 2157  -0.116   1.598  10.104  0.1361 -0.0216 -0.4198
   17SAPC   O21 2158   0.036   1.501  10.001  0.7587 -0.9015 -0.1007
   17SAPC   C21 2159  -0.021   1.376  10.012  0.6558  0.0160  0.3388
   17SAPC   O22 2160  -0.119   1.353  10.074  0.2754 -0.3523  0.5957
   17SAPC   C22 2161   0.064   1.278   9.925  0.3680  0.0176 -0.5772
   17SAPC   H2R 2162   0.127   1.333   9.852  1.0256  1.4311  0.9872
   17SAPC   H2S 2163   0.132   1.237  10.003 -1.0590 -1.2497  0.0582
   17SAPC    C3 2164   0.056   1.727  10.053  0.9564  0.2959  0.1063
   17SAPC    HX 2165   0.164   1.711  10.030  0.9210 -1.6236  1.0598
   17SAPC    HY 2166   0.065   1.803  10.134  0.0031  1.4341 -0.8086
   17SAPC   O31 2167  -0.019   1.783   9.940  0.0756  0.1748  0.3943
   17SAPC   C31 2168  -0.109   1.869   9.986  0.0360 -0.1463  0.0839
   17SAPC   O32 2169  -0.148   1.884  10.101 -0.3481  0.2683 -0.0172
   17SAPC   C32 2170  -0.165   1.949   9.866 -0.5405  0.2904  0.2422
   17SAPC   H2X 2171  -0.130   1.911   9.767 -1.2660 -0.1251  0.1403
   17SAPC   H2Y 2172  -0.137   2.056   9.874 -3.3776  1.3318 -1.8714
   17SAPC   C23 2173  -0.018   1.173   9.862  0.3276  0.4366  0.6798
   17SAPC   H3R 2174  -0.109   1.218   9.817  0.0196 -0.4593  0.3874
   17SAPC   H3S 2175  -0.059   1.110   9.945 -0.4283  1.0624  0.7893
   17SAPC   C24 2176   0.057   1.079   9.766  0.1909 -0.3019  0.5267
   17SAPC   H4R 2177  -0.002   0.987   9.747  0.7283 -1.0919  2.4375
   17SAPC   H4S 2178   0.143   1.040   9.824 -0.1141  1.1047  1.9799
   17SAPC   C25 2179   0.098   1.151   9.643 -0.2181  0.7420  0.9303
   17SAPC   H5R 2180   0.203   1.185   9.635 -0.2990  0.5896 -1.6055
   17SAPC   C26 2181   0.025   1.156   9.532  0.1565  0.4816  0.5879
   17SAPC   H6R 2182   0.073   1.205   9.447  0.7898  1.4275  1.4757
   17SAPC   C27 2183  -0.113   1.106   9.515 -0.3126  0.2074  0.1594
   17SAPC   H7R 2184  -0.181   1.190   9.490  1.7133  1.8110 -0.1864
   17SAPC   H7S 2185  -0.152   1.087   9.617  0.7813  1.9561  0.9488
   17SAPC   C28 2186  -0.133   0.996   9.418  0.6908  0.3877  0.2355
   17SAPC   H8R 2187  -0.088   0.897   9.440  0.9095  0.6603  1.0752
   17SAPC   C29 2188  -0.211   1.007   9.303 -0.3637 -0.8603 -0.3509
   17SAPC   H9R 2189  -0.221   0.916   9.242 -0.4243 -1.3238  0.3262
   17SAPC  C210 2190  -0.288   1.128   9.253  0.1861 -0.7688 -1.1525
   17SAPC  H10R 2191  -0.213   1.206   9.227 -2.2748  1.9706 -0.5904
   17SAPC  H10S 2192  -0.337   1.169   9.344  2.0935 -1.7718  0.4101
   17SAPC  C211 2193  -0.396   1.100   9.150  0.0252  0.2415  0.0053
   17SAPC  H11R 2194  -0.467   1.023   9.181 -2.5714  3.3252  2.3556
   17SAPC  C212 2195  -0.419   1.167   9.036 -0.7443  0.9006 -0.4846
   17SAPC  H12R 2196  -0.496   1.124   8.970 -1.8217 -0.6822  1.6482
   17SAPC  C213 2197  -0.333   1.275   8.983  0.2119 -0.0051 -0.3267
   17SAPC  H13R 2198  -0.247   1.303   9.047 -0.2041  1.3011 -0.3034
   17SAPC  H13S 2199  -0.402   1.361   8.995  0.7172  0.4497 -0.6140
   17SAPC  C214 2200  -0.305   1.271   8.830 -0.3286  0.2172 -0.9088
   17SAPC  H14R 2201  -0.271   1.168   8.809  0.8689  0.4841 -0.3121
   17SAPC  C215 2202  -0.323   1.365   8.739  0.7231  0.9012  0.0627
   17SAPC  H15R 2203  -0.279   1.362   8.638  0.9609 -1.0801  0.1846
   17SAPC  C216 2204  -0.380   1.503   8.767  0.1155 -0.1652 -0.2115
   17SAPC  H16R 2205  -0.294   1.573   8.767 -1.0784  1.3531  0.7785
   17SAPC  H16S 2206  -0.415   1.515   8.871  0.8946 -3.2384  0.4966
   17SAPC  C217 2207  -0.507   1.549   8.678  0.0749 -0.2167 -0.5555
   17SAPC  H17R 2208  -0.535   1.651   8.713  0.1060  0.1295 -1.5270
   17SAPC  H17S 2209  -0.597   1.484   8.692 -0.4018  0.7029  0.9000
   17SAPC  C218 2210  -0.466   1.568   8.534 -0.5769 -0.4422  0.6582
   17SAPC  H18R 2211  -0.421   1.473   8.496  0.7738 -0.2529  1.7016
   17SAPC  H18S 2212  -0.385   1.644   8.529 -1.2037  0.2220  0.4059
   17SAPC  C219 2213  -0.581   1.602   8.433 -0.0417  0.1543 -0.0346
   17SAPC  H19R 2214  -0.660   1.667   8.476  0.6642 -0.4982  2.4152
   17SAPC  H19S 2215  -0.634   1.508   8.410  1.8304 -1.1776  0.8762
   17SAPC  C220 2216  -0.519   1.654   8.302 -0.6819 -0.4968 -0.0157
   17SAPC  H20R 2217  -0.477   1.571   8.241 -2.2092 -1.6922  0.4977
   17SAPC  H20S 2218  -0.444   1.731   8.331 -2.3593  0.8048  1.0206
   17SAPC  H20T 2219  -0.590   1.717   8.244  1.3346  1.4354 -0.5116
   17SAPC   C33 2220  -0.320   1.936   9.858 -0.1297  0.0997  0.3515
   17SAPC   H3X 2221  -0.365   1.956   9.957 -0.3828  0.2309  0.2110
   17SAPC   H3Y 2222  -0.333   1.831   9.825  1.2482 -0.1355  0.5217
   17SAPC   C34 2223  -0.376   2.024   9.743  0.2160  0.6297 -0.1715
   17SAPC   H4X 2224  -0.307   2.009   9.657  0.4352 -1.2729  0.2881
   17SAPC   H4Y 2225  -0.379   2.128   9.783  1.7181  1.0275 -0.9782
   17SAPC   C35 2226  -0.513   1.992   9.705 -0.0065 -0.4304 -0.5833
   17SAPC   H5X 2227  -0.581   2.004   9.792  0.3321 -0.4987 -0.3057
   17SAPC   H5Y 2228  -0.510   1.891   9.659  4.3677 -0.7167 -0.0673
   17SAPC   C36 2229  -0.568   2.101   9.601 -0.3106 -0.4476 -0.5644
   17SAPC   H6X 2230  -0.504   2.086   9.512  1.0624  0.9371  0.1364
   17SAPC   H6Y 2231  -0.560   2.206   9.636 -2.4756 -0.6906  0.9041
   17SAPC   C37 2232  -0.711   2.064   9.556  0.2082  0.6734  0.2114
   17SAPC   H7X 2233  -0.781   2.050   9.640 -0.9134  0.5038 -0.7216
   17SAPC   H7Y 2234  -0.709   1.960   9.517  1.9999  1.3195 -1.6292
   17SAPC   C38 2235  -0.778   2.178   9.472 -0.5440  0.0489 -0.5350
   17SAPC   H8X 2236  -0.703   2.245   9.424 -0.6217  1.9304  1.8199
   17SAPC   H8Y 2237  -0.831   2.238   9.549  0.1958  0.1441 -0.0877
   17SAPC   C39 2238  -0.878   2.132   9.371 -0.0403  0.1358  0.4141
   17SAPC   H9X 2239  -0.833   2.057   9.303 -0.3965 -0.1767  0.5194
   17SAPC   H9Y 2240  -0.924   2.215   9.312 -0.3906  0.2686  0.8618
   17SAPC  C310 2241  -0.997   2.071   9.438 -0.0034 -0.4697  0.1183
   17SAPC  H10X 2242  -1.058   2.152   9.483  0.3609  0.9640 -1.8019
   17SAPC  H10Y 2243  -0.964   1.990   9.507  0.7417 -1.3917 -1.2634
   17SAPC  C311 2244  -1.092   1.987   9.345 -0.1271 -0.4457 -0.4485
   17SAPC  H11X 2245  -1.070   2.013   9.240 -1.4177 -0.1258 -0.6517
   17SAPC  H11Y 2246  -1.197   2.001   9.378  0.6882  0.5451  1.9900
   17SAPC  C312 2247  -1.074   1.834   9.357 -0.3301  0.3153 -0.2294
   17SAPC  H12X 2248  -1.104   1.816   9.463 -2.5354  1.0048 -0.6905
   17SAPC  H12Y 2249  -0.973   1.793   9.338 -0.7801 -1.0576  0.2053
   17SAPC  C313 2250  -1.179   1.769   9.266  0.3953 -0.3452  0.8885
   17SAPC  H13X 2251  -1.274   1.827   9.273  0.2053 -0.8321  2.9012
   17SAPC  H13Y 2252  -1.193   1.664   9.297  0.8056 -0.0709  2.0325
   17SAPC  C314 2253  -1.145   1.764   9.114 -0.6711  0.4279  0.3841
   17SAPC  H14X 2254  -1.040   1.732   9.098 -0.5227  0.3757  1.3826
   17SAPC  H14Y 2255  -1.163   1.858   9.058 -2.8025  0.1911  0.5762
   17SAPC  C315 2256  -1.228   1.665   9.028 -0.2709  0.1441  0.2881
   17SAPC  H15X 2257  -1.251   1.569   9.078 -3.5898 -0.3341 -1.8573
   17SAPC  H15Y 2258  -1.161   1.649   8.940 -0.7838  1.6290 -0.4065
   17SAPC  C316 2259  -1.366   1.710   8.980 -0.0748  0.1649 -0.3788
   17SAPC  H16X 2260  -1.350   1.801   8.918 -0.8806 -0.4820 -1.5580
   17SAPC  H16Y 2261  -1.442   1.726   9.060  0.0587  1.6179 -0.5065
   17SAPC  C317 2262  -1.429   1.611   8.875  0.1783 -0.5480 -0.0836
   17SAPC  H17X 2263  -1.451   1.514   8.924  0.2582 -0.0741  0.9327
   17SAPC  H17Y 2264  -1.351   1.600   8.796 -0.2494 -1.4361 -0.3826
   17SAPC  C318 2265  -1.551   1.672   8.815 -0.3726 -0.2831  1.1036
   17SAPC  H18X 2266  -1.636   1.673   8.888  0.6713 -0.5017  2.3612
   17SAPC  H18Y 2267  -1.535   1.772   8.770 -1.1676 -0.6286 -0.0046
   17SAPC  H18Z 2268  -1.584   1.611   8.728 -0.8487 -0.1734  1.2019
   18SAPC     N 2269   1.003   1.677  10.514  0.5160 -0.0323  0.4820
   18SAPC   C12 2270   0.869   1.670  10.450 -0.0982 -0.0215 -0.1056
   18SAPC  H12A 2271   0.839   1.769  10.419 -0.5090 -0.2632 -0.4992
   18SAPC  H12B 2272   0.788   1.654  10.520 -0.1899 -1.0143 -0.4272
   18SAPC   C13 2273   1.005   1.788  10.611 -0.1902  0.0004 -0.5237
   18SAPC  H13A 2274   1.098   1.775  10.665  0.1276 -0.6601 -1.2025
   18SAPC  H13B 2275   1.002   1.890  10.578 -1.5163  0.2965  0.4464
   18SAPC  H13C 2276   0.926   1.776  10.683 -1.1390  0.5085 -1.4616
   18SAPC   C14 2277   1.046   1.562  10.602  0.6251  0.4065 -0.1035
   18SAPC  H14A 2278   1.067   1.468  10.552  0.0030 -0.1967  0.7538
   18SAPC  H14B 2279   1.136   1.584  10.657  0.0000  1.9579  0.3367
   18SAPC  H14C 2280   0.969   1.543  10.675  0.3248 -0.9063 -0.7185
   18SAPC   C15 2281   1.106   1.701  10.414  0.1040 -0.3112 -0.8009
   18SAPC  H15A 2282   1.200   1.695  10.467 -1.2037 -1.9344  1.4951
   18SAPC  H15B 2283   1.096   1.627  10.335 -0.0521 -1.1991  0.0300
   18SAPC  H15C 2284   1.104   1.797  10.365  0.6770  2.2844  3.7804
   18SAPC   C11 2285   0.850   1.579  10.334 -0.6128  0.4237 -0.1254
   18SAPC  H11A 2286   0.912   1.601  10.245  0.0174 -0.5464  0.0601
   18SAPC  H11B 2287   0.746   1.583  10.294 -0.6838  0.7465  0.0815
   18SAPC     P 2288   0.804   1.355  10.461 -0.1285 -0.0096 -0.0892
   18SAPC   O13 2289   0.888   1.288  10.565 -0.2116  0.1046 -0.1713
   18SAPC   O14 2290   0.688   1.436  10.514  0.0720  0.9853  0.7466
   18SAPC   O12 2291   0.890   1.444  10.374  0.2763  0.3311  0.3642
   18SAPC   O11 2292   0.739   1.252  10.364  0.1033  0.4636  0.0928
   18SAPC    C1 2293   0.771   1.235  10.221 -0.1384 -0.2109 -0.4678
   18SAPC    HA 2294   0.682   1.187  10.175 -1.2179  1.4983 -0.2365
   18SAPC    HB 2295   0.784   1.334  10.173 -1.2556  0.4286  0.4948
   18SAPC    C2 2296   0.889   1.142  10.190 -0.4030 -0.6209  0.0217
   18SAPC    HS 2297   0.968   1.193  10.249 -0.7871  0.6123 -0.4986
   18SAPC   O21 2298   0.921   1.146  10.044  0.5401  0.4836 -0.3620
   18SAPC   C21 2299   1.052   1.135  10.018 -0.3955 -0.0019 -0.0889
   18SAPC   O22 2300   1.137   1.147  10.102  0.1638  0.5564 -0.6046
   18SAPC   C22 2301   1.087   1.128   9.872  0.2352  0.2158  0.1848
   18SAPC   H2R 2302   1.181   1.073   9.851 -0.4715 -0.8136 -0.3584
   18SAPC   H2S 2303   1.006   1.064   9.829  1.1328  0.3706 -1.8737
   18SAPC    C3 2304   0.853   1.000  10.235  0.5617 -0.3320  0.1676
   18SAPC    HX 2305   0.853   1.007  10.346  0.4896 -1.6800  0.2636
   18SAPC    HY 2306   0.942   0.941  10.204 -0.2677 -2.3347  1.4159
   18SAPC   O31 2307   0.721   0.951  10.185 -0.0650  0.0980 -0.2889
   18SAPC   C31 2308   0.729   0.904  10.062  0.6125  0.1733  0.3037
   18SAPC   O32 2309   0.827   0.905   9.991 -0.2749  0.7596 -0.3669
   18SAPC   C32 2310   0.588   0.853  10.020 -0.5479  0.3193 -0.2392
   18SAPC   H2X 2311   0.504   0.917  10.056 -2.4812 -2.1392 -0.1590
   18SAPC   H2Y 2312   0.571   0.752  10.063  1.7138 -1.3104 -2.8436
   18SAPC   C23 2313   1.084   1.266   9.798  0.5290  0.2080  0.3264
   18SAPC   H3R 2314   1.191   1.292   9.781  0.4681 -0.7604 -1.8261
   18SAPC   H3S 2315   1.047   1.341   9.871 -0.1351  1.3462 -1.1518
   18SAPC   C24 2316   1.014   1.280   9.664 -0.1078 -0.3371  0.1597
   18SAPC   H4R 2317   1.044   1.379   9.622  1.0917 -1.0610 -0.7329
   18SAPC   H4S 2318   0.905   1.299   9.676 -0.5348 -1.9159 -0.9253
   18SAPC   C25 2319   1.032   1.166   9.570 -0.9244 -0.3214  0.1371
   18SAPC   H5R 2320   0.964   1.083   9.593 -1.7262  0.5151  0.8687
   18SAPC   C26 2321   1.115   1.160   9.462 -0.7832 -0.0169 -0.4776
   18SAPC   H6R 2322   1.112   1.071   9.397  1.6710  1.0732 -2.2110
   18SAPC   C27 2323   1.214   1.263   9.418 -0.0213 -0.8774  0.9393
   18SAPC   H7R 2324   1.307   1.209   9.392  0.5706  0.6534 -0.2406
   18SAPC   H7S 2325   1.245   1.329   9.502 -1.6100  1.0171  0.1314
   18SAPC   C28 2326   1.153   1.347   9.306  0.3667  0.3860 -0.1058
   18SAPC   H8R 2327   1.100   1.437   9.341 -0.5884 -0.7294  1.4711
   18SAPC   C29 2328   1.173   1.337   9.168  0.4443 -0.2904  0.7522
   18SAPC   H9R 2329   1.133   1.413   9.099 -0.6785 -2.0614 -0.6701
   18SAPC  C210 2330   1.271   1.241   9.095 -0.4261 -0.5535  0.5645
   18SAPC  H10R 2331   1.210   1.168   9.037 -0.8674  1.9649 -2.4694
   18SAPC  H10S 2332   1.332   1.188   9.171  0.1760  0.4265  0.7828
   18SAPC  C211 2333   1.364   1.319   9.003  0.7895 -0.2169  0.0510
   18SAPC  H11R 2334   1.420   1.406   9.042  1.1881 -1.0000  1.2798
   18SAPC  C212 2335   1.378   1.292   8.873  0.4359  0.7407  0.1678
   18SAPC  H12R 2336   1.444   1.359   8.816 -0.1377 -1.1684 -3.0127
   18SAPC  C213 2337   1.313   1.188   8.785 -0.0248  0.0859 -0.1497
   18SAPC  H13R 2338   1.342   1.086   8.818 -0.4285  0.5121  1.6116
   18SAPC  H13S 2339   1.351   1.196   8.681  2.1511 -2.8855  0.3015
   18SAPC  C214 2340   1.163   1.209   8.779 -0.1073 -0.4144 -0.7757
   18SAPC  H14R 2341   1.120   1.230   8.878  1.4365 -0.6326 -0.0330
   18SAPC  C215 2342   1.076   1.174   8.683 -0.9008 -0.0601 -0.8577
   18SAPC  H15R 2343   0.970   1.197   8.696 -0.3218  1.4768  2.2034
   18SAPC  C216 2344   1.110   1.106   8.552 -0.2080 -0.4448  0.2866
   18SAPC  H16R 2345   1.070   1.002   8.553  0.8033 -0.8474  0.1985
   18SAPC  H16S 2346   1.220   1.099   8.533 -0.0563  0.2668  0.8496
   18SAPC  C217 2347   1.074   1.178   8.424  0.4249  0.1914  0.6516
   18SAPC  H17R 2348   0.964   1.179   8.410  0.6364 -1.3036 -1.7491
   18SAPC  H17S 2349   1.113   1.108   8.346  0.1625 -1.6146  2.0565
   18SAPC  C218 2350   1.138   1.313   8.403  0.1950  0.6283  0.1539
   18SAPC  H18R 2351   1.247   1.304   8.384  0.1487 -2.0369  0.7461
   18SAPC  H18S 2352   1.119   1.369   8.497  1.3638  3.3436 -1.1264
   18SAPC  C219 2353   1.071   1.393   8.288  0.0190 -0.4034  0.3034
   18SAPC  H19R 2354   0.961   1.407   8.302 -0.0112  0.5897 -0.7776
   18SAPC  H19S 2355   1.082   1.334   8.195  0.4728  0.3365 -0.1109
   18SAPC  C220 2356   1.140   1.525   8.277  0.4739  0.2413  0.2979
   18SAPC  H20R 2357   1.118   1.599   8.357  2.4502  1.1273  0.0968
   18SAPC  H20S 2358   1.119   1.578   8.182 -0.1148  0.8005  0.7321
   18SAPC  H20T 2359   1.246   1.492   8.287  0.4468  0.2985  0.8480
   18SAPC   C33 2360   0.592   0.836   9.862 -0.0331 -0.5961  0.0278
   18SAPC   H3X 2361   0.493   0.788   9.847 -0.2724 -0.0849 -0.0825
   18SAPC   H3Y 2362   0.676   0.771   9.831 -0.5572 -0.6976 -1.2469
   18SAPC   C34 2363   0.600   0.970   9.779 -0.1651 -0.1161  0.2549
   18SAPC   H4X 2364   0.673   1.048   9.811 -1.8247  3.3849 -3.5103
   18SAPC   H4Y 2365   0.501   1.020   9.784 -0.5752 -1.0813  2.4177
   18SAPC   C35 2366   0.639   0.941   9.631  0.8824 -0.8709  0.3672
   18SAPC   H5X 2367   0.565   0.872   9.586 -0.1282 -1.7032  3.1173
   18SAPC   H5Y 2368   0.732   0.879   9.635  0.9925 -0.7187  0.1678
   18SAPC   C36 2369   0.647   1.061   9.535 -0.1035 -0.1681  0.1071
   18SAPC   H6X 2370   0.713   1.132   9.589  2.1448 -2.4312  0.5377
   18SAPC   H6Y 2371   0.545   1.102   9.517 -0.1547 -1.0274 -1.9325
   18SAPC   C37 2372   0.713   1.038   9.401  0.2524  1.3859 -0.3456
   18SAPC   H7X 2373   0.646   0.967   9.348 -0.1900  2.4305 -1.2242
   18SAPC   H7Y 2374   0.818   1.005   9.417 -0.3988  0.1821  1.8830
   18SAPC   C38 2375   0.715   1.154   9.308  0.2712 -0.3598  0.0183
   18SAPC   H8X 2376   0.791   1.228   9.340 -1.2448  0.2256  2.4913
   18SAPC   H8Y 2377   0.611   1.191   9.298  0.4559 -0.0105 -0.6444
   18SAPC   C39 2378   0.735   1.125   9.158  0.1624 -0.3204 -0.1161
   18SAPC   H9X 2379   0.826   1.063   9.142  0.8025  1.0795 -2.5396
   18SAPC   H9Y 2380   0.749   1.225   9.111  1.3947  0.1863  1.2773
   18SAPC  C310 2381   0.618   1.054   9.086  0.9492 -0.4053 -0.2419
   18SAPC  H10X 2382   0.529   1.121   9.086  1.0422 -0.2610  0.7680
   18SAPC  H10Y 2383   0.589   0.959   9.136  0.4463 -1.3148 -2.1769
   18SAPC  C311 2384   0.640   1.034   8.939  0.0651  1.0142 -0.0912
   18SAPC  H11X 2385   0.562   0.969   8.893 -1.0657  3.7526 -2.3527
   18SAPC  H11Y 2386   0.740   0.994   8.912 -0.8346 -2.1529  0.7969
   18SAPC  C312 2387   0.641   1.154   8.856  0.6942 -0.2367 -0.2598
   18SAPC  H12X 2388   0.732   1.213   8.882 -0.2062  1.3379 -0.5696
   18SAPC  H12Y 2389   0.549   1.212   8.878  1.2531  0.7507 -0.4512
   18SAPC  C313 2390   0.653   1.112   8.704 -0.0192  0.0355 -0.3413
   18SAPC  H13X 2391   0.576   1.035   8.684  0.3149 -0.1750 -0.8374
   18SAPC  H13Y 2392   0.753   1.068   8.687 -0.5837 -1.4686  0.0749
   18SAPC  C314 2393   0.623   1.228   8.612  0.2026  0.2051 -0.8286
   18SAPC  H14X 2394   0.703   1.301   8.636 -0.2349  0.7183 -0.9165
   18SAPC  H14Y 2395   0.528   1.277   8.642  0.8286  0.1557  1.4344
   18SAPC  C315 2396   0.624   1.193   8.459 -0.0973  0.0998 -0.4020
   18SAPC  H15X 2397   0.542   1.121   8.441  1.5021 -1.3544 -2.2583
   18SAPC  H15Y 2398   0.713   1.130   8.441  0.3296  0.7188 -0.4878
   18SAPC  C316 2399   0.631   1.309   8.363 -0.5919  0.0548  0.7409
   18SAPC  H16X 2400   0.624   1.260   8.264 -3.1558 -0.4636  1.1040
   18SAPC  H16Y 2401   0.733   1.352   8.362  0.2793 -1.8921  1.5698
   18SAPC  C317 2402   0.530   1.424   8.372 -0.2570 -0.2073 -0.1311
   18SAPC  H17X 2403   0.557   1.498   8.450 -0.8205  1.7928 -1.7473
   18SAPC  H17Y 2404   0.426   1.389   8.392 -0.6272  0.9193  0.0093
   18SAPC  C318 2405   0.529   1.506   8.234 -0.3968  0.1184 -0.0688
   18SAPC  H18X 2406   0.468   1.599   8.239  3.3043  2.8196 -0.8794
   18SAPC  H18Y 2407   0.490   1.449   8.147  0.8290 -0.5134 -0.2260
   18SAPC  H18Z 2408   0.629   1.543   8.203 -0.5160  0.6764  0.1905
   19SAPC     N 2409   5.878   4.215  10.830  0.3888 -0.0751  0.3511
   19SAPC   C12 2410   6.014   4.267  10.788 -0.1806  0.4378 -0.1057
   19SAPC  H12A 2411   6.083   4.190  10.819 -1.0213 -1.0140 -1.6569
   19SAPC  H12B 2412   6.036   4.354  10.847  0.9245  0.2389 -0.1944
   19SAPC   C13 2413   5.838   4.098  10.742 -0.4668 -0.1604  0.2907
   19SAPC  H13A 2414   5.737   4.065  10.765 -0.2824 -0.6388  0.4224
   19SAPC  H13B 2415   5.846   4.131  10.640 -1.4506 -2.3011 -0.5592
   19SAPC  H13C 2416   5.918   4.026  10.751  1.5592  1.9127 -0.1822
   19SAPC   C14 2417   5.870   4.173  10.973  0.6506  0.5848  0.3612
   19SAPC  H14A 2418   5.928   4.083  10.980 -0.8204 -0.3599  0.7713
   19SAPC  H14B 2419   5.909   4.247  11.041  1.3803 -0.3968  1.0389
   19SAPC  H14C 2420   5.768   4.148  10.999  0.6507 -0.4582 -0.5706
   19SAPC   C15 2421   5.759   4.316  10.810 -0.0957 -0.0261  0.3231
   19SAPC  H15A 2422   5.789   4.417  10.832 -1.5136  0.2781  0.9419
   19SAPC  H15B 2423   5.730   4.310  10.706  0.5066  0.1753  0.1393
   19SAPC  H15C 2424   5.679   4.290  10.876  0.4726 -2.7540  0.0820
   19SAPC   C11 2425   6.045   4.303  10.633  0.5495 -0.1846 -0.8148
   19SAPC  H11A 2426   6.154   4.326  10.624  0.3072  0.6636 -1.7183
   19SAPC  H11B 2427   5.997   4.396  10.597  1.2645  0.3198 -0.4976
   19SAPC     P 2428   6.109   4.084  10.517 -0.1750  0.1982  0.2155
   19SAPC   O13 2429   6.142   4.010  10.641  0.3831 -0.2037  0.1458
   19SAPC   O14 2430   6.047   3.996  10.409 -0.3055  0.6277 -0.5466
   19SAPC   O12 2431   6.009   4.202  10.552 -0.0537  0.0427 -0.5266
   19SAPC   O11 2432   6.231   4.153  10.447 -0.1672  0.4039  0.2959
   19SAPC    C1 2433   6.215   4.257  10.346  0.3546  0.0321  0.4540
   19SAPC    HA 2434   6.109   4.272  10.317  0.3977  1.2660  0.8856
   19SAPC    HB 2435   6.241   4.356  10.391 -2.0713  1.1829 -0.4541
   19SAPC    C2 2436   6.293   4.229  10.216 -1.0169 -0.4285 -0.7052
   19SAPC    HS 2437   6.397   4.197  10.240  0.3186  2.6445 -1.8642
   19SAPC   O21 2438   6.305   4.342  10.121 -0.1706  0.3432 -0.4483
   19SAPC   C21 2439   6.396   4.430  10.152  0.2653 -0.4686 -0.2284
   19SAPC   O22 2440   6.474   4.425  10.245  0.0475 -0.8885  0.4122
   19SAPC   C22 2441   6.391   4.537  10.049  0.3277 -0.0308 -0.5484
   19SAPC   H2R 2442   6.311   4.610  10.072  0.8700 -0.1053  1.8038
   19SAPC   H2S 2443   6.482   4.601  10.055 -0.7808  1.7367 -1.4997
   19SAPC    C3 2444   6.232   4.108  10.143  1.1109  0.2104  0.4525
   19SAPC    HX 2445   6.125   4.106  10.171  0.8797 -0.2954 -0.4346
   19SAPC    HY 2446   6.269   4.017  10.195 -0.3663 -1.2866 -1.0017
   19SAPC   O31 2447   6.249   4.100   9.997  0.0856  0.6407  1.1942
   19SAPC   C31 2448   6.374   4.103   9.958  0.9166  0.0511  0.2660
   19SAPC   O32 2449   6.477   4.101  10.024 -0.2758 -0.2822  0.1030
   19SAPC   C32 2450   6.380   4.124   9.812 -0.2391 -0.4253  0.0194
   19SAPC   H2X 2451   6.482   4.161   9.793 -0.2872  1.7304  3.2200
   19SAPC   H2Y 2452   6.304   4.198   9.781 -0.7498 -0.0679  1.9521
   19SAPC   C23 2453   6.355   4.493   9.905  0.0619  0.6523 -0.1331
   19SAPC   H3R 2454   6.327   4.590   9.859 -0.0554  1.2959  1.2433
   19SAPC   H3S 2455   6.268   4.423   9.908  0.4002  0.2697  2.0621
   19SAPC   C24 2456   6.476   4.432   9.829  0.9204 -0.6158  0.7049
   19SAPC   H4R 2457   6.429   4.394   9.736 -4.9831  0.0383  3.0186
   19SAPC   H4S 2458   6.520   4.348   9.888  0.1650  0.9964  3.7836
   19SAPC   C25 2459   6.582   4.533   9.804 -0.3496 -1.1248 -0.1163
   19SAPC   H5R 2460   6.622   4.577   9.897  0.8049 -0.9719 -0.6672
   19SAPC   C26 2461   6.629   4.576   9.686 -0.7518 -0.8439 -0.4269
   19SAPC   H6R 2462   6.682   4.673   9.684 -3.5953  0.8160 -0.7618
   19SAPC   C27 2463   6.579   4.531   9.552  0.1325 -0.5685 -0.0394
   19SAPC   H7R 2464   6.540   4.428   9.563 -1.8378  0.1019 -0.3328
   19SAPC   H7S 2465   6.666   4.518   9.484  1.8853  1.7602  1.5625
   19SAPC   C28 2466   6.468   4.616   9.485  0.4044  0.4556 -0.2106
   19SAPC   H8R 2467   6.385   4.655   9.546 -0.2617  0.4361 -1.0858
   19SAPC   C29 2468   6.461   4.652   9.358  0.2138 -0.9373  0.1485
   19SAPC   H9R 2469   6.362   4.683   9.321  1.1235 -0.3846 -1.9501
   19SAPC  C210 2470   6.565   4.625   9.255 -0.6313 -0.3563  0.5106
   19SAPC  H10R 2471   6.666   4.622   9.301 -0.0750  0.2354 -0.6426
   19SAPC  H10S 2472   6.566   4.704   9.177 -1.3169 -0.0884  0.7657
   19SAPC  C211 2473   6.522   4.491   9.195 -0.7208  0.2398 -0.1234
   19SAPC  H11R 2474   6.508   4.421   9.278 -1.0507  1.8197  1.1981
   19SAPC  C212 2475   6.499   4.456   9.068  0.2240  0.0808  0.3456
   19SAPC  H12R 2476   6.481   4.352   9.038 -1.2016  0.6222 -0.7465
   19SAPC  C213 2477   6.513   4.550   8.948  0.0590 -0.1753  0.7292
   19SAPC  H13R 2478   6.610   4.603   8.961 -0.7508  1.4770  0.2361
   19SAPC  H13S 2479   6.440   4.633   8.949 -0.9004 -0.8703  4.6046
   19SAPC  C214 2480   6.493   4.479   8.815  0.1653  0.1026  0.0369
   19SAPC  H14R 2481   6.387   4.478   8.784  0.2052  1.0563 -0.1554
   19SAPC  C215 2482   6.583   4.437   8.725  0.3785 -0.1119 -0.5464
   19SAPC  H15R 2483   6.557   4.382   8.633  0.8015  0.7852 -1.2104
   19SAPC  C216 2484   6.730   4.446   8.741 -0.1211  0.0592  0.6759
   19SAPC  H16R 2485   6.770   4.375   8.665 -4.0166  0.0424 -1.6323
   19SAPC  H16S 2486   6.771   4.421   8.841  1.2483 -0.8733 -0.0952
   19SAPC  C217 2487   6.783   4.587   8.707 -0.7007  0.2337 -0.1444
   19SAPC  H17R 2488   6.727   4.662   8.767 -0.3393 -0.2886  0.8601
   19SAPC  H17S 2489   6.750   4.609   8.603  0.4926  1.6859 -0.2465
   19SAPC  C218 2490   6.935   4.596   8.699 -0.1913  0.7594 -0.4725
   19SAPC  H18R 2491   6.965   4.491   8.680 -2.3353 -0.2210  1.2075
   19SAPC  H18S 2492   6.986   4.624   8.794 -2.1378 -0.0352  0.8574
   19SAPC  C219 2493   6.981   4.702   8.594 -0.5582  0.5816  0.0812
   19SAPC  H19R 2494   6.941   4.799   8.630 -4.6318 -0.4612 -1.1794
   19SAPC  H19S 2495   6.953   4.679   8.489 -0.3927 -1.6419  0.4659
   19SAPC  C220 2496   7.138   4.710   8.601 -0.3812 -0.4112 -0.1318
   19SAPC  H20R 2497   7.176   4.737   8.702  0.6418 -0.4284 -0.5036
   19SAPC  H20S 2498   7.183   4.771   8.521 -1.0764  0.1784 -0.0839
   19SAPC  H20T 2499   7.181   4.610   8.578  3.2205  0.9690 -0.0217
   19SAPC   C33 2500   6.359   4.000   9.725 -0.2730 -0.2494 -1.2559
   19SAPC   H3X 2501   6.266   3.945   9.752  0.5825 -1.2278 -0.2119
   19SAPC   H3Y 2502   6.445   3.930   9.737  1.0418  0.8855 -3.4084
   19SAPC   C34 2503   6.351   4.016   9.578  1.1560 -0.2738  0.5219
   19SAPC   H4X 2504   6.252   4.064   9.564  0.7873 -0.9277  0.8794
   19SAPC   H4Y 2505   6.354   3.919   9.524  0.1226  0.5757 -1.1553
   19SAPC   C35 2506   6.458   4.107   9.511  0.5157 -0.5486 -0.1225
   19SAPC   H5X 2507   6.561   4.070   9.533  1.0617  0.6140 -0.6409
   19SAPC   H5Y 2508   6.459   4.201   9.571  0.4293 -0.9153  0.4645
   19SAPC   C36 2509   6.459   4.132   9.364 -0.4686  0.5146  0.3077
   19SAPC   H6X 2510   6.556   4.186   9.356  0.4310 -0.5223  3.0350
   19SAPC   H6Y 2511   6.370   4.194   9.337 -0.7309 -0.3118 -0.7846
   19SAPC   C37 2512   6.444   4.004   9.281 -0.1041 -0.1840 -0.1215
   19SAPC   H7X 2513   6.337   3.973   9.284 -0.0971 -0.1207  2.3216
   19SAPC   H7Y 2514   6.492   3.913   9.324  2.0527 -0.8424 -3.5251
   19SAPC   C38 2515   6.480   4.032   9.136  0.1766  0.3936  1.1773
   19SAPC   H8X 2516   6.588   4.055   9.126 -0.0454  0.5426 -1.9415
   19SAPC   H8Y 2517   6.427   4.123   9.102 -0.4217 -0.4129 -0.1423
   19SAPC   C39 2518   6.459   3.915   9.030  0.1810  0.2458  0.9109
   19SAPC   H9X 2519   6.353   3.880   9.033 -0.2156  1.4114  1.2383
   19SAPC   H9Y 2520   6.519   3.830   9.068 -2.0036 -1.6115  0.4531
   19SAPC  C310 2521   6.504   3.953   8.885  0.0245  1.1240 -0.0709
   19SAPC  H10X 2522   6.605   3.997   8.904 -0.4505  2.1040  0.2518
   19SAPC  H10Y 2523   6.448   4.028   8.826 -0.5485  0.2458 -0.6635
   19SAPC  C311 2524   6.515   3.823   8.796 -0.3209  0.0447  0.0764
   19SAPC  H11X 2525   6.609   3.768   8.820 -0.4082  0.5722  1.7323
   19SAPC  H11Y 2526   6.531   3.854   8.690  0.8243 -2.2931 -0.5092
   19SAPC  C312 2527   6.398   3.721   8.807 -0.4845  0.0906  0.3457
   19SAPC  H12X 2528   6.307   3.783   8.791 -1.0901 -0.9538 -0.4384
   19SAPC  H12Y 2529   6.391   3.675   8.908  1.9480  0.4710  0.7294
   19SAPC  C313 2530   6.400   3.606   8.707 -0.6009  0.8295 -0.1297
   19SAPC  H13X 2531   6.475   3.533   8.744 -0.4723  0.6513 -0.7386
   19SAPC  H13Y 2532   6.438   3.655   8.614  0.9497 -0.4954 -0.2390
   19SAPC  C314 2533   6.265   3.538   8.686  0.9369  0.8805  0.1408
   19SAPC  H14X 2534   6.191   3.612   8.650 -0.2236 -0.0189  0.6445
   19SAPC  H14Y 2535   6.222   3.499   8.780 -0.8303  0.3382 -0.8367
   19SAPC  C315 2536   6.274   3.418   8.593 -0.0118  0.1719 -0.7170
   19SAPC  H15X 2537   6.307   3.437   8.489 -0.1189  0.0675 -0.7704
   19SAPC  H15Y 2538   6.167   3.387   8.594 -1.3601  3.9521  2.6980
   19SAPC  C316 2539   6.362   3.301   8.631 -0.0624  0.1097 -0.0614
   19SAPC  H16X 2540   6.327   3.258   8.728 -0.8405 -0.0345 -0.4045
   19SAPC  H16Y 2541   6.470   3.316   8.652 -0.2428  0.2939  0.7848
   19SAPC  C317 2542   6.369   3.189   8.533  0.6801 -0.5355 -0.0500
   19SAPC  H17X 2543   6.404   3.217   8.432  1.7452 -0.6551  0.2710
   19SAPC  H17Y 2544   6.273   3.133   8.532 -0.2299  0.8108  2.5428
   19SAPC  C318 2545   6.469   3.076   8.572  0.6222  0.4668  0.2268
   19SAPC  H18X 2546   6.462   3.046   8.679  1.7481 -3.3079 -0.5816
   19SAPC  H18Y 2547   6.573   3.112   8.558  0.3808  0.5612 -1.4559
   19SAPC  H18Z 2548   6.450   3.004   8.490 -1.4614  1.5731 -0.3201
   20SAPC     N 2549   5.033   5.560  10.762 -0.1913  0.0015 -0.3394
   20SAPC   C12 2550   5.139   5.568  10.658 -0.1881 -0.0205  0.0067
   20SAPC  H12A 2551   5.147   5.672  10.630  0.2012  0.2300  1.0061
   20SAPC  H12B 2552   5.094   5.518  10.573 -1.2628 -1.7013  1.5025
   20SAPC   C13 2553   4.915   5.629  10.704 -0.3246 -0.1842 -0.1395
   20SAPC  H13A 2554   4.920   5.737  10.703 -1.9369 -0.0893 -0.7472
   20SAPC  H13B 2555   4.911   5.585  10.606 -0.6832 -1.5555  0.4594
   20SAPC  H13C 2556   4.816   5.602  10.739 -0.5599 -1.7125 -1.8301
   20SAPC   C14 2557   5.000   5.419  10.794 -0.1838  0.7091 -0.3832
   20SAPC  H14A 2558   5.082   5.357  10.826  0.3908  2.1422  1.0812
   20SAPC  H14B 2559   4.929   5.415  10.876 -2.3134  3.2363 -1.9490
   20SAPC  H14C 2560   4.949   5.364  10.716  0.8946  1.6310 -1.7837
   20SAPC   C15 2561   5.063   5.632  10.892 -0.3052  0.3513 -0.6785
   20SAPC  H15A 2562   5.159   5.605  10.931 -0.3746  1.3230  0.1930
   20SAPC  H15B 2563   5.071   5.739  10.876  0.2679  0.6896  1.6100
   20SAPC  H15C 2564   4.985   5.617  10.965 -0.1837  2.5879  0.0055
   20SAPC   C11 2565   5.279   5.516  10.695 -0.2142  0.4716  0.1762
   20SAPC  H11A 2566   5.339   5.506  10.603 -0.4900 -0.9563  0.1258
   20SAPC  H11B 2567   5.269   5.411  10.731 -0.5694  0.5520  0.3184
   20SAPC     P 2568   5.410   5.727  10.785 -0.1080 -0.2631  0.3495
   20SAPC   O13 2569   5.359   5.818  10.888 -1.0256 -0.2712  0.0940
   20SAPC   O14 2570   5.552   5.697  10.796 -0.0341  0.2004  0.2893
   20SAPC   O12 2571   5.334   5.584  10.809 -0.2701  0.0176 -0.0688
   20SAPC   O11 2572   5.371   5.778  10.644 -0.0664 -0.1154  0.1500
   20SAPC    C1 2573   5.460   5.771  10.532 -0.5499  0.2031  0.2704
   20SAPC    HA 2574   5.499   5.669  10.510  1.9488  1.2055 -0.2677
   20SAPC    HB 2575   5.405   5.790  10.437 -1.9998 -0.4764  0.9435
   20SAPC    C2 2576   5.577   5.874  10.543 -0.0298  0.1751 -0.4068
   20SAPC    HS 2577   5.607   5.866  10.650 -0.0941 -2.2495 -0.5224
   20SAPC   O21 2578   5.517   6.006  10.524 -0.0850 -0.6458  0.0641
   20SAPC   C21 2579   5.605   6.103  10.548 -0.7407  0.2692 -0.7367
   20SAPC   O22 2580   5.720   6.084  10.599  0.1738  0.3909  0.2370
   20SAPC   C22 2581   5.532   6.234  10.522  0.4132 -0.5536  0.3024
   20SAPC   H2R 2582   5.426   6.226  10.554 -0.0670  2.6616 -0.1732
   20SAPC   H2S 2583   5.574   6.316  10.583  1.0829 -1.8189  1.5831
   20SAPC    C3 2584   5.683   5.841  10.439  0.4535  0.4895 -0.3087
   20SAPC    HX 2585   5.719   5.738  10.462 -1.9381 -0.3441  0.0153
   20SAPC    HY 2586   5.770   5.907  10.459  1.3434 -0.7176 -0.1128
   20SAPC   O31 2587   5.625   5.844  10.305 -0.0803  0.4214  0.0301
   20SAPC   C31 2588   5.709   5.892  10.212 -0.7056  0.2215  0.3907
   20SAPC   O32 2589   5.815   5.950  10.238  0.0534 -0.2616 -0.9511
   20SAPC   C32 2590   5.644   5.900  10.072 -0.1678  0.0629  0.0995
   20SAPC   H2X 2591   5.533   5.904  10.079 -0.2924 -2.0263 -0.0689
   20SAPC   H2Y 2592   5.659   5.798  10.030  2.0783  0.3826 -0.0129
   20SAPC   C23 2593   5.538   6.273  10.371  0.1364 -0.2508  0.4451
   20SAPC   H3R 2594   5.460   6.350  10.353 -2.1611 -2.0959  1.9673
   20SAPC   H3S 2595   5.500   6.184  10.317 -0.2691  1.9098 -3.1017
   20SAPC   C24 2596   5.675   6.314  10.320 -0.1308 -0.7500  0.4694
   20SAPC   H4R 2597   5.672   6.338  10.212 -1.6738  3.0481  1.1824
   20SAPC   H4S 2598   5.735   6.221  10.329  0.1267 -0.5814  0.5286
   20SAPC   C25 2599   5.751   6.417  10.405 -0.0059  0.1602 -0.6011
   20SAPC   H5R 2600   5.774   6.374  10.504  1.4390 -2.0239 -1.8004
   20SAPC   C26 2601   5.791   6.543  10.373  0.7450 -0.4353 -0.0981
   20SAPC   H6R 2602   5.835   6.612  10.446  0.2872  0.2543 -0.4723
   20SAPC   C27 2603   5.771   6.615  10.246 -0.1935  0.5311  0.6311
   20SAPC   H7R 2604   5.729   6.714  10.275  3.3501  1.9257  1.4698
   20SAPC   H7S 2605   5.696   6.574  10.174 -0.5682  1.4428  0.4820
   20SAPC   C28 2606   5.895   6.645  10.162 -0.1376 -0.1798  0.6348
   20SAPC   H8R 2607   5.991   6.625  10.213  1.3472 -0.8098 -2.1629
   20SAPC   C29 2608   5.908   6.683  10.030 -0.2261 -0.0090 -0.0921
   20SAPC   H9R 2609   6.012   6.693   9.995 -0.0605 -2.7735 -0.5678
   20SAPC  C210 2610   5.786   6.693   9.937  0.3169 -0.0335  0.0052
   20SAPC  H10R 2611   5.700   6.708  10.006  0.1477  0.4328 -0.3016
   20SAPC  H10S 2612   5.778   6.591   9.893  0.2374 -0.0395  0.0337
   20SAPC  C211 2613   5.794   6.808   9.832  0.3944  0.4459 -0.3645
   20SAPC  H11R 2614   5.802   6.907   9.878  0.7632  1.1154 -1.8021
   20SAPC  C212 2615   5.796   6.808   9.694 -0.5324  0.3265  0.9770
   20SAPC  H12R 2616   5.784   6.903   9.639  0.5777  0.1492  0.3927
   20SAPC  C213 2617   5.818   6.684   9.610  0.1529  0.4697  0.1670
   20SAPC  H13R 2618   5.721   6.646   9.570  0.5829 -0.7181  0.2337
   20SAPC  H13S 2619   5.857   6.605   9.677 -0.7115 -0.9788 -0.9823
   20SAPC  C214 2620   5.923   6.696   9.505  0.3052  0.3076  0.2082
   20SAPC  H14R 2621   6.025   6.657   9.516  0.2278  0.0348 -0.0243
   20SAPC  C215 2622   5.892   6.742   9.384 -0.0962  0.2520  0.7225
   20SAPC  H15R 2623   5.971   6.745   9.308 -1.2614  0.3983 -0.5205
   20SAPC  C216 2624   5.757   6.790   9.329 -1.1384  0.7090 -0.2252
   20SAPC  H16R 2625   5.767   6.882   9.269 -0.6127  2.1055  1.8809
   20SAPC  H16S 2626   5.692   6.824   9.412  1.9701 -0.7295  3.0935
   20SAPC  C217 2627   5.688   6.679   9.253  0.7023  0.2238  0.3176
   20SAPC  H17R 2628   5.654   6.597   9.320  0.3222 -0.2561 -0.4514
   20SAPC  H17S 2629   5.748   6.645   9.166  1.0326  0.6027  0.3971
   20SAPC  C218 2630   5.555   6.735   9.193 -0.0070  0.5480  0.1528
   20SAPC  H18R 2631   5.573   6.817   9.120 -1.3037  0.7113 -0.0214
   20SAPC  H18S 2632   5.495   6.777   9.277  1.3535  1.2140  0.8295
   20SAPC  C219 2633   5.475   6.634   9.122  0.3349  0.4563 -0.3848
   20SAPC  H19R 2634   5.442   6.552   9.189 -0.2604  0.4988 -0.6227
   20SAPC  H19S 2635   5.526   6.584   9.037 -0.4223 -0.3218 -0.3984
   20SAPC  C220 2636   5.343   6.701   9.085  0.4764 -0.4483  0.2507
   20SAPC  H20R 2637   5.266   6.632   9.044 -2.1989  2.7013 -0.4679
   20SAPC  H20S 2638   5.346   6.775   9.002  2.4049 -0.5087  0.2079
   20SAPC  H20T 2639   5.315   6.761   9.174  2.2414  1.3425 -0.3106
   20SAPC   C33 2640   5.700   6.018   9.982 -0.0099  0.6050  0.4058
   20SAPC   H3X 2641   5.811   6.014   9.984 -0.0542 -1.7511  0.5788
   20SAPC   H3Y 2642   5.678   6.117  10.027 -1.7802 -1.1735  3.8669
   20SAPC   C34 2643   5.655   6.010   9.834 -0.2047  0.0717  0.1026
   20SAPC   H4X 2644   5.678   5.908   9.798  1.4187  0.6900 -0.6734
   20SAPC   H4Y 2645   5.722   6.081   9.782  1.1947  0.3226  2.1139
   20SAPC   C35 2646   5.506   6.059   9.810  0.4631 -0.0113  0.0462
   20SAPC   H5X 2647   5.454   6.057   9.909 -2.6704 -3.2027 -1.4320
   20SAPC   H5Y 2648   5.451   5.977   9.760  0.3795 -0.5887  1.0489
   20SAPC   C36 2649   5.494   6.193   9.731 -0.2310  0.4393  0.4714
   20SAPC   H6X 2650   5.389   6.199   9.695  1.0313  2.0635 -3.4854
   20SAPC   H6Y 2651   5.565   6.182   9.646  0.9949 -2.3607  1.7253
   20SAPC   C37 2652   5.520   6.321   9.824 -0.0464 -0.4266 -0.3658
   20SAPC   H7X 2653   5.617   6.310   9.878 -0.3783  0.4916  0.4612
   20SAPC   H7Y 2654   5.435   6.315   9.895  0.1243  0.3312 -0.0887
   20SAPC   C38 2655   5.512   6.449   9.746  0.4009 -0.0917  0.1962
   20SAPC   H8X 2656   5.608   6.452   9.691  2.3282 -1.9535  3.1945
   20SAPC   H8Y 2657   5.523   6.539   9.809 -1.4781  1.8825 -2.0986
   20SAPC   C39 2658   5.396   6.466   9.654 -0.2041  0.3745  0.0223
   20SAPC   H9X 2659   5.303   6.442   9.711 -0.6147 -1.5899 -1.3749
   20SAPC   H9Y 2660   5.394   6.386   9.577 -1.1883 -0.9659  1.3712
   20SAPC  C310 2661   5.400   6.603   9.581 -0.0713 -0.3761  0.1852
   20SAPC  H10X 2662   5.479   6.610   9.502 -2.5060 -1.8284 -2.5845
   20SAPC  H10Y 2663   5.397   6.683   9.658 -4.1136 -1.7154  1.6262
   20SAPC  C311 2664   5.279   6.627   9.496  0.4310 -0.1175  0.5125
   20SAPC  H11X 2665   5.269   6.561   9.407 -0.0419 -0.2823  0.6868
   20SAPC  H11Y 2666   5.281   6.729   9.452  0.3282 -0.5677 -0.5610
   20SAPC  C312 2667   5.147   6.613   9.568 -0.0025  0.0056 -0.2257
   20SAPC  H12X 2668   5.134   6.691   9.646 -0.7579  0.6729 -1.0053
   20SAPC  H12Y 2669   5.142   6.511   9.613  0.4464  0.2687  0.4332
   20SAPC  C313 2670   5.024   6.619   9.482 -0.6551  0.3770  0.7860
   20SAPC  H13X 2671   4.932   6.629   9.543 -0.2435 -1.1855  1.7309
   20SAPC  H13Y 2672   5.018   6.523   9.427 -1.2405 -0.0835  1.6317
   20SAPC  C314 2673   5.042   6.737   9.382  1.2021 -0.2871  0.7979
   20SAPC  H14X 2674   5.122   6.717   9.307 -0.4457 -1.8977 -0.6379
   20SAPC  H14Y 2675   5.074   6.827   9.438 -0.2417 -0.7632  2.4564
   20SAPC  C315 2676   4.906   6.752   9.311  0.4844  0.1119 -0.4052
   20SAPC  H15X 2677   4.839   6.792   9.390  0.7616  1.3362 -0.7655
   20SAPC  H15Y 2678   4.868   6.656   9.271 -0.2899  0.7025 -1.1416
   20SAPC  C316 2679   4.925   6.854   9.196 -0.3797  0.0834 -0.0503
   20SAPC  H16X 2680   4.995   6.813   9.120  0.3213  0.6613  0.2680
   20SAPC  H16Y 2681   4.968   6.948   9.237  3.3513  0.0459 -3.2941
   20SAPC  C317 2682   4.797   6.876   9.112 -0.2442 -0.4420 -0.2049
   20SAPC  H17X 2683   4.726   6.943   9.165 -0.0196 -0.8300  0.6010
   20SAPC  H17Y 2684   4.748   6.780   9.084  1.1992 -0.9634 -1.0686
   20SAPC  C318 2685   4.835   6.937   8.975  0.2899 -0.9220  0.1114
   20SAPC  H18X 2686   4.883   7.036   8.988  1.2194 -1.1229 -1.5646
   20SAPC  H18Y 2687   4.749   6.953   8.908  0.7227 -1.1804 -0.5213
   20SAPC  H18Z 2688   4.904   6.877   8.911 -1.7089 -2.2877 -0.8533
   21SAPC     N 2689   0.016   4.538  10.711  0.4125 -0.3494  0.3792
   21SAPC   C12 2690   0.089   4.610  10.824 -0.0243 -0.2617 -0.7108
   21SAPC  H12A 2691   0.178   4.654  10.780 -0.6173  2.0968  0.3143
   21SAPC  H12B 2692   0.110   4.545  10.907 -1.3295 -0.6866 -0.6854
   21SAPC   C13 2693  -0.117   4.487  10.761  0.2376 -0.1928  0.7222
   21SAPC  H13A 2694  -0.180   4.453  10.680  1.6807  0.4988 -0.7413
   21SAPC  H13B 2695  -0.102   4.403  10.827  1.8086 -0.2760  0.2974
   21SAPC  H13C 2696  -0.181   4.565  10.799  2.0165  0.8746  1.6699
   21SAPC   C14 2697  -0.003   4.626  10.590  0.6448  0.0925 -0.9897
   21SAPC  H14A 2698  -0.054   4.575  10.510 -1.0875  0.9203 -0.4509
   21SAPC  H14B 2699  -0.051   4.721  10.610  0.6017 -0.4482  1.9936
   21SAPC  H14C 2700   0.093   4.656  10.550  1.7012 -0.8899  0.6833
   21SAPC   C15 2701   0.109   4.422  10.669  0.1526  0.2877  0.2432
   21SAPC  H15A 2702   0.211   4.458  10.660 -0.2998  1.4143 -0.7415
   21SAPC  H15B 2703   0.101   4.341  10.740  1.4747  0.3832  0.5281
   21SAPC  H15C 2704   0.072   4.382  10.576 -0.9026 -0.7667  1.0907
   21SAPC   C11 2705   0.015   4.737  10.882  0.2423  0.4493  0.1304
   21SAPC  H11A 2706   0.067   4.763  10.977  0.5038 -0.5598  0.2781
   21SAPC  H11B 2707  -0.089   4.708  10.911  0.0868  1.3632  0.5333
   21SAPC     P 2708   0.134   4.928  10.766 -0.2387 -0.2425  0.6205
   21SAPC   O13 2709   0.142   5.028  10.871  0.0997  0.0673 -0.2445
   21SAPC   O14 2710   0.252   4.834  10.738  0.7835 -0.0966  0.2053
   21SAPC   O12 2711   0.001   4.842  10.788 -0.1566 -0.2731  0.5355
   21SAPC   O11 2712   0.112   5.014  10.633  0.7445 -0.2147 -0.1160
   21SAPC    C1 2713   0.122   4.958  10.502 -0.2220  0.2848 -0.0451
   21SAPC    HA 2714   0.221   4.978  10.457  0.3639 -0.5288  0.8457
   21SAPC    HB 2715   0.114   4.848  10.502  1.1632  0.1527 -1.9679
   21SAPC    C2 2716   0.010   5.016  10.408 -0.3231 -0.2044 -0.1122
   21SAPC    HS 2717   0.022   4.972  10.307 -1.1591 -0.7665  0.0164
   21SAPC   O21 2718   0.023   5.160  10.406 -0.0996  0.4088  0.0937
   21SAPC   C21 2719   0.135   5.200  10.347 -0.2621  0.0053  0.1797
   21SAPC   O22 2720   0.193   5.132  10.260  0.0721 -0.1667  0.3192
   21SAPC   C22 2721   0.170   5.335  10.399  0.7605  0.0080  0.9491
   21SAPC   H2R 2722   0.074   5.389  10.420 -0.4391 -0.5813 -2.3370
   21SAPC   H2S 2723   0.232   5.324  10.490  0.2183 -3.4966  1.0360
   21SAPC    C3 2724  -0.125   4.971  10.459  0.2428  0.0168 -0.2397
   21SAPC    HX 2725  -0.132   5.027  10.555  1.9490  1.3099 -0.8017
   21SAPC    HY 2726  -0.117   4.864  10.487  1.2967 -0.5335 -2.4649
   21SAPC   O31 2727  -0.220   5.006  10.356 -0.5412 -1.0925  0.1188
   21SAPC   C31 2728  -0.232   4.916  10.262 -0.1447 -1.3654 -0.5561
   21SAPC   O32 2729  -0.169   4.816  10.254  0.0765  0.4111 -0.1366
   21SAPC   C32 2730  -0.348   4.953  10.172  0.1784 -0.1203 -0.4065
   21SAPC   H2X 2731  -0.375   5.060  10.177  0.4672 -0.0978  1.0542
   21SAPC   H2Y 2732  -0.430   4.885  10.203  1.7977 -1.9118  0.1757
   21SAPC   C23 2733   0.244   5.419  10.294  0.1090  0.0512 -0.0144
   21SAPC   H3R 2734   0.338   5.366  10.268 -1.2011 -1.6874 -1.4649
   21SAPC   H3S 2735   0.276   5.513  10.344  0.6465  0.0792 -0.3908
   21SAPC   C24 2736   0.156   5.453  10.173 -0.2447  0.9584 -0.8518
   21SAPC   H4R 2737   0.061   5.487  10.219  0.1651 -2.2353  2.9294
   21SAPC   H4S 2738   0.139   5.365  10.107  0.3685  0.1463  0.0398
   21SAPC   C25 2739   0.229   5.572  10.097  0.4477 -0.0872 -0.0181
   21SAPC   H5R 2740   0.241   5.663  10.157  2.0142 -1.1818  1.4090
   21SAPC   C26 2741   0.274   5.568   9.975 -0.0356 -0.4623  1.0184
   21SAPC   H6R 2742   0.304   5.659   9.920 -0.1379 -1.6906 -1.1914
   21SAPC   C27 2743   0.269   5.454   9.886 -0.5594  1.0686  0.8539
   21SAPC   H7R 2744   0.300   5.358   9.934  0.7825  1.5797  1.0637
   21SAPC   H7S 2745   0.353   5.467   9.814 -2.2925  1.0454 -1.2950
   21SAPC   C28 2746   0.142   5.445   9.803  0.0670  0.9690  0.6607
   21SAPC   H8R 2747   0.051   5.424   9.861 -0.1452 -1.9177 -0.5608
   21SAPC   C29 2748   0.120   5.484   9.677  0.0657 -0.3001  0.0456
   21SAPC   H9R 2749   0.022   5.466   9.630 -1.6076  2.4030  2.1484
   21SAPC  C210 2750   0.220   5.540   9.589 -0.1535  0.3057 -0.6682
   21SAPC  H10R 2751   0.272   5.458   9.535  0.9862  1.8637 -2.0164
   21SAPC  H10S 2752   0.298   5.596   9.644  0.7774 -0.5056 -1.1173
   21SAPC  C211 2753   0.155   5.631   9.489 -0.1466  0.3588  0.1846
   21SAPC  H11R 2754   0.094   5.710   9.537 -0.2973 -0.4973  1.4561
   21SAPC  C212 2755   0.183   5.633   9.359  0.5784 -0.2050  0.0142
   21SAPC  H12R 2756   0.131   5.713   9.304 -0.5465 -0.2084  1.0261
   21SAPC  C213 2757   0.284   5.553   9.282 -0.1457  0.7833  0.1799
   21SAPC  H13R 2758   0.372   5.530   9.346 -1.0770 -1.2887  0.7794
   21SAPC  H13S 2759   0.320   5.608   9.192 -0.6154 -1.5374 -1.5059
   21SAPC  C214 2760   0.224   5.420   9.243  0.2529 -0.4598  0.3257
   21SAPC  H14R 2761   0.211   5.355   9.331  1.9816 -2.5691 -0.8465
   21SAPC  C215 2762   0.166   5.383   9.124  0.6757 -0.3078  0.6830
   21SAPC  H15R 2763   0.121   5.284   9.110  1.2590 -0.4487 -0.2687
   21SAPC  C216 2764   0.174   5.469   9.004 -0.0948 -0.0958 -0.2405
   21SAPC  H16R 2765   0.205   5.575   9.016  0.6125  0.1249 -3.2827
   21SAPC  H16S 2766   0.071   5.467   8.963  0.0208  0.7872 -0.5920
   21SAPC  C217 2767   0.270   5.416   8.897 -0.4493  0.3363  0.0499
   21SAPC  H17R 2768   0.244   5.311   8.874  0.0468 -0.3766  2.4921
   21SAPC  H17S 2769   0.375   5.413   8.933  0.0885 -1.8313 -1.4976
   21SAPC  C218 2770   0.247   5.483   8.761 -0.4231 -0.2815  0.0301
   21SAPC  H18R 2771   0.140   5.475   8.736 -0.1081 -0.2585 -1.3939
   21SAPC  H18S 2772   0.307   5.423   8.689  0.4376 -0.3004  0.7356
   21SAPC  C219 2773   0.292   5.629   8.749  0.6457  0.4783  1.1249
   21SAPC  H19R 2774   0.403   5.633   8.742  0.5180  1.3937 -2.0920
   21SAPC  H19S 2775   0.258   5.700   8.828 -1.5096  1.9167 -0.9533
   21SAPC  C220 2776   0.232   5.686   8.621 -0.9166 -0.3697 -0.0059
   21SAPC  H20R 2777   0.234   5.617   8.534 -0.7073  2.3277 -2.2632
   21SAPC  H20S 2778   0.285   5.782   8.603 -1.5386  0.2708  1.4516
   21SAPC  H20T 2779   0.127   5.714   8.639 -0.9936  1.1648 -2.4439
   21SAPC   C33 2780  -0.325   4.916  10.020 -0.3725 -0.1085  0.1141
   21SAPC   H3X 2781  -0.314   4.808   9.999 -1.6653  0.1414 -2.1914
   21SAPC   H3Y 2782  -0.221   4.954  10.011 -0.6029  1.0019  1.6844
   21SAPC   C34 2783  -0.425   4.994   9.933 -1.0428  0.4427  0.5708
   21SAPC   H4X 2784  -0.398   4.982   9.826 -2.4212  0.5688  0.1989
   21SAPC   H4Y 2785  -0.417   5.104   9.949 -1.3171  0.5278  0.1234
   21SAPC   C35 2786  -0.563   4.935   9.953  0.0117 -0.4152  0.5030
   21SAPC   H5X 2787  -0.615   4.967  10.045  0.5300  0.3777  0.5288
   21SAPC   H5Y 2788  -0.546   4.825   9.956  1.3214 -0.2430  0.0014
   21SAPC   C36 2789  -0.658   4.963   9.830  0.0656  1.0657 -0.8686
   21SAPC   H6X 2790  -0.640   5.063   9.785  1.8426  1.9370  1.5817
   21SAPC   H6Y 2791  -0.762   4.966   9.867 -0.3899 -0.5991 -1.9288
   21SAPC   C37 2792  -0.641   4.853   9.725 -0.2105 -0.9751 -0.1332
   21SAPC   H7X 2793  -0.682   4.762   9.774  1.5859 -0.6460  2.1922
   21SAPC   H7Y 2794  -0.535   4.832   9.701  1.4716  2.7674  2.8560
   21SAPC   C38 2795  -0.721   4.878   9.594 -0.2410 -0.0078  0.0754
   21SAPC   H8X 2796  -0.820   4.926   9.612  0.2275  0.8737  0.4017
   21SAPC   H8Y 2797  -0.725   4.781   9.540  1.2774  0.9515 -1.9279
   21SAPC   C39 2798  -0.640   4.972   9.509 -0.3905  0.0985  0.1328
   21SAPC   H9X 2799  -0.541   4.921   9.501 -0.4080 -0.0450  0.7687
   21SAPC   H9Y 2800  -0.622   5.072   9.554  0.3047  0.1841 -0.3137
   21SAPC  C310 2801  -0.704   4.981   9.371 -0.5220 -0.0011 -0.2674
   21SAPC  H10X 2802  -0.682   5.085   9.337  0.1003  0.4387  1.3638
   21SAPC  H10Y 2803  -0.816   4.981   9.370 -0.6096 -2.1330  1.7002
   21SAPC  C311 2804  -0.650   4.879   9.273  0.3576  0.1361  0.6329
   21SAPC  H11X 2805  -0.659   4.774   9.307  2.8948  0.3645  2.2522
   21SAPC  H11Y 2806  -0.540   4.886   9.259  0.4207 -3.6102 -2.2773
   21SAPC  C312 2807  -0.721   4.886   9.135 -0.1984 -0.3311 -0.4741
   21SAPC  H12X 2808  -0.689   4.977   9.081  0.2579  1.5411  2.6924
   21SAPC  H12Y 2809  -0.829   4.893   9.162 -0.1132  2.3781 -0.6267
   21SAPC  C313 2810  -0.684   4.777   9.043 -0.9229  0.7340  0.0100
   21SAPC  H13X 2811  -0.717   4.684   9.094 -1.1742  0.0739 -1.2872
   21SAPC  H13Y 2812  -0.576   4.788   9.019 -1.1973  0.3621 -1.5309
   21SAPC  C314 2813  -0.762   4.777   8.909  0.2552  0.3276 -0.1211
   21SAPC  H14X 2814  -0.744   4.872   8.854  0.6631  0.6697  0.5907
   21SAPC  H14Y 2815  -0.870   4.779   8.935  0.6264  1.2579  1.4409
   21SAPC  C315 2816  -0.710   4.666   8.816 -0.1332  0.3751  0.1252
   21SAPC  H15X 2817  -0.704   4.572   8.875  0.9282 -0.5444 -1.4005
   21SAPC  H15Y 2818  -0.603   4.685   8.793 -0.2028  1.4273  0.6013
   21SAPC  C316 2819  -0.777   4.669   8.682  0.0975 -0.2114  0.1916
   21SAPC  H16X 2820  -0.782   4.772   8.640 -0.1507  0.4404  1.7561
   21SAPC  H16Y 2821  -0.883   4.664   8.716  0.6232 -1.8709  1.8135
   21SAPC  C317 2822  -0.747   4.560   8.584 -0.4204 -0.4132 -0.2401
   21SAPC  H17X 2823  -0.824   4.565   8.504 -1.5435 -0.4360  0.8159
   21SAPC  H17Y 2824  -0.767   4.462   8.633  2.1021  0.0482  1.9073
   21SAPC  C318 2825  -0.603   4.563   8.524 -0.5297 -0.6209 -0.2170
   21SAPC  H18X 2826  -0.525   4.562   8.603 -1.5936 -0.2028  0.8760
   21SAPC  H18Y 2827  -0.591   4.658   8.468 -0.0412 -1.0056 -0.7721
   21SAPC  H18Z 2828  -0.584   4.478   8.454 -0.5416 -0.8449  0.0476
   22SAPC     N 2829   5.150   0.691  10.851 -0.3712 -0.5606  0.4272
   22SAPC   C12 2830   5.286   0.659  10.924  0.3650 -0.2319  0.6873
   22SAPC  H12A 2831   5.261   0.582  10.996 -1.3393 -1.2485 -0.8958
   22SAPC  H12B 2832   5.321   0.742  10.984 -0.3588  1.0037 -0.5361
   22SAPC   C13 2833   5.123   0.591  10.740  0.1056 -0.5832  0.8998
   22SAPC  H13A 2834   5.197   0.594  10.662 -0.5416 -1.3896  0.2298
   22SAPC  H13B 2835   5.128   0.486  10.768 -1.2934 -1.2688 -1.1658
   22SAPC  H13C 2836   5.023   0.597  10.700  0.1165  0.3491  0.9945
   22SAPC   C14 2837   5.036   0.694  10.944 -0.4709  0.7246 -0.0998
   22SAPC  H14A 2838   5.040   0.618  11.022  2.1220  1.2343  0.3663
   22SAPC  H14B 2839   5.025   0.789  10.994 -2.2675  0.5309 -0.0464
   22SAPC  H14C 2840   4.943   0.693  10.889 -0.2344  1.4242 -0.5218
   22SAPC   C15 2841   5.162   0.825  10.787 -0.1743  0.0869  0.1397
   22SAPC  H15A 2842   5.180   0.898  10.865  1.3887  0.0114 -0.1007
   22SAPC  H15B 2843   5.246   0.830  10.720 -1.1812  2.9973 -1.0702
   22SAPC  H15C 2844   5.070   0.852  10.738 -0.0643 -1.1864 -0.8258
   22SAPC   C11 2845   5.406   0.609  10.829 -0.4398 -0.1822  0.2178
   22SAPC  H11A 2846   5.490   0.595  10.900  1.0031  0.6453 -1.2426
   22SAPC  H11B 2847   5.448   0.680  10.755  1.8921 -2.3326 -0.6978
   22SAPC     P 2848   5.472   0.359  10.762  0.8967  0.4297  0.2475
   22SAPC   O13 2849   5.493   0.311  10.901  0.1175  0.2204  0.0671
   22SAPC   O14 2850   5.422   0.260  10.664  0.4946  0.0471  0.1732
   22SAPC   O12 2851   5.376   0.481  10.772 -0.6736 -0.3758  0.0869
   22SAPC   O11 2852   5.606   0.414  10.700 -0.3118  0.1521 -0.2234
   22SAPC    C1 2853   5.617   0.456  10.563 -0.9445  0.4077 -0.7206
   22SAPC    HA 2854   5.526   0.450  10.499 -1.1005 -1.2897 -0.3639
   22SAPC    HB 2855   5.646   0.564  10.563  1.2946 -0.1198 -2.6392
   22SAPC    C2 2856   5.714   0.368  10.474  1.0188 -0.2225  0.2525
   22SAPC    HS 2857   5.734   0.433  10.385  3.1765  0.5614  1.2439
   22SAPC   O21 2858   5.648   0.241  10.444 -0.4888  0.4021 -0.6835
   22SAPC   C21 2859   5.550   0.240  10.353 -0.2717  0.1654 -0.2081
   22SAPC   O22 2860   5.526   0.333  10.283  0.0117 -0.2285  0.3661
   22SAPC   C22 2861   5.484   0.104  10.341 -0.0148 -0.2054  0.7192
   22SAPC   H2R 2862   5.549   0.028  10.389 -0.4439 -0.5973  0.6879
   22SAPC   H2S 2863   5.387   0.099  10.396 -0.0875  0.0214  0.6129
   22SAPC    C3 2864   5.839   0.334  10.540  0.1890 -0.5802  0.1568
   22SAPC    HX 2865   5.820   0.254  10.615 -1.3585 -0.2773  0.1217
   22SAPC    HY 2866   5.877   0.424  10.594 -0.6623 -0.6425  0.9021
   22SAPC   O31 2867   5.938   0.291  10.442  0.1162  0.5578 -0.8404
   22SAPC   C31 2868   5.965   0.162  10.439 -0.5926  1.0321 -0.1323
   22SAPC   O32 2869   5.934   0.072  10.513 -0.3286 -0.4395 -0.0749
   22SAPC   C32 2870   6.034   0.130  10.310 -0.1401  0.0975  0.1638
   22SAPC   H2X 2871   6.004   0.028  10.276 -2.0324  0.4094  0.7527
   22SAPC   H2Y 2872   6.143   0.141  10.328 -0.3120 -0.0121  1.3414
   22SAPC   C23 2873   5.469   0.070  10.188 -0.0654 -0.0697  0.8583
   22SAPC   H3R 2874   5.567   0.078  10.138  0.2016 -0.5434  1.2980
   22SAPC   H3S 2875   5.412   0.150  10.135  1.0411  0.1870  0.0393
   22SAPC   C24 2876   5.412  -0.071  10.160 -0.3434  0.6467  0.1171
   22SAPC   H4R 2877   5.312  -0.063  10.210  0.0197  1.2080  0.7774
   22SAPC   H4S 2878   5.474  -0.143  10.216  1.2582  0.8051 -1.3771
   22SAPC   C25 2879   5.399  -0.104  10.009  0.5910 -0.4812 -0.3168
   22SAPC   H5R 2880   5.494  -0.117   9.953 -0.2732 -3.0806 -1.3439
   22SAPC   C26 2881   5.282  -0.087   9.946  0.7420  0.0592  0.0954
   22SAPC   H6R 2882   5.273  -0.095   9.836  0.4055  2.1704 -0.0731
   22SAPC   C27 2883   5.149  -0.041  10.000 -0.6868  0.4240 -0.2559
   22SAPC   H7R 2884   5.136   0.064   9.970 -0.6391  0.1224 -1.3545
   22SAPC   H7S 2885   5.145  -0.051  10.111  1.3680 -0.0455 -0.1646
   22SAPC   C28 2886   5.034  -0.136   9.956 -0.3275  0.1762  0.8553
   22SAPC   H8R 2887   5.044  -0.241   9.986 -0.2135 -0.2415 -0.5733
   22SAPC   C29 2888   4.925  -0.097   9.883 -0.4606  0.2905 -0.0236
   22SAPC   H9R 2889   4.862  -0.174   9.837  1.5140 -0.1517 -2.1926
   22SAPC  C210 2890   4.885   0.040   9.830  0.5748  0.7819  0.9971
   22SAPC  H10R 2891   4.893   0.049   9.719  0.6304 -0.5588  0.8720
   22SAPC  H10S 2892   4.947   0.110   9.889  0.5836 -1.2545  3.6052
   22SAPC  C211 2893   4.749   0.066   9.880  0.2827  0.5327  0.1455
   22SAPC  H11R 2894   4.739   0.047   9.988 -0.6844  1.1741  0.1870
   22SAPC  C212 2895   4.646   0.101   9.804  1.0601  0.3405  0.1104
   22SAPC  H12R 2896   4.558   0.122   9.866  2.2281 -0.3730  2.1132
   22SAPC  C213 2897   4.636   0.123   9.651 -0.2547  0.0969 -0.3483
   22SAPC  H13R 2898   4.651   0.021   9.610  0.4403 -0.3663  1.0040
   22SAPC  H13S 2899   4.726   0.180   9.621  0.4940 -0.0457  1.4886
   22SAPC  C214 2900   4.515   0.180   9.601  0.5428 -0.6021 -0.1455
   22SAPC  H14R 2901   4.432   0.177   9.673  1.5382  2.7302  1.3439
   22SAPC  C215 2902   4.484   0.233   9.481  0.1072 -0.1775  0.1369
   22SAPC  H15R 2903   4.383   0.275   9.471 -0.1981 -0.3200  2.1725
   22SAPC  C216 2904   4.580   0.247   9.362  0.0824  1.3046  0.2345
   22SAPC  H16R 2905   4.528   0.273   9.267  0.0873 -1.2012 -0.5321
   22SAPC  H16S 2906   4.644   0.156   9.360 -1.3533  0.2557 -0.0039
   22SAPC  C217 2907   4.671   0.363   9.379 -0.0294 -0.3923 -0.0530
   22SAPC  H17R 2908   4.712   0.375   9.482  0.6353  0.4110 -0.4023
   22SAPC  H17S 2909   4.642   0.465   9.345  0.7956 -0.3778 -0.7354
   22SAPC  C218 2910   4.800   0.348   9.297  0.0647  1.1454 -0.0008
   22SAPC  H18R 2911   4.765   0.312   9.198  2.6352 -2.0284  0.0619
   22SAPC  H18S 2912   4.846   0.257   9.343 -0.7603  0.1674 -1.0661
   22SAPC  C219 2913   4.891   0.469   9.296 -0.1534 -0.0688 -0.3033
   22SAPC  H19R 2914   4.997   0.435   9.301  0.4419  1.4296 -1.6890
   22SAPC  H19S 2915   4.865   0.538   9.379 -0.6193  0.3757 -0.8137
   22SAPC  C220 2916   4.879   0.552   9.171 -0.5440 -0.5583  0.2477
   22SAPC  H20R 2917   4.772   0.577   9.156 -0.9134 -1.3463  1.3847
   22SAPC  H20S 2918   4.918   0.498   9.082  2.8471  1.8610  0.0528
   22SAPC  H20T 2919   4.918   0.656   9.179 -1.5807 -0.1602  0.2710
   22SAPC   C33 2920   6.004   0.221  10.186  0.4033 -0.3631 -0.5538
   22SAPC   H3X 2921   6.030   0.325  10.214 -0.3783  0.5348 -2.9373
   22SAPC   H3Y 2922   5.897   0.222  10.158  0.1046  2.5219  0.3611
   22SAPC   C34 2923   6.094   0.187  10.065 -0.2208 -0.2576 -0.1473
   22SAPC   H4X 2924   6.070   0.086  10.026  0.8674 -1.2173  1.5372
   22SAPC   H4Y 2925   6.197   0.192  10.107  0.2578 -0.0275 -1.3157
   22SAPC   C35 2926   6.063   0.284   9.942  0.0596  0.1533  0.2415
   22SAPC   H5X 2927   6.063   0.386   9.987 -0.5492  0.7953 -1.1533
   22SAPC   H5Y 2928   5.963   0.255   9.903  0.5598  2.0691 -2.8262
   22SAPC   C36 2929   6.164   0.268   9.817 -0.3250 -0.6496  0.1932
   22SAPC   H6X 2930   6.269   0.272   9.853 -0.6407  1.8717  1.0668
   22SAPC   H6Y 2931   6.139   0.362   9.763 -0.2464 -2.5443 -3.4421
   22SAPC   C37 2932   6.140   0.138   9.740  0.7318  0.2485  0.4531
   22SAPC   H7X 2933   6.035   0.143   9.702  1.1405  0.1007 -0.7465
   22SAPC   H7Y 2934   6.144   0.045   9.801  0.1673 -0.1854 -0.1518
   22SAPC   C38 2935   6.230   0.122   9.621 -0.4539  0.0633  0.6987
   22SAPC   H8X 2936   6.208   0.032   9.561  0.5047  2.3050 -3.3687
   22SAPC   H8Y 2937   6.332   0.125   9.664  0.2686 -0.1576 -0.9294
   22SAPC   C39 2938   6.225   0.235   9.509  0.0332  0.6030 -0.6911
   22SAPC   H9X 2939   6.245   0.334   9.556 -0.7848  0.1367  0.6829
   22SAPC   H9Y 2940   6.118   0.233   9.480 -0.7746  0.0927  2.0480
   22SAPC  C310 2941   6.308   0.225   9.378 -0.0902  0.2592  0.4953
   22SAPC  H10X 2942   6.408   0.179   9.392 -0.5805 -1.6391 -1.5999
   22SAPC  H10Y 2943   6.329   0.329   9.346  3.0119  0.4511  2.7879
   22SAPC  C311 2944   6.228   0.159   9.261 -0.3740 -0.3739  0.0816
   22SAPC  H11X 2945   6.130   0.209   9.249 -0.8099 -1.5754 -1.8700
   22SAPC  H11Y 2946   6.223   0.053   9.292 -1.5030 -0.0799  0.9502
   22SAPC  C312 2947   6.298   0.173   9.123  0.2414  0.0680 -0.1825
   22SAPC  H12X 2948   6.405   0.145   9.137  0.5726 -0.5380 -3.1998
   22SAPC  H12Y 2949   6.289   0.275   9.080  3.0458  0.7383  0.6177
   22SAPC  C313 2950   6.239   0.070   9.021 -0.1343 -0.6023  0.3755
   22SAPC  H13X 2951   6.289  -0.029   9.022 -1.5649 -1.3463  1.0013
   22SAPC  H13Y 2952   6.279   0.108   8.924 -1.0383  1.5645  0.7923
   22SAPC  C314 2953   6.086   0.068   9.021  1.5180  0.7168 -1.0218
   22SAPC  H14X 2954   6.032   0.165   9.014  0.8790  0.5039  0.6773
   22SAPC  H14Y 2955   6.048   0.017   9.112  0.1447  0.7892 -1.5409
   22SAPC  C315 2956   6.031  -0.027   8.908 -0.0875  0.0001  0.0358
   22SAPC  H15X 2957   6.103  -0.112   8.910 -1.3203 -1.0765  1.4332
   22SAPC  H15Y 2958   6.038   0.027   8.811 -0.3771 -2.5917 -1.5472
   22SAPC  C316 2959   5.885  -0.070   8.935 -0.5046  0.1476 -0.1909
   22SAPC  H16X 2960   5.829   0.026   8.933 -0.8959 -0.0881 -0.9964
   22SAPC  H16Y 2961   5.875  -0.098   9.042 -2.0510  1.4431  0.0508
   22SAPC  C317 2962   5.827  -0.167   8.842  0.2797 -0.1024  0.0862
   22SAPC  H17X 2963   5.764  -0.231   8.908  0.4729  0.5523  0.9276
   22SAPC  H17Y 2964   5.901  -0.242   8.807 -1.7220 -2.4855  0.6713
   22SAPC  C318 2965   5.731  -0.111   8.735 -0.4655  0.5999  0.0926
   22SAPC  H18X 2966   5.764  -0.014   8.692 -0.8707  0.9691  0.5969
   22SAPC  H18Y 2967   5.628  -0.097   8.775 -1.1421  0.0039 -1.3599
   22SAPC  H18Z 2968   5.725  -0.185   8.652 -2.1484 -1.1612  1.6666
   23SAPC     N 2969   2.700   4.500  10.908 -0.2682 -0.0146  0.3029
   23SAPC   C12 2970   2.622   4.581  10.811 -0.2149  0.4741  0.5286
   23SAPC  H12A 2971   2.695   4.658  10.790  1.0084 -0.0117  2.7295
   23SAPC  H12B 2972   2.534   4.622  10.858 -2.3248 -0.5949 -2.1724
   23SAPC   C13 2973   2.617   4.396  10.970 -0.0413  0.7161 -0.1307
   23SAPC  H13A 2974   2.677   4.330  11.031 -0.8867 -0.8048 -0.8984
   23SAPC  H13B 2975   2.531   4.436  11.023 -0.0536  0.5582 -0.0312
   23SAPC  H13C 2976   2.582   4.329  10.894  0.7554  1.1595 -0.9047
   23SAPC   C14 2977   2.820   4.443  10.846  0.0392  0.6403 -0.1105
   23SAPC  H14A 2978   2.888   4.525  10.826  0.2998  0.7274  1.0340
   23SAPC  H14B 2979   2.875   4.393  10.924 -0.9525  1.6226  1.2717
   23SAPC  H14C 2980   2.800   4.369  10.770 -1.0837  0.6380  0.1678
   23SAPC   C15 2981   2.754   4.593  11.010 -0.3226 -0.1554 -0.5326
   23SAPC  H15A 2982   2.675   4.637  11.069 -0.5207 -0.7244 -0.3691
   23SAPC  H15B 2983   2.808   4.537  11.085 -2.2982 -0.1126  0.9998
   23SAPC  H15C 2984   2.815   4.666  10.959  1.2053 -1.5575 -0.7915
   23SAPC   C11 2985   2.568   4.508  10.683 -0.4045  0.2579 -0.2072
   23SAPC  H11A 2986   2.650   4.470  10.619  0.1243  0.6825  0.2096
   23SAPC  H11B 2987   2.511   4.579  10.620  0.0202 -0.4607 -1.4430
   23SAPC     P 2988   2.336   4.420  10.785 -0.3221 -0.1791  0.3231
   23SAPC   O13 2989   2.324   4.350  10.915  0.2392  0.0754 -0.2343
   23SAPC   O14 2990   2.306   4.561  10.791 -0.3833 -0.2778  0.1288
   23SAPC   O12 2991   2.480   4.397  10.717 -0.3756  0.3252  0.3904
   23SAPC   O11 2992   2.218   4.364  10.687  0.0236 -0.4392  0.0937
   23SAPC    C1 2993   2.235   4.266  10.586 -0.0743  0.2671  0.6240
   23SAPC    HA 2994   2.322   4.199  10.606 -0.0892 -0.7484 -2.2096
   23SAPC    HB 2995   2.149   4.197  10.580  1.2274 -1.3479 -0.3494
   23SAPC    C2 2996   2.255   4.337  10.447 -0.2374  1.2202  0.4929
   23SAPC    HS 2997   2.351   4.392  10.459 -0.8156  2.0858  1.1842
   23SAPC   O21 2998   2.149   4.425  10.421 -0.1844 -0.1547  0.5789
   23SAPC   C21 2999   2.181   4.544  10.367 -1.0092  0.7304 -0.6388
   23SAPC   O22 3000   2.292   4.572  10.335 -0.7182 -0.3152  0.2827
   23SAPC   C22 3001   2.064   4.636  10.375  0.1586 -0.1787  0.1988
   23SAPC   H2R 3002   2.001   4.628  10.284  0.5718  1.8780 -0.3289
   23SAPC   H2S 3003   1.993   4.607  10.456 -0.5456 -2.1089 -1.0445
   23SAPC    C3 3004   2.276   4.226  10.335 -0.7241  0.3129  0.3650
   23SAPC    HX 3005   2.201   4.147  10.355 -0.2811  0.3134  2.1998
   23SAPC    HY 3006   2.376   4.180  10.354 -1.0268 -0.5168 -0.0177
   23SAPC   O31 3007   2.278   4.287  10.203 -0.2760 -0.2092  0.3015
   23SAPC   C31 3008   2.158   4.294  10.147 -0.2062 -0.3181  0.6644
   23SAPC   O32 3009   2.051   4.254  10.193 -0.5221 -0.6728 -0.4688
   23SAPC   C32 3010   2.185   4.346  10.002 -0.1746 -1.0311  0.5352
   23SAPC   H2X 3011   2.251   4.274   9.949  0.3072 -0.1982 -0.0228
   23SAPC   H2Y 3012   2.230   4.447  10.014 -0.6297 -0.8917  1.0819
   23SAPC   C23 3013   2.116   4.780  10.401  1.0159 -0.1888 -0.5722
   23SAPC   H3R 3014   2.194   4.796  10.324 -0.8565 -0.5504 -2.6630
   23SAPC   H3S 3015   2.148   4.792  10.506  0.4721  0.4568 -0.4708
   23SAPC   C24 3016   1.994   4.882  10.394  0.4479 -0.1051 -0.3223
   23SAPC   H4R 3017   1.921   4.834  10.463  1.7655 -1.0999  0.4159
   23SAPC   H4S 3018   1.942   4.864  10.297 -1.6095  0.6314  0.5751
   23SAPC   C25 3019   2.033   5.021  10.432 -0.1878  0.0378  0.3097
   23SAPC   H5R 3020   2.108   5.029  10.512  1.4897  1.0237 -1.2806
   23SAPC   C26 3021   1.987   5.131  10.375 -0.3579 -0.9825 -0.0092
   23SAPC   H6R 3022   2.025   5.230  10.402  1.3089 -1.4004 -0.6878
   23SAPC   C27 3023   1.895   5.130  10.258  0.4306 -0.4599 -0.8429
   23SAPC   H7R 3024   1.802   5.099  10.310 -0.3536  1.3103 -1.1421
   23SAPC   H7S 3025   1.914   5.053  10.180 -1.0566  0.9676 -2.7202
   23SAPC   C28 3026   1.850   5.264  10.195  0.0734  1.0683 -0.2483
   23SAPC   H8R 3027   1.872   5.348  10.263  1.5381 -0.8458  1.7736
   23SAPC   C29 3028   1.799   5.271  10.062  0.7921  0.0594  0.0448
   23SAPC   H9R 3029   1.776   5.368  10.015 -0.0654 -2.3106 -5.1151
   23SAPC  C210 3030   1.776   5.160   9.969  0.6674  0.1067  0.7080
   23SAPC  H10R 3031   1.709   5.196   9.889  3.0259  0.8766 -1.0406
   23SAPC  H10S 3032   1.724   5.073  10.016 -1.4430  0.5626 -0.6722
   23SAPC  C211 3033   1.907   5.124   9.897  0.2997  0.5221 -0.2020
   23SAPC  H11R 3034   1.967   5.048   9.948 -1.9468 -0.5227  1.0352
   23SAPC  C212 3035   1.930   5.156   9.766 -0.6762 -0.3135 -0.3328
   23SAPC  H12R 3036   2.030   5.132   9.727  0.9280  2.9430  1.4186
   23SAPC  C213 3037   1.841   5.225   9.665  0.5784  0.5552 -0.7684
   23SAPC  H13R 3038   1.740   5.254   9.702  1.0392  0.5693  0.5271
   23SAPC  H13S 3039   1.830   5.151   9.582  1.8048  0.6010 -0.9963
   23SAPC  C214 3040   1.894   5.362   9.632  0.0730 -0.0240  0.0394
   23SAPC  H14R 3041   1.947   5.412   9.714  1.4443 -3.2282  1.2683
   23SAPC  C215 3042   1.900   5.417   9.513 -0.1808 -0.7865  1.5370
   23SAPC  H15R 3043   1.926   5.524   9.519 -1.9140 -0.3900  3.3966
   23SAPC  C216 3044   1.846   5.370   9.379 -0.2696 -0.0334  1.0906
   23SAPC  H16R 3045   1.769   5.439   9.339  0.6936  0.3498 -0.1443
   23SAPC  H16S 3046   1.796   5.271   9.390  1.4819 -0.9555  1.1182
   23SAPC  C217 3047   1.956   5.363   9.265  0.6297  0.0479  0.6755
   23SAPC  H17R 3048   2.037   5.293   9.294  2.1870  0.5458 -2.1740
   23SAPC  H17S 3049   1.994   5.464   9.239  2.8263 -1.1335 -1.0025
   23SAPC  C218 3050   1.897   5.304   9.135  0.0629  0.2139 -0.0320
   23SAPC  H18R 3051   1.805   5.360   9.105  0.5884  1.2950  0.3199
   23SAPC  H18S 3052   1.865   5.199   9.151  1.5329 -0.2434  0.0587
   23SAPC  C219 3053   1.993   5.312   9.020 -0.3339  0.5269  0.0391
   23SAPC  H19R 3054   2.092   5.272   9.053 -0.1768  0.8712 -0.0156
   23SAPC  H19S 3055   2.019   5.415   8.988 -0.5898  0.4828 -0.3179
   23SAPC  C220 3056   1.946   5.228   8.902 -0.0031  0.2839 -0.1927
   23SAPC  H20R 3057   2.033   5.228   8.833 -0.2068  0.2847 -0.4534
   23SAPC  H20S 3058   1.860   5.275   8.849 -1.9110 -2.0404  0.6815
   23SAPC  H20T 3059   1.920   5.122   8.923  2.4956 -0.5194 -0.7406
   23SAPC   C33 3060   2.041   4.353   9.937 -0.1213  0.0626  0.2657
   23SAPC   H3X 3061   1.971   4.408  10.003  1.5281  2.7870 -0.0986
   23SAPC   H3Y 3062   2.011   4.247   9.944 -1.5202  0.5025  1.4004
   23SAPC   C34 3063   2.033   4.397   9.791 -0.0037 -0.2885  0.3724
   23SAPC   H4X 3064   2.100   4.333   9.729 -1.2162 -0.2773 -1.0043
   23SAPC   H4Y 3065   2.075   4.499   9.779  0.0711 -0.2965  0.5655
   23SAPC   C35 3066   1.893   4.402   9.738  0.3034 -0.6701  0.7267
   23SAPC   H5X 3067   1.831   4.454   9.813  0.9862 -0.8223  1.4059
   23SAPC   H5Y 3068   1.853   4.298   9.734  1.5064 -1.1288 -0.1041
   23SAPC   C36 3069   1.880   4.478   9.606 -0.5763  0.5482 -0.8368
   23SAPC   H6X 3070   1.949   4.428   9.534  0.3610  1.4649 -0.6051
   23SAPC   H6Y 3071   1.925   4.579   9.619 -0.6569  1.0586 -3.7865
   23SAPC   C37 3072   1.734   4.488   9.570  0.0097 -0.2937  0.0300
   23SAPC   H7X 3073   1.676   4.509   9.662 -1.5379 -2.5648 -0.3313
   23SAPC   H7Y 3074   1.703   4.386   9.538  0.8179 -0.3920 -0.4793
   23SAPC   C38 3075   1.700   4.597   9.463  0.3021 -0.2861  0.1751
   23SAPC   H8X 3076   1.727   4.702   9.488 -1.0204 -0.1946  1.3383
   23SAPC   H8Y 3077   1.589   4.593   9.468  0.2285  0.1238 -0.8439
   23SAPC   C39 3078   1.740   4.548   9.321  0.3272 -0.4191  0.1423
   23SAPC   H9X 3079   1.745   4.438   9.306  0.3913 -0.1819 -1.9689
   23SAPC   H9Y 3080   1.846   4.582   9.316  0.1420  0.1022 -0.3858
   23SAPC  C310 3081   1.659   4.632   9.223  0.3867  0.0768  0.1513
   23SAPC  H10X 3082   1.666   4.742   9.239 -0.1184  0.2332 -0.6094
   23SAPC  H10Y 3083   1.552   4.603   9.234  0.1159 -0.3637 -2.8199
   23SAPC  C311 3084   1.689   4.594   9.075  0.2573 -0.5537 -0.1079
   23SAPC  H11X 3085   1.619   4.639   9.001 -0.5421 -2.1120 -0.3278
   23SAPC  H11Y 3086   1.676   4.485   9.064  0.0777 -0.4534 -1.0203
   23SAPC  C312 3087   1.827   4.639   9.030  0.0877 -0.1528 -0.5473
   23SAPC  H12X 3088   1.874   4.687   9.119 -1.6199 -0.8393  0.7847
   23SAPC  H12Y 3089   1.819   4.723   8.957 -0.8757  0.2926  0.0498
   23SAPC  C313 3090   1.917   4.527   8.975 -0.3473 -0.2892  0.3369
   23SAPC  H13X 3091   1.861   4.483   8.890  0.6982 -2.6466  0.7972
   23SAPC  H13Y 3092   1.930   4.445   9.048  2.3939 -0.8688 -0.6998
   23SAPC  C314 3093   2.044   4.581   8.896 -0.1887 -0.9663 -0.0792
   23SAPC  H14X 3094   2.011   4.665   8.831  1.5788 -0.5080 -0.4304
   23SAPC  H14Y 3095   2.076   4.522   8.807  2.1480 -0.2464  0.2187
   23SAPC  C315 3096   2.176   4.610   8.971  0.8297 -0.1745 -0.5436
   23SAPC  H15X 3097   2.179   4.580   9.079  0.8066  0.4030 -0.3816
   23SAPC  H15Y 3098   2.174   4.721   8.976 -2.6349 -0.1668  1.2566
   23SAPC  C316 3099   2.294   4.556   8.909 -0.2824 -0.3803  0.8556
   23SAPC  H16X 3100   2.299   4.615   8.815  0.7045 -1.4465  0.2196
   23SAPC  H16Y 3101   2.282   4.446   8.893  3.1238 -0.7751  0.3072
   23SAPC  C317 3102   2.414   4.583   8.991 -0.1273 -0.3186 -0.0455
   23SAPC  H17X 3103   2.417   4.516   9.079  0.3058 -1.1121 -0.6492
   23SAPC  H17Y 3104   2.426   4.691   9.015 -1.9911  0.0076 -0.4151
   23SAPC  C318 3105   2.543   4.550   8.911  0.5619  0.3494 -0.1217
   23SAPC  H18X 3106   2.531   4.455   8.855  0.1646  1.0372 -1.2223
   23SAPC  H18Y 3107   2.639   4.553   8.968  0.5083 -1.2992  0.1041
   23SAPC  H18Z 3108   2.548   4.631   8.835  1.1370 -1.3409 -1.9478
   24SAPC     N 3109   3.009   5.338  11.140  0.2576  0.1326 -0.2448
   24SAPC   C12 3110   3.062   5.317  11.000 -0.0035 -0.8694  0.1276
   24SAPC  H12A 3111   3.131   5.234  11.009  3.4769  1.7620  0.1758
   24SAPC  H12B 3112   3.128   5.397  10.971 -0.6998  0.8586  2.8845
   24SAPC   C13 3113   3.119   5.346  11.242 -0.5971 -0.2054  0.3002
   24SAPC  H13A 3114   3.187   5.262  11.244 -0.9614 -0.5292 -0.5131
   24SAPC  H13B 3115   3.193   5.424  11.229  0.0575 -0.6128  1.3322
   24SAPC  H13C 3116   3.069   5.364  11.336 -0.1421  0.6875  0.3878
   24SAPC   C14 3117   2.932   5.459  11.159  0.6257  0.2526  0.1844
   24SAPC  H14A 3118   2.861   5.451  11.239  0.9572 -1.3606  0.3398
   24SAPC  H14B 3119   3.002   5.542  11.165  0.6251  0.6127 -2.7919
   24SAPC  H14C 3120   2.878   5.478  11.067  0.3256 -0.0941  0.2863
   24SAPC   C15 3121   2.915   5.231  11.187  0.1796  0.2857  0.3253
   24SAPC  H15A 3122   2.878   5.261  11.284  0.3556  3.1755 -0.4263
   24SAPC  H15B 3123   2.831   5.219  11.119  1.1217 -2.9395 -0.4399
   24SAPC  H15C 3124   2.950   5.129  11.189  1.2758  0.6648  0.9559
   24SAPC   C11 3125   2.960   5.296  10.887 -0.5314  0.7016 -0.1833
   24SAPC  H11A 3126   2.900   5.204  10.906  1.0912 -1.3944 -3.9935
   24SAPC  H11B 3127   3.017   5.272  10.795  0.1499 -1.7018  0.7959
   24SAPC     P 3128   2.759   5.412  10.774  0.3862 -0.1448 -0.2586
   24SAPC   O13 3129   2.639   5.358  10.834 -0.0614 -0.1205 -0.2758
   24SAPC   O14 3130   2.751   5.547  10.715  0.1616  0.3323 -1.3582
   24SAPC   O12 3131   2.880   5.410  10.875  0.5153 -0.5865 -0.2847
   24SAPC   O11 3132   2.807   5.306  10.665 -0.3710  0.0295 -0.6980
   24SAPC    C1 3133   2.722   5.207  10.604  0.5914 -0.4661 -0.4231
   24SAPC    HA 3134   2.789   5.118  10.600  2.1497  0.5648  1.0021
   24SAPC    HB 3135   2.647   5.168  10.676  1.9549 -0.1837  1.2172
   24SAPC    C2 3136   2.660   5.251  10.463  0.2064 -0.4669 -1.0817
   24SAPC    HS 3137   2.637   5.151  10.420 -0.3252 -2.1415  2.6343
   24SAPC   O21 3138   2.754   5.324  10.390  0.2027  0.0259  0.1103
   24SAPC   C21 3139   2.851   5.253  10.333  0.4625  0.5905  0.4429
   24SAPC   O22 3140   2.866   5.133  10.354  0.6738 -0.1535  0.3206
   24SAPC   C22 3141   2.930   5.339  10.227  0.1345  0.3393 -0.2073
   24SAPC   H2R 3142   2.943   5.444  10.259  0.7672  0.3361 -0.4459
   24SAPC   H2S 3143   3.031   5.293  10.224 -0.2159 -0.5011  0.3373
   24SAPC    C3 3144   2.529   5.332  10.477 -0.0499 -0.1135  0.1500
   24SAPC    HX 3145   2.555   5.440  10.481  0.1336 -0.2086  2.4613
   24SAPC    HY 3146   2.470   5.310  10.568 -0.9676  0.1792 -0.3568
   24SAPC   O31 3147   2.446   5.310  10.363 -0.2189 -0.6074  0.2798
   24SAPC   C31 3148   2.388   5.186  10.339 -0.1317 -0.6257  0.8297
   24SAPC   O32 3149   2.409   5.091  10.411  0.0625 -0.1181  0.0502
   24SAPC   C32 3150   2.312   5.180  10.211  0.5612  0.2241  0.2130
   24SAPC   H2X 3151   2.223   5.247  10.206 -0.3079 -0.9499 -0.6675
   24SAPC   H2Y 3152   2.278   5.075  10.200 -3.5978  1.2073  1.8587
   24SAPC   C23 3153   2.860   5.346  10.095  0.2421 -0.4982 -0.4641
   24SAPC   H3R 3154   2.838   5.241  10.065  1.8902 -0.6751 -1.1825
   24SAPC   H3S 3155   2.921   5.391  10.013 -0.4081 -0.7347 -1.0864
   24SAPC   C24 3156   2.718   5.412  10.091 -0.5351 -0.3399 -0.2043
   24SAPC   H4R 3157   2.654   5.353  10.161 -0.9870  0.9688  0.5293
   24SAPC   H4S 3158   2.678   5.401   9.988 -0.6722 -0.2534 -0.1612
   24SAPC   C25 3159   2.707   5.555  10.134 -0.3771  0.0842  0.1652
   24SAPC   H5R 3160   2.759   5.567  10.230  0.7773 -1.0922 -0.2799
   24SAPC   C26 3161   2.669   5.666  10.063  0.1982 -0.1005 -0.4016
   24SAPC   H6R 3162   2.665   5.759  10.122  1.3863 -0.9508  1.1393
   24SAPC   C27 3163   2.623   5.667   9.916 -0.0608  0.7986 -0.4560
   24SAPC   H7R 3164   2.624   5.570   9.862  1.0121  1.4858 -1.7041
   24SAPC   H7S 3165   2.703   5.725   9.866  0.4264  0.3202 -0.2420
   24SAPC   C28 3166   2.489   5.731   9.913  0.5280  0.7016  1.1815
   24SAPC   H8R 3167   2.407   5.674   9.959 -0.1425  1.1139  0.5254
   24SAPC   C29 3168   2.463   5.852   9.851 -0.0008 -0.4242  0.4787
   24SAPC   H9R 3169   2.362   5.892   9.835  0.5226  1.0509  0.6687
   24SAPC  C210 3170   2.561   5.918   9.759  0.1898 -0.2373  0.6481
   24SAPC  H10R 3171   2.651   5.943   9.821 -0.1759 -0.0420  1.1089
   24SAPC  H10S 3172   2.519   6.014   9.722  0.1980 -0.3498  0.3420
   24SAPC  C211 3173   2.607   5.848   9.633  0.0620 -0.3211  0.2763
   24SAPC  H11R 3174   2.675   5.764   9.654  1.6784  0.7600 -0.4557
   24SAPC  C212 3175   2.587   5.877   9.502 -0.0806 -0.1993 -0.1408
   24SAPC  H12R 3176   2.624   5.817   9.418 -0.3942  0.9054 -1.0837
   24SAPC  C213 3177   2.504   5.990   9.446 -0.1096 -0.3349  0.3317
   24SAPC  H13R 3178   2.410   6.000   9.504 -0.5083  0.4095 -0.4267
   24SAPC  H13S 3179   2.476   5.943   9.350  0.8159 -2.0598  0.8538
   24SAPC  C214 3180   2.562   6.131   9.426 -0.7659  0.6634  0.0719
   24SAPC  H14R 3181   2.620   6.167   9.512  0.5277  0.3374 -0.6476
   24SAPC  C215 3182   2.541   6.220   9.325 -0.8047 -0.0942 -0.2013
   24SAPC  H15R 3183   2.583   6.320   9.342  2.6505 -1.7450  1.8499
   24SAPC  C216 3184   2.470   6.188   9.198  0.2678  0.2018  0.4352
   24SAPC  H16R 3185   2.361   6.199   9.219  0.1748  0.1899 -0.0247
   24SAPC  H16S 3186   2.485   6.083   9.165  0.2726  1.0072 -2.3322
   24SAPC  C217 3187   2.509   6.285   9.087  0.0282 -0.2101 -0.9782
   24SAPC  H17R 3188   2.614   6.268   9.054  0.4429  1.2636 -0.4802
   24SAPC  H17S 3189   2.498   6.389   9.124  2.0250 -1.1240  2.6521
   24SAPC  C218 3190   2.413   6.261   8.974  0.4756  0.0855  0.2394
   24SAPC  H18R 3191   2.414   6.355   8.914  0.3144  1.8097  2.7815
   24SAPC  H18S 3192   2.307   6.262   9.005  0.6371 -0.0033  0.8045
   24SAPC  C219 3193   2.446   6.135   8.896  0.6295  0.2311 -0.2802
   24SAPC  H19R 3194   2.438   6.037   8.947  2.0868  0.8622  1.2638
   24SAPC  H19S 3195   2.551   6.136   8.860  0.5009  0.0888 -0.6617
   24SAPC  C220 3196   2.352   6.122   8.772  0.0117  0.7616 -0.1274
   24SAPC  H20R 3197   2.369   6.206   8.701 -1.7961  0.5378 -0.8682
   24SAPC  H20S 3198   2.246   6.138   8.801 -0.3688 -0.0430 -1.0030
   24SAPC  H20T 3199   2.349   6.024   8.719 -2.5655 -0.4531  2.0339
   24SAPC   C33 3200   2.403   5.205  10.087 -0.3616 -0.0856 -0.3286
   24SAPC   H3X 3201   2.480   5.125  10.090 -0.4007 -0.1157  2.4824
   24SAPC   H3Y 3202   2.454   5.303  10.104 -3.2318  1.3874  0.4674
   24SAPC   C34 3203   2.313   5.208   9.965 -0.0581  0.0839 -0.0995
   24SAPC   H4X 3204   2.234   5.286   9.976  1.3239  1.1332  4.3981
   24SAPC   H4Y 3205   2.255   5.113   9.954  0.1159  0.1299 -1.5290
   24SAPC   C35 3206   2.388   5.239   9.845 -0.2632  0.0313  0.5356
   24SAPC   H5X 3207   2.475   5.176   9.819  0.2735  1.3789 -1.1187
   24SAPC   H5Y 3208   2.437   5.337   9.863 -2.0034  1.8848 -3.5130
   24SAPC   C36 3209   2.312   5.255   9.707 -0.5506 -0.6801 -0.0548
   24SAPC   H6X 3210   2.205   5.284   9.714 -0.4252  0.2285 -1.4726
   24SAPC   H6Y 3211   2.307   5.151   9.667  1.3097 -0.3423 -1.3265
   24SAPC   C37 3212   2.375   5.351   9.605 -0.7509  0.0789  0.5483
   24SAPC   H7X 3213   2.471   5.307   9.568  0.3193 -0.6149  3.8119
   24SAPC   H7Y 3214   2.392   5.453   9.646  2.6642 -0.3620  0.5504
   24SAPC   C38 3215   2.278   5.351   9.484  0.3201 -0.4280 -0.2496
   24SAPC   H8X 3216   2.191   5.409   9.523  0.4627 -0.4031  0.0333
   24SAPC   H8Y 3217   2.248   5.246   9.465  1.8927 -0.9806  0.1752
   24SAPC   C39 3218   2.347   5.394   9.356 -0.6463 -0.4084 -0.0755
   24SAPC   H9X 3219   2.281   5.386   9.266  0.9893 -1.3473 -1.2342
   24SAPC   H9Y 3220   2.435   5.329   9.337 -1.8034 -1.3253 -2.8851
   24SAPC  C310 3221   2.393   5.536   9.362 -0.5149  0.3092 -0.0309
   24SAPC  H10X 3222   2.454   5.558   9.452 -0.0862 -1.1189  0.0606
   24SAPC  H10Y 3223   2.305   5.603   9.369 -1.0674 -0.3779 -0.2639
   24SAPC  C311 3224   2.488   5.572   9.244  0.3286  0.1829  0.8455
   24SAPC  H11X 3225   2.546   5.479   9.228 -1.2912 -0.6401 -0.5307
   24SAPC  H11Y 3226   2.554   5.659   9.264 -0.5538  0.9433  0.5239
   24SAPC  C312 3227   2.416   5.598   9.116  0.4168  0.4273  0.6822
   24SAPC  H12X 3228   2.334   5.667   9.147 -0.8485 -0.2145 -1.1071
   24SAPC  H12Y 3229   2.357   5.514   9.073 -1.8775  0.5842  3.2124
   24SAPC  C313 3230   2.514   5.674   9.017 -0.9770 -0.3180 -0.8739
   24SAPC  H13X 3231   2.605   5.610   9.013 -1.2526 -0.7018 -1.0061
   24SAPC  H13Y 3232   2.524   5.780   9.049 -3.7947  0.2753 -1.6917
   24SAPC  C314 3233   2.457   5.690   8.880 -0.6094  0.5496 -0.1498
   24SAPC  H14X 3234   2.368   5.756   8.876 -2.1909 -1.4415  0.4013
   24SAPC  H14Y 3235   2.426   5.590   8.844  0.8289 -0.1331  0.4050
   24SAPC  C315 3236   2.552   5.735   8.770 -0.5371  0.1630 -0.3084
   24SAPC  H15X 3237   2.640   5.667   8.762 -0.6590 -0.0832  0.4109
   24SAPC  H15Y 3238   2.610   5.826   8.793  2.2565 -1.8069  1.0205
   24SAPC  C316 3239   2.496   5.762   8.634  0.0834  0.2622  0.7437
   24SAPC  H16X 3240   2.413   5.836   8.631 -0.3879 -0.2858 -0.1685
   24SAPC  H16Y 3241   2.455   5.665   8.598  0.9477 -0.7839  2.4374
   24SAPC  C317 3242   2.607   5.797   8.528  0.0869 -0.2384  0.2308
   24SAPC  H17X 3243   2.554   5.821   8.433 -2.0580 -2.3760  0.7701
   24SAPC  H17Y 3244   2.661   5.700   8.517 -1.9038 -1.6743  2.1941
   24SAPC  C318 3245   2.699   5.911   8.557 -0.4540  0.4323  0.6324
   24SAPC  H18X 3246   2.759   5.937   8.467  0.0191 -2.0715  0.1610
   24SAPC  H18Y 3247   2.776   5.891   8.634  1.8624  2.7691 -0.8836
   24SAPC  H18Z 3248   2.641   6.003   8.581  0.6603  1.7413 -1.3011
   25SAPC     N 3249   6.791   4.141   6.120 -0.8539  0.4756  0.7244
   25SAPC   C12 3250   6.923   4.126   6.045 -0.1288  0.1681 -0.1907
   25SAPC  H12A 3251   6.966   4.225   6.044 -2.2563  1.1486  0.6806
   25SAPC  H12B 3252   6.901   4.108   5.940  2.6901  2.1594 -1.2471
   25SAPC   C13 3253   6.825   4.192   6.255  0.3755 -0.2399 -0.0709
   25SAPC  H13A 3254   6.888   4.280   6.257  2.9069 -1.9398  0.4129
   25SAPC  H13B 3255   6.739   4.212   6.318  1.2144  6.0083 -0.2293
   25SAPC  H13C 3256   6.889   4.123   6.308  0.7444  0.8981  1.0478
   25SAPC   C14 3257   6.717   4.240   6.042 -0.0710  0.0563 -0.2054
   25SAPC  H14A 3258   6.701   4.194   5.946  0.1960 -1.8341  0.6008
   25SAPC  H14B 3259   6.619   4.246   6.089  0.3899 -1.3157  1.0035
   25SAPC  H14C 3260   6.778   4.329   6.036  0.2499 -0.2459 -1.6250
   25SAPC   C15 3261   6.717   4.010   6.132 -0.3062  0.5967 -0.4757
   25SAPC  H15A 3262   6.704   3.962   6.037 -0.8328  0.2099 -0.2077
   25SAPC  H15B 3263   6.763   3.945   6.205  0.0343  0.5744 -0.7077
   25SAPC  H15C 3264   6.615   4.027   6.164  0.1372  0.4335  1.1353
   25SAPC   C11 3265   7.027   4.016   6.081  0.3273  0.2506 -0.5667
   25SAPC  H11A 3266   7.096   4.016   5.993 -0.3855  1.0828 -1.1341
   25SAPC  H11B 3267   6.976   3.917   6.081  0.7827 -0.0580 -3.2120
   25SAPC     P 3268   7.217   4.139   6.223 -0.0447 -0.1256 -0.3154
   25SAPC   O13 3269   7.326   4.057   6.163  0.1898 -0.1008  0.6759
   25SAPC   O14 3270   7.194   4.275   6.169 -0.3908  0.5200  0.0434
   25SAPC   O12 3271   7.084   4.051   6.208  0.4974 -0.3025  0.0160
   25SAPC   O11 3272   7.228   4.141   6.381 -0.1108  0.2453 -0.6575
   25SAPC    C1 3273   7.250   4.023   6.456  0.0489  0.2069 -0.2416
   25SAPC    HA 3274   7.300   3.945   6.395 -2.3356 -2.9540  1.5820
   25SAPC    HB 3275   7.319   4.055   6.537  0.5887 -1.6995  0.1047
   25SAPC    C2 3276   7.106   3.963   6.500  0.3546 -0.2256  0.0388
   25SAPC    HS 3277   7.059   3.962   6.400  2.0207 -0.4853 -0.7721
   25SAPC   O21 3278   7.051   4.069   6.590  0.6543  0.5890  0.0285
   25SAPC   C21 3279   6.922   4.073   6.601  0.7069  0.5938  0.0211
   25SAPC   O22 3280   6.841   4.026   6.518  0.1493 -0.1108 -0.6030
   25SAPC   C22 3281   6.864   4.149   6.726  0.2697 -0.0728  0.5089
   25SAPC   H2R 3282   6.843   4.255   6.700 -0.9401 -0.6423 -0.9450
   25SAPC   H2S 3283   6.767   4.097   6.739 -0.2911  0.6142 -0.7104
   25SAPC    C3 3284   7.118   3.827   6.575  0.2110 -0.1981 -0.5497
   25SAPC    HX 3285   7.170   3.751   6.514  1.2632 -2.8882  3.3095
   25SAPC    HY 3286   7.017   3.783   6.589  0.1419 -0.0675 -0.6294
   25SAPC   O31 3287   7.205   3.847   6.692 -0.2601  0.2723 -0.3664
   25SAPC   C31 3288   7.182   3.751   6.780  0.1708  0.5529 -0.3976
   25SAPC   O32 3289   7.127   3.645   6.755 -0.0554 -0.3700  0.2783
   25SAPC   C32 3290   7.228   3.786   6.921 -0.4007  0.0137 -0.0411
   25SAPC   H2X 3291   7.239   3.896   6.936 -0.4030  0.1131 -0.7159
   25SAPC   H2Y 3292   7.332   3.746   6.921  0.0023  1.0368 -0.0935
   25SAPC   C23 3293   6.958   4.133   6.847 -0.2892  0.5879  0.0005
   25SAPC   H3R 3294   7.063   4.163   6.827 -0.6675  1.1487 -1.2260
   25SAPC   H3S 3295   6.964   4.023   6.862 -1.2389  0.2459 -1.8895
   25SAPC   C24 3296   6.908   4.184   6.981  0.1566  0.0168 -0.0307
   25SAPC   H4R 3297   6.897   4.292   6.961  0.7644 -0.1740 -1.4558
   25SAPC   H4S 3298   6.991   4.177   7.054  0.1666 -0.5378 -0.0906
   25SAPC   C25 3299   6.780   4.113   7.021  1.2094  0.2961  0.5586
   25SAPC   H5R 3300   6.705   4.116   6.940  1.6135  0.2464  0.1750
   25SAPC   C26 3301   6.747   4.043   7.129  0.3011 -0.0712 -0.0518
   25SAPC   H6R 3302   6.639   4.023   7.142  0.2244  1.9378  3.8800
   25SAPC   C27 3303   6.830   4.004   7.249 -0.0688  0.4983 -0.2162
   25SAPC   H7R 3304   6.937   4.024   7.226  0.8405 -1.4621  1.8771
   25SAPC   H7S 3305   6.826   3.894   7.267  0.5665  0.2772 -1.3099
   25SAPC   C28 3306   6.789   4.079   7.377 -0.2408  0.0526  0.6918
   25SAPC   H8R 3307   6.726   4.168   7.359  0.7995  0.8251  0.7717
   25SAPC   C29 3308   6.835   4.051   7.501  0.2521  0.1641 -0.0195
   25SAPC   H9R 3309   6.814   4.122   7.582  3.5076  0.5849  0.6204
   25SAPC  C210 3310   6.934   3.941   7.541 -0.3544  0.3065 -0.8005
   25SAPC  H10R 3311   7.032   3.971   7.499 -0.8363  2.4825 -0.4928
   25SAPC  H10S 3312   6.904   3.841   7.501 -0.1039 -0.0221 -0.1767
   25SAPC  C211 3313   6.956   3.927   7.689 -0.2091 -0.1738  0.6940
   25SAPC  H11R 3314   7.013   4.012   7.729 -1.4987  0.4222  1.3323
   25SAPC  C212 3315   6.935   3.821   7.775  0.2702  0.4057 -0.3335
   25SAPC  H12R 3316   6.953   3.838   7.882  0.4528  0.0096 -0.3028
   25SAPC  C213 3317   6.868   3.689   7.743 -0.5057  0.2355 -0.6732
   25SAPC  H13R 3318   6.930   3.631   7.671 -0.6905 -1.5896  0.5594
   25SAPC  H13S 3319   6.768   3.699   7.695 -0.4784 -1.1510 -1.0636
   25SAPC  C214 3320   6.855   3.592   7.862  0.2151 -0.2306  0.6252
   25SAPC  H14R 3321   6.931   3.513   7.860 -1.0827 -1.5758  2.2666
   25SAPC  C215 3322   6.765   3.606   7.964 -0.7685  0.3044 -0.0446
   25SAPC  H15R 3323   6.757   3.517   8.028  1.9515  0.0048 -0.0012
   25SAPC  C216 3324   6.653   3.706   7.977 -0.0585  0.6710 -0.3538
   25SAPC  H16R 3325   6.554   3.655   7.985  1.2848 -1.8764  1.5788
   25SAPC  H16S 3326   6.646   3.762   7.882 -3.1178  0.7356 -0.1897
   25SAPC  C217 3327   6.683   3.793   8.104  0.0605  0.3734 -0.3470
   25SAPC  H17R 3328   6.769   3.858   8.079  0.5383  0.1015  0.5355
   25SAPC  H17S 3329   6.727   3.727   8.183  2.3390  0.2309 -1.6444
   25SAPC  C218 3330   6.563   3.884   8.156 -0.2043 -0.5100 -0.3243
   25SAPC  H18R 3331   6.494   3.897   8.070 -1.6471 -0.8052  0.7601
   25SAPC  H18S 3332   6.604   3.980   8.194  0.8016 -0.6878 -0.9143
   25SAPC  C219 3333   6.489   3.819   8.272  0.4853 -0.6681 -0.1561
   25SAPC  H19R 3334   6.558   3.792   8.355 -0.4015 -1.2552  0.3981
   25SAPC  H19S 3335   6.438   3.727   8.237 -0.0378  0.1023 -1.5067
   25SAPC  C220 3336   6.384   3.911   8.329  0.6996  0.1394  0.6723
   25SAPC  H20R 3337   6.327   3.856   8.407 -1.3380 -0.5206 -1.1900
   25SAPC  H20S 3338   6.317   3.942   8.246  1.2759 -0.4730 -0.0349
   25SAPC  H20T 3339   6.412   4.006   8.380 -0.3415 -0.2344  1.9994
   25SAPC   C33 3340   7.137   3.733   7.037 -0.6659  0.1584  0.2274
   25SAPC   H3X 3341   7.171   3.627   7.042  0.1079  0.3748 -0.3187
   25SAPC   H3Y 3342   7.032   3.733   7.002 -0.3637 -2.0416 -0.8642
   25SAPC   C34 3343   7.164   3.804   7.167 -0.1658 -0.0272  0.0174
   25SAPC   H4X 3344   7.127   3.907   7.144 -0.8395 -0.5175 -1.2288
   25SAPC   H4Y 3345   7.275   3.807   7.172 -0.0909  0.2947 -1.4551
   25SAPC   C35 3346   7.107   3.743   7.292 -1.0093  0.6427 -0.2544
   25SAPC   H5X 3347   6.998   3.723   7.294 -1.0106  0.7185  1.5834
   25SAPC   H5Y 3348   7.119   3.831   7.358 -0.0620  0.1279  0.2774
   25SAPC   C36 3349   7.191   3.629   7.359 -0.6742  0.8051 -0.3743
   25SAPC   H6X 3350   7.300   3.649   7.372 -0.8425  0.8105  1.2373
   25SAPC   H6Y 3351   7.186   3.539   7.293  0.9601 -1.0321  1.8409
   25SAPC   C37 3352   7.149   3.608   7.503  0.5969 -0.1178 -0.0847
   25SAPC   H7X 3353   7.039   3.595   7.499  0.4140  1.2406 -0.0236
   25SAPC   H7Y 3354   7.154   3.699   7.566 -2.0586  1.0691 -1.4098
   25SAPC   C38 3355   7.223   3.492   7.576  0.3603 -0.0464 -1.1836
   25SAPC   H8X 3356   7.326   3.520   7.606  0.6935 -2.8186  0.6368
   25SAPC   H8Y 3357   7.232   3.410   7.501  0.7345 -2.2736  1.1495
   25SAPC   C39 3358   7.148   3.445   7.702  0.5786 -0.3883 -0.1639
   25SAPC   H9X 3359   7.050   3.393   7.696  1.8984 -3.2221  1.0630
   25SAPC   H9Y 3360   7.128   3.534   7.765 -2.2751 -1.6481  0.8912
   25SAPC  C310 3361   7.238   3.342   7.773 -0.3171 -0.7115  0.6365
   25SAPC  H10X 3362   7.342   3.375   7.789 -1.0765  2.3078  0.0391
   25SAPC  H10Y 3363   7.241   3.258   7.701 -1.3689  1.8719 -2.7127
   25SAPC  C311 3364   7.184   3.301   7.911 -0.2444 -0.3760  0.1594
   25SAPC  H11X 3365   7.245   3.210   7.932 -0.1343 -0.7954 -1.8564
   25SAPC  H11Y 3366   7.082   3.258   7.898  0.4715 -2.6550  1.3267
   25SAPC  C312 3367   7.199   3.397   8.027  0.1427 -0.0384 -0.1703
   25SAPC  H12X 3368   7.118   3.473   8.021 -0.7480 -1.0388 -1.1782
   25SAPC  H12Y 3369   7.297   3.448   8.030  0.2401 -0.2023  2.4825
   25SAPC  C313 3370   7.169   3.323   8.162 -0.3536 -0.4963  0.5345
   25SAPC  H13X 3371   7.257   3.324   8.230  0.7777 -2.5906 -0.7888
   25SAPC  H13Y 3372   7.153   3.214   8.145 -0.1219 -0.4979  0.3292
   25SAPC  C314 3373   7.048   3.373   8.236 -0.5993  0.5751 -0.1210
   25SAPC  H14X 3374   7.052   3.484   8.224  1.6319  0.4562 -1.0660
   25SAPC  H14Y 3375   7.068   3.358   8.344  2.1792  1.8421 -0.3688
   25SAPC  C315 3376   6.919   3.319   8.180  0.3270 -0.0193  0.0808
   25SAPC  H15X 3377   6.937   3.216   8.141  1.4848  0.0193  0.5048
   25SAPC  H15Y 3378   6.905   3.371   8.082  0.9925  2.0000  1.0109
   25SAPC  C316 3379   6.804   3.310   8.278 -0.5721  0.5703 -0.1184
   25SAPC  H16X 3380   6.833   3.241   8.360  0.7755  3.4359  1.9473
   25SAPC  H16Y 3381   6.708   3.266   8.242 -3.7350  0.9278  6.4304
   25SAPC  C317 3382   6.763   3.443   8.346  0.3656  0.0524  0.0860
   25SAPC  H17X 3383   6.705   3.504   8.273  1.1707  1.8945  0.9226
   25SAPC  H17Y 3384   6.850   3.505   8.376  0.5811  1.2601 -2.7484
   25SAPC  C318 3385   6.671   3.414   8.467 -0.0405  0.1097 -0.2843
   25SAPC  H18X 3386   6.728   3.351   8.539  2.3260  2.4435  0.0548
   25SAPC  H18Y 3387   6.587   3.352   8.429  0.8148 -0.3981 -1.4243
   25SAPC  H18Z 3388   6.643   3.508   8.518  2.7482  1.1629 -0.5038
   26SAPC     N 3389   5.618   6.834   5.846  0.0555  0.5894 -0.1908
   26SAPC   C12 3390   5.624   6.833   5.993  0.0643  0.7639  0.1841
   26SAPC  H12A 3391   5.724   6.863   6.022  1.2796 -0.8127 -2.0277
   26SAPC  H12B 3392   5.615   6.729   6.022  1.3891  0.2513 -1.0747
   26SAPC   C13 3393   5.577   6.968   5.789  0.2732 -0.3032  0.3357
   26SAPC  H13A 3394   5.548   6.950   5.687 -2.4176 -1.7679  1.2702
   26SAPC  H13B 3395   5.488   7.005   5.837  0.0481  1.0343 -1.0289
   26SAPC  H13C 3396   5.653   7.046   5.797 -0.3844  0.2301  1.6479
   26SAPC   C14 3397   5.757   6.788   5.797 -0.1141 -0.0424 -0.0226
   26SAPC  H14A 3398   5.779   6.683   5.812 -1.6410 -0.7904 -2.3980
   26SAPC  H14B 3399   5.760   6.789   5.689 -0.5221 -1.1772 -0.0643
   26SAPC  H14C 3400   5.842   6.844   5.833  1.5474 -2.7243  0.5250
   26SAPC   C15 3401   5.510   6.733   5.805  0.3281  0.1152 -0.8943
   26SAPC  H15A 3402   5.414   6.749   5.852  0.7656 -1.2687  0.5418
   26SAPC  H15B 3403   5.500   6.716   5.699 -0.8975  1.0361 -0.9446
   26SAPC  H15C 3404   5.542   6.635   5.839 -2.9572 -0.5181  0.7513
   26SAPC   C11 3405   5.515   6.911   6.076 -0.4087  0.1501  0.5229
   26SAPC  H11A 3406   5.516   7.015   6.036  1.1282  1.1944  2.9805
   26SAPC  H11B 3407   5.554   6.903   6.180  0.3945 -0.8398  0.1670
   26SAPC     P 3408   5.330   6.778   6.191 -0.4390 -0.3035  0.5551
   26SAPC   O13 3409   5.268   6.879   6.283  0.3021 -0.1523 -0.0279
   26SAPC   O14 3410   5.256   6.660   6.154 -0.4704 -0.3669  0.0795
   26SAPC   O12 3411   5.390   6.852   6.061 -0.1154  0.2156 -0.5710
   26SAPC   O11 3412   5.459   6.713   6.260 -0.5181  0.4496 -0.6196
   26SAPC    C1 3413   5.477   6.706   6.401 -0.2585  0.5891  0.1720
   26SAPC    HA 3414   5.583   6.708   6.434 -0.7408 -1.1651  2.0288
   26SAPC    HB 3415   5.408   6.773   6.457 -2.4713  0.0088 -1.7115
   26SAPC    C2 3416   5.431   6.562   6.441 -0.3594  0.0013 -0.1599
   26SAPC    HS 3417   5.326   6.556   6.406  0.1448  2.4535 -2.4689
   26SAPC   O21 3418   5.430   6.555   6.589 -0.2051  0.8281 -0.2822
   26SAPC   C21 3419   5.358   6.451   6.630 -0.2136  0.3282 -0.1066
   26SAPC   O22 3420   5.298   6.377   6.558 -0.7341 -0.1980  0.2737
   26SAPC   C22 3421   5.349   6.462   6.781  0.0110  0.2133 -0.2412
   26SAPC   H2R 3422   5.451   6.465   6.824 -0.1894 -0.4059  0.3125
   26SAPC   H2S 3423   5.291   6.553   6.808 -0.9832 -0.4856  0.0424
   26SAPC    C3 3424   5.533   6.459   6.375  0.0292 -0.8067 -0.1399
   26SAPC    HX 3425   5.515   6.497   6.273 -0.7751 -3.6545 -1.1698
   26SAPC    HY 3426   5.495   6.354   6.370 -0.4246 -0.5920 -2.6313
   26SAPC   O31 3427   5.675   6.473   6.422 -0.5569  0.3871  0.3689
   26SAPC   C31 3428   5.715   6.410   6.529 -0.5413 -0.8289 -0.4950
   26SAPC   O32 3429   5.647   6.343   6.603 -0.3253  1.2377  1.2953
   26SAPC   C32 3430   5.856   6.444   6.558  0.2856 -0.0720 -0.1124
   26SAPC   H2X 3431   5.871   6.554   6.554  1.1073 -0.1448  0.7590
   26SAPC   H2Y 3432   5.923   6.391   6.487 -0.1068 -0.3661 -0.2706
   26SAPC   C23 3433   5.282   6.343   6.853  0.0902  0.5823 -0.4658
   26SAPC   H3R 3434   5.310   6.238   6.828  0.3661  0.2730  1.0625
   26SAPC   H3S 3435   5.173   6.361   6.843 -0.0084  0.1910 -0.0977
   26SAPC   C24 3436   5.302   6.339   7.014 -0.0029  0.3533  0.1586
   26SAPC   H4R 3437   5.399   6.285   7.026 -1.0417 -1.2438  1.7736
   26SAPC   H4S 3438   5.228   6.266   7.053  1.0713  0.3268  2.3086
   26SAPC   C25 3439   5.298   6.474   7.080  0.8188  0.3172  0.5862
   26SAPC   H5R 3440   5.363   6.553   7.039  1.9328  0.7042  2.9387
   26SAPC   C26 3441   5.241   6.492   7.200 -0.4328 -0.3979 -0.3828
   26SAPC   H6R 3442   5.242   6.591   7.248 -0.4725 -0.9272  0.7568
   26SAPC   C27 3443   5.177   6.386   7.284 -0.0639 -0.1716 -0.1707
   26SAPC   H7R 3444   5.242   6.300   7.311 -0.7832 -0.1847  1.6392
   26SAPC   H7S 3445   5.100   6.340   7.218  0.7528  0.0897 -1.3355
   26SAPC   C28 3446   5.115   6.436   7.411 -0.2308 -0.2005 -0.5132
   26SAPC   H8R 3447   5.005   6.433   7.403 -0.2005  0.5705 -1.3090
   26SAPC   C29 3448   5.181   6.447   7.526  0.4686  0.4471  0.3504
   26SAPC   H9R 3449   5.120   6.464   7.617 -0.9345 -1.2480 -0.2166
   26SAPC  C210 3450   5.333   6.423   7.542  0.2640  0.0160 -0.0287
   26SAPC  H10R 3451   5.376   6.406   7.440 -2.4402 -0.8929 -1.1303
   26SAPC  H10S 3452   5.348   6.323   7.589  1.9319 -1.8863 -4.0799
   26SAPC  C211 3453   5.406   6.526   7.624  0.8829  0.0307  0.2649
   26SAPC  H11R 3454   5.410   6.512   7.733 -0.0023 -0.7006  0.2097
   26SAPC  C212 3455   5.458   6.643   7.585 -0.2654 -0.3563  0.1785
   26SAPC  H12R 3456   5.518   6.698   7.660 -1.3386 -2.0953  2.4496
   26SAPC  C213 3457   5.457   6.708   7.445 -0.6783  0.6679 -0.3760
   26SAPC  H13R 3458   5.350   6.716   7.415 -0.1660 -0.3913 -2.6158
   26SAPC  H13S 3459   5.515   6.639   7.381  0.8639  0.3779  1.2545
   26SAPC  C214 3460   5.521   6.843   7.437  0.4671 -0.1724 -0.3992
   26SAPC  H14R 3461   5.588   6.871   7.519  1.1524 -1.1830 -0.5796
   26SAPC  C215 3462   5.517   6.928   7.331 -0.7870  0.5706  0.8132
   26SAPC  H15R 3463   5.570   7.023   7.345  1.6800 -0.4995 -0.5637
   26SAPC  C216 3464   5.438   6.906   7.206  0.8178  0.5319 -0.2786
   26SAPC  H16R 3465   5.362   6.986   7.190 -1.6056 -1.6058 -0.0765
   26SAPC  H16S 3466   5.380   6.811   7.205  2.2913 -0.4026  0.2834
   26SAPC  C217 3467   5.538   6.918   7.091 -0.6137 -0.1345  0.5107
   26SAPC  H17R 3468   5.618   6.845   7.116  0.3583  0.3430 -1.0257
   26SAPC  H17S 3469   5.579   7.019   7.073 -1.2973 -0.0732 -0.8594
   26SAPC  C218 3470   5.488   6.868   6.947  0.3366 -1.1558 -0.6270
   26SAPC  H18R 3471   5.414   6.789   6.970  0.7698 -1.9246 -1.7819
   26SAPC  H18S 3472   5.577   6.822   6.898  2.2182 -0.5066  1.9631
   26SAPC  C219 3473   5.422   6.980   6.859  0.4686 -0.2233  0.2915
   26SAPC  H19R 3474   5.492   7.060   6.827 -0.3340  0.0147 -0.9451
   26SAPC  H19S 3475   5.352   7.041   6.921 -0.0757  1.7999 -2.1320
   26SAPC  C220 3476   5.351   6.913   6.740 -0.5312 -0.2713  0.3144
   26SAPC  H20R 3477   5.268   6.845   6.769 -1.1483  0.0279 -0.7054
   26SAPC  H20S 3478   5.424   6.850   6.685 -0.4199  0.0567  0.0776
   26SAPC  H20T 3479   5.319   6.992   6.668 -3.0566 -1.7230 -0.2826
   26SAPC   C33 3480   5.903   6.400   6.695 -0.4969  0.6956 -1.2173
   26SAPC   H3X 3481   6.008   6.416   6.726 -0.4510 -0.6197 -0.6170
   26SAPC   H3Y 3482   5.892   6.290   6.709  0.0982  0.7565 -0.1420
   26SAPC   C34 3483   5.828   6.463   6.814  0.5990 -0.2937 -0.5870
   26SAPC   H4X 3484   5.721   6.436   6.805 -0.3673  2.5490  1.1992
   26SAPC   H4Y 3485   5.836   6.573   6.805 -0.6044 -0.2888 -1.9741
   26SAPC   C35 3486   5.891   6.437   6.952 -0.5713  0.2672  0.2354
   26SAPC   H5X 3487   6.001   6.429   6.943 -0.5686 -0.6357  0.9353
   26SAPC   H5Y 3488   5.862   6.338   6.995 -1.2763 -0.0351 -0.9011
   26SAPC   C36 3489   5.860   6.544   7.061  0.0993 -0.6289  0.1397
   26SAPC   H6X 3490   5.759   6.511   7.097  0.6743 -3.0751 -0.2941
   26SAPC   H6Y 3491   5.842   6.644   7.016 -0.5312 -0.6157  0.4013
   26SAPC   C37 3492   5.960   6.549   7.177  0.5212 -0.0997  0.0371
   26SAPC   H7X 3493   6.045   6.609   7.139  0.1527  1.6666  1.7768
   26SAPC   H7Y 3494   5.988   6.447   7.211  0.4127 -0.6048 -1.3319
   26SAPC   C38 3495   5.902   6.602   7.306 -0.1119  0.2714 -0.4882
   26SAPC   H8X 3496   5.806   6.552   7.330 -0.4198  1.1708  0.1882
   26SAPC   H8Y 3497   5.887   6.712   7.303  0.9067  0.4064 -1.3029
   26SAPC   C39 3498   6.004   6.587   7.423  0.4592 -0.6717 -0.6796
   26SAPC   H9X 3499   6.107   6.606   7.388  0.2351 -0.7872 -1.4147
   26SAPC   H9Y 3500   6.013   6.480   7.450 -0.5399 -0.5467  0.2397
   26SAPC  C310 3501   5.970   6.682   7.544 -0.0626  0.2871 -0.1958
   26SAPC  H10X 3502   5.955   6.782   7.499  0.1010  1.0136  1.3005
   26SAPC  H10Y 3503   6.062   6.704   7.601 -0.1702  2.5906 -0.8079
   26SAPC  C311 3504   5.851   6.638   7.634 -0.2875 -0.2352  0.3825
   26SAPC  H11X 3505   5.887   6.553   7.695  0.3869  0.6910  1.3254
   26SAPC  H11Y 3506   5.758   6.613   7.578 -2.2904  1.6949  2.6244
   26SAPC  C312 3507   5.827   6.753   7.736  0.2682  0.8666 -0.4315
   26SAPC  H12X 3508   5.762   6.817   7.672 -2.2820 -0.1294  1.0241
   26SAPC  H12Y 3509   5.927   6.802   7.742  0.9238 -0.0822 -2.4898
   26SAPC  C313 3510   5.767   6.712   7.871 -0.5684 -1.1059 -0.2828
   26SAPC  H13X 3511   5.817   6.617   7.900  2.0772  0.4566  0.5929
   26SAPC  H13Y 3512   5.656   6.704   7.861 -0.6847  0.9847 -1.2921
   26SAPC  C314 3513   5.805   6.824   7.972 -0.1905  0.1684 -0.3444
   26SAPC  H14X 3514   5.775   6.921   7.928  2.3548  0.7568 -0.9792
   26SAPC  H14Y 3515   5.916   6.825   7.976 -0.1550 -0.1162 -1.0690
   26SAPC  C315 3516   5.743   6.800   8.108  0.2696  0.0248  0.3055
   26SAPC  H15X 3517   5.772   6.696   8.131  1.8661  0.1699 -0.8762
   26SAPC  H15Y 3518   5.634   6.809   8.087 -0.1670  1.8120  2.8447
   26SAPC  C316 3519   5.784   6.906   8.213 -0.1495 -0.2795 -0.4442
   26SAPC  H16X 3520   5.759   7.005   8.172 -1.7479 -0.9365 -1.1136
   26SAPC  H16Y 3521   5.894   6.890   8.223 -0.4486 -1.6041  1.3581
   26SAPC  C317 3522   5.727   6.883   8.349  0.4724 -0.0904 -0.2624
   26SAPC  H17X 3523   5.789   6.928   8.429 -0.7358  1.9620 -0.4298
   26SAPC  H17Y 3524   5.736   6.776   8.379  0.5271  0.7199  2.9756
   26SAPC  C318 3525   5.593   6.936   8.373  0.3802  0.4806  0.3545
   26SAPC  H18X 3526   5.515   6.862   8.344  0.8148  0.4419 -0.7388
   26SAPC  H18Y 3527   5.573   7.030   8.318  0.5989  1.4349  1.8404
   26SAPC  H18Z 3528   5.579   6.959   8.481 -1.0784 -0.8664  0.4915
   27SAPC     N 3529   3.886   5.920   6.166 -0.0655 -0.1521  0.6350
   27SAPC   C12 3530   3.854   6.022   6.275 -0.3030  0.0512  0.6378
   27SAPC  H12A 3531   3.749   6.049   6.274 -0.3060  0.0614  1.1571
   27SAPC  H12B 3532   3.919   6.105   6.249 -1.8213  1.0204 -0.2159
   27SAPC   C13 3533   3.812   5.795   6.189  0.9204 -0.8598 -0.4843
   27SAPC  H13A 3534   3.833   5.729   6.106  0.2272 -0.2946 -1.1257
   27SAPC  H13B 3535   3.840   5.750   6.283  2.0309  1.0603  0.1762
   27SAPC  H13C 3536   3.710   5.824   6.171  1.1881 -0.8065 -2.1304
   27SAPC   C14 3537   3.846   5.984   6.030  0.2353 -0.4260 -0.0873
   27SAPC  H14A 3538   3.851   5.909   5.953 -0.8515 -2.6145  1.8448
   27SAPC  H14B 3539   3.745   6.022   6.022  0.8026  0.7650 -2.2313
   27SAPC  H14C 3540   3.912   6.064   6.001 -1.2590  1.0434  0.4054
   27SAPC   C15 3541   4.036   5.891   6.167  0.3743  0.4371  1.1858
   27SAPC  H15A 3542   4.054   5.831   6.254 -4.0542 -0.2655  1.8246
   27SAPC  H15B 3543   4.066   5.837   6.078  0.4653 -2.3761  2.8349
   27SAPC  H15C 3544   4.094   5.983   6.173  2.6916 -0.7660 -0.7077
   27SAPC   C11 3545   3.871   5.994   6.426  0.2895 -0.2302 -0.4491
   27SAPC  H11A 3546   3.852   6.092   6.476  0.5740  0.4195 -1.5731
   27SAPC  H11B 3547   3.975   5.963   6.450 -0.1577 -0.4539  1.3365
   27SAPC     P 3548   3.635   5.924   6.515  0.0242  0.1000 -0.0586
   27SAPC   O13 3549   3.567   5.996   6.405  0.3856  0.2011  0.0056
   27SAPC   O14 3550   3.583   5.789   6.550  0.6164  0.1852 -0.3378
   27SAPC   O12 3551   3.781   5.895   6.471 -0.4939 -0.0285  0.2799
   27SAPC   O11 3552   3.657   6.024   6.631  0.1709  0.4317 -0.4602
   27SAPC    C1 3553   3.573   6.140   6.643 -0.6493 -0.0120  0.7416
   27SAPC    HA 3554   3.552   6.194   6.549 -0.0680  1.4856  1.4416
   27SAPC    HB 3555   3.478   6.103   6.688 -0.5894  0.5327  1.3448
   27SAPC    C2 3556   3.635   6.226   6.745 -0.2008  0.7961  0.0627
   27SAPC    HS 3557   3.719   6.282   6.699  1.4860  0.7305  2.8446
   27SAPC   O21 3558   3.674   6.153   6.863 -0.3342 -0.2155 -0.2135
   27SAPC   C21 3559   3.757   6.219   6.942 -0.2272  0.5663  0.3503
   27SAPC   O22 3560   3.816   6.324   6.924 -0.2675  0.0790  0.4410
   27SAPC   C22 3561   3.783   6.126   7.063 -0.8601 -0.1690 -0.0447
   27SAPC   H2R 3562   3.689   6.125   7.123 -0.3895 -1.3673  0.7089
   27SAPC   H2S 3563   3.797   6.024   7.024 -1.5845  0.9587 -3.5652
   27SAPC    C3 3564   3.537   6.342   6.774 -0.1958 -0.4057  0.3070
   27SAPC    HX 3565   3.510   6.378   6.673 -1.3463 -2.2228 -0.0791
   27SAPC    HY 3566   3.584   6.427   6.828 -0.2753  0.5266 -1.0439
   27SAPC   O31 3567   3.411   6.301   6.835 -0.4537 -0.3570 -0.4630
   27SAPC   C31 3568   3.403   6.315   6.973  0.1448 -0.2999 -0.1104
   27SAPC   O32 3569   3.489   6.367   7.044 -0.2795  0.5272 -0.1997
   27SAPC   C32 3570   3.270   6.251   7.016 -0.8574  0.3143  0.6266
   27SAPC   H2X 3571   3.235   6.177   6.941  1.2345 -1.9928  1.7853
   27SAPC   H2Y 3572   3.194   6.330   7.031 -1.6802 -0.3001 -0.1184
   27SAPC   C23 3573   3.903   6.178   7.147  0.1249  0.1436  0.0465
   27SAPC   H3R 3574   3.871   6.278   7.184 -0.5517  0.0909 -0.3837
   27SAPC   H3S 3575   3.995   6.192   7.087  0.1447 -0.6774 -0.1270
   27SAPC   C24 3576   3.928   6.088   7.273 -0.3509  0.1240  0.7391
   27SAPC   H4R 3577   3.837   6.098   7.337  1.1962  1.3856  2.8773
   27SAPC   H4S 3578   4.007   6.142   7.329 -0.6547  1.8735 -0.4242
   27SAPC   C25 3579   3.981   5.954   7.226  0.2941 -0.1749  0.4080
   27SAPC   H5R 3580   4.024   5.947   7.125 -0.2392  1.8589  0.0148
   27SAPC   C26 3581   3.997   5.844   7.307  0.1302 -0.2064 -0.5512
   27SAPC   H6R 3582   4.058   5.762   7.267  1.5175  1.4972 -2.0559
   27SAPC   C27 3583   3.946   5.829   7.451 -0.1715  1.5954  0.2204
   27SAPC   H7R 3584   3.963   5.724   7.484 -2.6644  1.9497  3.0113
   27SAPC   H7S 3585   3.838   5.848   7.466 -0.7278 -1.1313  0.1882
   27SAPC   C28 3586   4.027   5.912   7.546 -0.1718  0.0433 -0.4794
   27SAPC   H8R 3587   4.090   5.991   7.503 -0.9473  0.1935 -1.3824
   27SAPC   C29 3588   4.003   5.907   7.685 -0.6945 -0.1297 -0.0743
   27SAPC   H9R 3589   4.070   5.952   7.759 -1.6374 -0.6900  1.1602
   27SAPC  C210 3590   3.899   5.828   7.755  0.8656  0.3632  0.0265
   27SAPC  H10R 3591   3.798   5.840   7.709  1.0238 -0.7182 -0.6418
   27SAPC  H10S 3592   3.881   5.870   7.856 -1.0264  0.4949 -0.3154
   27SAPC  C211 3593   3.936   5.675   7.774  0.6838 -0.2310  0.3075
   27SAPC  H11R 3594   3.926   5.616   7.681  2.4472 -0.2473  0.0885
   27SAPC  C212 3595   3.985   5.609   7.877  0.0515 -0.1231 -0.8156
   27SAPC  H12R 3596   4.024   5.507   7.858 -1.0087 -0.1124 -3.3998
   27SAPC  C213 3597   4.016   5.674   8.015  0.7898 -0.2465  0.5483
   27SAPC  H13R 3598   4.001   5.784   8.006 -0.1043 -0.4191 -0.3120
   27SAPC  H13S 3599   4.114   5.652   8.062  1.4838  2.1772  0.3967
   27SAPC  C214 3600   3.901   5.650   8.116  0.1544 -0.3994  1.1237
   27SAPC  H14R 3601   3.801   5.640   8.070 -0.1583  3.1352  0.7403
   27SAPC  C215 3602   3.919   5.664   8.251 -0.0617 -0.2690 -0.1773
   27SAPC  H15R 3603   3.835   5.647   8.321  1.0187  0.5708  1.3948
   27SAPC  C216 3604   4.052   5.698   8.321  0.2186 -0.0279 -0.4807
   27SAPC  H16R 3605   4.031   5.781   8.391  1.1303  1.2785 -1.6987
   27SAPC  H16S 3606   4.125   5.744   8.250 -1.1964  1.0284 -1.3008
   27SAPC  C217 3607   4.096   5.574   8.404 -0.0500 -0.2465 -0.0462
   27SAPC  H17R 3608   4.186   5.603   8.463 -0.0960  0.2849 -0.2255
   27SAPC  H17S 3609   4.138   5.497   8.338  2.3981  1.3601 -0.4812
   27SAPC  C218 3610   3.997   5.513   8.503  0.0198 -0.4365  0.1408
   27SAPC  H18R 3611   3.924   5.454   8.444  0.6162 -0.4827 -0.5562
   27SAPC  H18S 3612   3.942   5.596   8.552  0.0565 -0.1573 -0.2921
   27SAPC  C219 3613   4.067   5.421   8.602  0.5093  0.3978  0.5236
   27SAPC  H19R 3614   4.156   5.458   8.657  0.9478  0.2320 -0.0621
   27SAPC  H19S 3615   4.098   5.333   8.542  0.2287  0.3386  0.4611
   27SAPC  C220 3616   3.968   5.380   8.705  1.0422 -0.3624  0.7083
   27SAPC  H20R 3617   3.882   5.325   8.661  2.1743 -0.3704 -1.6325
   27SAPC  H20S 3618   3.927   5.462   8.767  0.2536  0.1719 -0.5008
   27SAPC  H20T 3619   4.013   5.304   8.773  1.3101  0.0004  0.9441
   27SAPC   C33 3620   3.275   6.184   7.158 -0.2653 -0.4706 -0.0745
   27SAPC   H3X 3621   3.168   6.171   7.184 -1.0212  0.6010 -2.3764
   27SAPC   H3Y 3622   3.317   6.264   7.223  1.6009 -2.2125  0.9729
   27SAPC   C34 3623   3.351   6.052   7.161 -0.5859  0.3389 -0.0889
   27SAPC   H4X 3624   3.457   6.076   7.181 -0.5077  2.6354 -2.5813
   27SAPC   H4Y 3625   3.324   6.006   7.063 -1.4751  0.0161  0.3002
   27SAPC   C35 3626   3.295   5.968   7.276  0.3630  0.1340  0.2912
   27SAPC   H5X 3627   3.185   5.953   7.269  0.1185  1.1381  1.4920
   27SAPC   H5Y 3628   3.304   6.031   7.368 -2.3500  1.5770 -0.3230
   27SAPC   C36 3629   3.368   5.829   7.277 -0.8344 -0.5276 -0.1941
   27SAPC   H6X 3630   3.384   5.811   7.168  0.1917 -2.1945  0.1956
   27SAPC   H6Y 3631   3.309   5.748   7.325  1.4406 -1.6006  0.9485
   27SAPC   C37 3632   3.509   5.824   7.341 -1.1321  0.1492 -0.0098
   27SAPC   H7X 3633   3.558   5.907   7.287 -3.9876  0.5991 -2.1661
   27SAPC   H7Y 3634   3.564   5.733   7.311  0.2134  0.6259  0.9330
   27SAPC   C38 3635   3.513   5.853   7.494 -0.3696  0.1835 -0.2707
   27SAPC   H8X 3636   3.422   5.913   7.515 -0.5578 -0.0542 -0.4031
   27SAPC   H8Y 3637   3.597   5.920   7.521  1.5361 -1.7043 -1.2571
   27SAPC   C39 3638   3.500   5.734   7.590 -0.0498  0.8279  0.6325
   27SAPC   H9X 3639   3.586   5.665   7.573 -0.4062  0.7588 -1.0960
   27SAPC   H9Y 3640   3.409   5.675   7.564  0.1357  0.4105  0.9146
   27SAPC  C310 3641   3.513   5.768   7.735 -0.1832 -0.3488 -0.7898
   27SAPC  H10X 3642   3.424   5.817   7.780  0.1576 -0.3878 -0.0620
   27SAPC  H10Y 3643   3.597   5.833   7.766 -0.6339 -0.0759 -0.1147
   27SAPC  C311 3644   3.536   5.641   7.824  0.3840  0.1104  0.9088
   27SAPC  H11X 3645   3.638   5.602   7.805  0.4725 -0.1790  1.9304
   27SAPC  H11Y 3646   3.454   5.571   7.797  0.1095  0.5305  0.6280
   27SAPC  C312 3647   3.523   5.681   7.972  0.4037 -0.0873  0.0271
   27SAPC  H12X 3648   3.424   5.728   7.989  0.8538  0.8401  0.1499
   27SAPC  H12Y 3649   3.596   5.755   8.009  0.9372 -1.2282  1.3300
   27SAPC  C313 3650   3.532   5.560   8.061  0.4119  0.0185 -0.0143
   27SAPC  H13X 3651   3.632   5.515   8.043  0.2097 -0.6947  0.5827
   27SAPC  H13Y 3652   3.467   5.477   8.027  0.9684 -0.2522 -0.4299
   27SAPC  C314 3653   3.520   5.586   8.215 -0.0877 -0.1268 -0.1272
   27SAPC  H14X 3654   3.417   5.613   8.248  0.0659 -0.8337  0.9877
   27SAPC  H14Y 3655   3.590   5.667   8.244 -0.0121 -0.9519  2.1999
   27SAPC  C315 3656   3.583   5.476   8.298  0.9405  0.4075 -0.0643
   27SAPC  H15X 3657   3.693   5.472   8.284  0.6240 -1.7376 -2.6954
   27SAPC  H15Y 3658   3.545   5.378   8.261 -1.3901  1.2368 -0.0908
   27SAPC  C316 3659   3.554   5.493   8.449  0.2596  0.0106 -0.3602
   27SAPC  H16X 3660   3.447   5.510   8.473  0.5087  1.1431  0.0054
   27SAPC  H16Y 3661   3.622   5.577   8.474 -0.2965  0.9056 -1.7374
   27SAPC  C317 3662   3.608   5.365   8.528 -0.4463  0.0601 -0.5418
   27SAPC  H17X 3663   3.719   5.363   8.525 -0.2941 -2.5229  2.1281
   27SAPC  H17Y 3664   3.576   5.272   8.477  0.4525 -0.7353  0.2993
   27SAPC  C318 3665   3.564   5.354   8.673  0.2799  0.2242 -0.5626
   27SAPC  H18X 3666   3.561   5.459   8.712  0.8690  0.7847 -1.9592
   27SAPC  H18Y 3667   3.635   5.291   8.730 -0.1708  1.1145  1.0638
   27SAPC  H18Z 3668   3.461   5.320   8.696  0.0344  1.2282 -0.0731
   28SAPC     N 3669   2.662   0.903   5.917 -0.6630  0.0086 -1.3354
   28SAPC   C12 3670   2.605   0.894   6.056 -0.3232  0.4889  0.3678
   28SAPC  H12A 3671   2.532   0.815   6.053 -1.4896  1.5526 -0.0847
   28SAPC  H12B 3672   2.552   0.985   6.080 -0.6451 -0.2545  2.7429
   28SAPC   C13 3673   2.561   0.874   5.813 -0.6096  0.1242  0.4684
   28SAPC  H13A 3674   2.618   0.867   5.721  1.7488 -1.2905  1.9612
   28SAPC  H13B 3675   2.516   0.776   5.823 -2.0604  0.6694 -0.2843
   28SAPC  H13C 3676   2.479   0.944   5.801 -1.7937 -1.3612 -0.4931
   28SAPC   C14 3677   2.717   1.049   5.889 -0.0920  0.6891 -0.2994
   28SAPC  H14A 3678   2.784   1.073   5.970 -2.0022  1.9751  0.9956
   28SAPC  H14B 3679   2.759   1.057   5.791 -2.7053 -0.0660 -1.5738
   28SAPC  H14C 3680   2.639   1.122   5.906 -0.3996  0.2619  0.1900
   28SAPC   C15 3681   2.785   0.812   5.892 -0.0357  0.7521 -0.1292
   28SAPC  H15A 3682   2.866   0.843   5.956  0.6795  2.2680 -1.6998
   28SAPC  H15B 3683   2.756   0.709   5.910 -0.0615  0.6366 -0.8043
   28SAPC  H15C 3684   2.810   0.821   5.787 -1.0997 -0.3017 -0.5035
   28SAPC   C11 3685   2.711   0.855   6.163 -0.2633  0.0164  0.2168
   28SAPC  H11A 3686   2.749   0.759   6.122 -0.4294  0.0068  0.0822
   28SAPC  H11B 3687   2.650   0.831   6.252  0.1801  3.0097  1.4440
   28SAPC     P 3688   2.784   1.068   6.271  0.2200  0.2475 -0.0847
   28SAPC   O13 3689   2.854   1.178   6.205  0.8542 -0.3685 -0.3134
   28SAPC   O14 3690   2.637   1.073   6.295  0.3800 -0.7004 -0.6113
   28SAPC   O12 3691   2.812   0.947   6.178 -0.3355  0.1907  0.8460
   28SAPC   O11 3692   2.860   1.019   6.402  0.2331 -0.8778 -0.1491
   28SAPC    C1 3693   2.999   1.065   6.431  0.1514  0.4028 -0.5485
   28SAPC    HA 3694   3.057   0.971   6.434  0.0423  0.0272 -4.6441
   28SAPC    HB 3695   3.046   1.129   6.353 -0.8718  1.3658 -0.4133
   28SAPC    C2 3696   3.016   1.148   6.560  0.7721 -0.0893 -0.5181
   28SAPC    HS 3697   3.124   1.161   6.584  0.1903 -1.1087  3.5193
   28SAPC   O21 3698   2.945   1.094   6.671  0.4091 -0.0716  0.2108
   28SAPC   C21 3699   3.007   0.990   6.725 -0.5096 -0.5678  0.0300
   28SAPC   O22 3700   3.113   0.937   6.682  0.7876  0.3017 -0.6268
   28SAPC   C22 3701   2.950   0.966   6.858  0.4411  0.7238 -0.0320
   28SAPC   H2R 3702   2.937   1.064   6.908  2.0521  1.3506 -0.7675
   28SAPC   H2S 3703   2.850   0.921   6.845  0.1026  1.1615  1.0110
   28SAPC    C3 3704   2.953   1.291   6.537 -0.0491 -0.1427  0.3041
   28SAPC    HX 3705   2.844   1.286   6.514  0.0746 -0.6382 -0.2113
   28SAPC    HY 3706   2.994   1.330   6.441  0.0594  1.0111  0.8038
   28SAPC   O31 3707   2.964   1.380   6.653 -0.4061  0.3767  0.0768
   28SAPC   C31 3708   2.890   1.496   6.636  0.3156 -0.2877  0.1226
   28SAPC   O32 3709   2.855   1.536   6.528  0.0633 -0.3846 -0.1145
   28SAPC   C32 3710   2.877   1.570   6.766  0.0344 -0.4038 -0.2727
   28SAPC   H2X 3711   2.977   1.555   6.811 -0.8165 -1.6116  1.3423
   28SAPC   H2Y 3712   2.803   1.507   6.820  1.0139 -1.4304 -0.0845
   28SAPC   C23 3713   3.038   0.865   6.937  0.8739  0.2978 -0.4531
   28SAPC   H3R 3714   3.133   0.914   6.970  0.9666 -1.1091  1.5145
   28SAPC   H3S 3715   3.063   0.782   6.868 -1.2780 -0.9325  0.1903
   28SAPC   C24 3716   2.960   0.805   7.061  0.1023  1.1209 -0.5356
   28SAPC   H4R 3717   2.939   0.885   7.135  1.1739  1.0648 -0.1537
   28SAPC   H4S 3718   2.866   0.771   7.012 -0.7756  1.3522  0.9254
   28SAPC   C25 3719   3.025   0.689   7.122  0.6902  0.1096 -0.9456
   28SAPC   H5R 3720   3.061   0.609   7.055 -1.9513 -2.1437  0.1250
   28SAPC   C26 3721   3.036   0.672   7.256 -0.6026  0.6358 -0.0244
   28SAPC   H6R 3722   3.079   0.579   7.294 -0.1475  1.5988  1.9884
   28SAPC   C27 3723   2.990   0.757   7.373 -0.0567  0.3861 -0.2187
   28SAPC   H7R 3724   2.915   0.693   7.423  2.0566 -1.5689  0.6160
   28SAPC   H7S 3725   2.926   0.841   7.338 -0.5376 -0.5622 -1.6788
   28SAPC   C28 3726   3.100   0.780   7.469  0.4377  0.1790 -0.0899
   28SAPC   H8R 3727   3.193   0.823   7.428  1.5054 -1.0716  0.9213
   28SAPC   C29 3728   3.096   0.767   7.599  1.1037  0.0671 -0.4017
   28SAPC   H9R 3729   3.183   0.797   7.660 -0.3778  1.1946  1.2202
   28SAPC  C210 3730   2.984   0.705   7.691  0.1057 -0.1764  0.3533
   28SAPC  H10R 3731   3.023   0.611   7.736 -0.1332 -0.4002  0.0978
   28SAPC  H10S 3732   2.892   0.689   7.631  1.3721 -0.3566 -1.6335
   28SAPC  C211 3733   2.961   0.802   7.806 -0.2118 -0.0762 -0.1479
   28SAPC  H11R 3734   3.040   0.815   7.882 -1.6076  3.9363  0.9085
   28SAPC  C212 3735   2.850   0.874   7.833  0.3586  0.4077 -0.1315
   28SAPC  H12R 3736   2.856   0.945   7.917 -2.3265  1.7418 -0.9389
   28SAPC  C213 3737   2.728   0.890   7.746 -0.3892 -0.2525 -0.4195
   28SAPC  H13R 3738   2.643   0.930   7.805  0.0931 -1.8873  1.5152
   28SAPC  H13S 3739   2.689   0.795   7.704 -1.9069  0.7095 -1.2664
   28SAPC  C214 3740   2.752   0.993   7.634 -0.7250 -0.5328 -0.1770
   28SAPC  H14R 3741   2.821   1.074   7.663 -1.4413 -0.6390  1.9922
   28SAPC  C215 3742   2.710   0.991   7.505  0.4431 -0.9605 -0.5730
   28SAPC  H15R 3743   2.730   1.073   7.435 -0.6619 -0.7190 -0.6230
   28SAPC  C216 3744   2.633   0.869   7.448 -0.0115 -0.0694  0.1281
   28SAPC  H16R 3745   2.535   0.858   7.498 -0.9455  3.7566 -0.5622
   28SAPC  H16S 3746   2.682   0.770   7.460 -0.3143 -0.2300  0.0603
   28SAPC  C217 3747   2.619   0.886   7.298  0.1955  0.1976 -0.2584
   28SAPC  H17R 3748   2.711   0.928   7.252  2.1809 -1.3061  2.0216
   28SAPC  H17S 3749   2.545   0.965   7.277 -0.2295 -0.2348 -0.4185
   28SAPC  C218 3750   2.567   0.760   7.227 -0.0919 -0.4369 -0.0017
   28SAPC  H18R 3751   2.488   0.716   7.292  0.2343 -0.7110  0.2154
   28SAPC  H18S 3752   2.648   0.684   7.225  0.8732  0.5014  1.3515
   28SAPC  C219 3753   2.498   0.795   7.093  0.1495  0.1415 -0.2808
   28SAPC  H19R 3754   2.454   0.897   7.095 -0.2817 -0.0559  0.2887
   28SAPC  H19S 3755   2.414   0.727   7.068 -1.4438  1.3504  1.5043
   28SAPC  C220 3756   2.595   0.818   6.972 -0.2794 -0.2069  0.0185
   28SAPC  H20R 3757   2.643   0.720   6.952 -1.8783 -0.9944 -0.1294
   28SAPC  H20S 3758   2.667   0.902   6.981  0.1001 -0.4608 -0.5792
   28SAPC  H20T 3759   2.525   0.838   6.887 -3.0938  1.3827  2.5187
   28SAPC   C33 3760   2.837   1.715   6.739 -0.1679  0.2059 -0.3422
   28SAPC   H3X 3761   2.749   1.731   6.673 -0.0807  1.0135 -0.2670
   28SAPC   H3Y 3762   2.922   1.767   6.690  0.5909 -0.5696  0.1131
   28SAPC   C34 3763   2.811   1.781   6.877 -0.0181  0.2528  0.0211
   28SAPC   H4X 3764   2.889   1.735   6.942  0.1285 -0.1775 -0.4522
   28SAPC   H4Y 3765   2.708   1.756   6.911 -0.4268  0.4160 -1.0625
   28SAPC   C35 3766   2.829   1.935   6.870  0.0956  0.5498 -0.2073
   28SAPC   H5X 3767   2.774   1.981   6.785 -0.0559  0.9548  0.1075
   28SAPC   H5Y 3768   2.938   1.946   6.851  0.4094 -2.4729 -0.5645
   28SAPC   C36 3769   2.789   2.011   6.997 -0.2111  0.2923  0.2304
   28SAPC   H6X 3770   2.678   2.020   6.998 -0.1443  1.2080 -0.1564
   28SAPC   H6Y 3771   2.836   2.111   6.983 -2.4632  1.2392 -1.0780
   28SAPC   C37 3772   2.837   1.953   7.133 -0.2252 -0.2463  0.7155
   28SAPC   H7X 3773   2.942   1.919   7.122  0.0029 -0.0787  2.2435
   28SAPC   H7Y 3774   2.758   1.879   7.158 -3.1978  1.7876 -1.8490
   28SAPC   C38 3775   2.833   2.060   7.244  0.4188 -0.1513  0.1931
   28SAPC   H8X 3776   2.730   2.079   7.283  0.1079 -2.3056  0.5331
   28SAPC   H8Y 3777   2.871   2.162   7.219  0.4048 -0.0660  0.5133
   28SAPC   C39 3778   2.913   2.013   7.366 -0.6798 -0.0316  0.0813
   28SAPC   H9X 3779   3.020   1.995   7.341 -1.3836 -1.8116 -1.9924
   28SAPC   H9Y 3780   2.868   1.921   7.409 -2.1006  0.8817  0.6226
   28SAPC  C310 3781   2.918   2.106   7.488  0.0827 -0.2690 -0.4634
   28SAPC  H10X 3782   2.816   2.111   7.532  0.4265 -1.2613  0.4781
   28SAPC  H10Y 3783   2.956   2.206   7.460  0.2763 -0.2128 -0.0077
   28SAPC  C311 3784   3.007   2.045   7.600 -0.9844  0.5221 -0.4236
   28SAPC  H11X 3785   3.113   2.033   7.569 -1.0827 -2.2755  0.0483
   28SAPC  H11Y 3786   2.965   1.944   7.616 -0.7028  0.2702 -1.2233
   28SAPC  C312 3787   2.999   2.125   7.733 -0.2932 -0.0924 -0.2235
   28SAPC  H12X 3788   2.907   2.188   7.735 -0.5196 -0.4271  1.2031
   28SAPC  H12Y 3789   3.079   2.202   7.736 -0.1258 -0.1989 -1.4818
   28SAPC  C313 3790   3.014   2.045   7.856  0.0906  0.6144 -0.9527
   28SAPC  H13X 3791   3.113   1.995   7.849  0.6872  1.8377 -1.6950
   28SAPC  H13Y 3792   2.939   1.964   7.865 -0.2610  0.8624 -1.6253
   28SAPC  C314 3793   3.022   2.136   7.974  0.1483  0.2100  0.0196
   28SAPC  H14X 3794   2.941   2.211   7.963  0.2040  0.2900  0.1525
   28SAPC  H14Y 3795   3.126   2.174   7.969  0.5104 -0.5230  1.2959
   28SAPC  C315 3796   3.006   2.058   8.106 -0.1975  0.0536 -0.0631
   28SAPC  H15X 3797   2.927   1.980   8.100 -2.0421  1.8855 -0.3957
   28SAPC  H15Y 3798   2.969   2.133   8.178  1.2793 -0.1452  0.9638
   28SAPC  C316 3799   3.136   1.986   8.154 -0.5002  0.1567 -1.1455
   28SAPC  H16X 3800   3.171   1.915   8.077 -0.9729 -0.3847 -0.8722
   28SAPC  H16Y 3801   3.087   1.918   8.227 -2.4834  1.7316 -0.8901
   28SAPC  C317 3802   3.238   2.074   8.215 -0.5272 -0.5627  0.3868
   28SAPC  H17X 3803   3.256   2.167   8.158 -0.2739  1.3465  3.3400
   28SAPC  H17Y 3804   3.337   2.024   8.214 -0.1910  0.0899  0.4901
   28SAPC  C318 3805   3.217   2.109   8.358  0.3919 -0.0585 -0.0132
   28SAPC  H18X 3806   3.112   2.147   8.366  0.3752 -0.0765 -0.1554
   28SAPC  H18Y 3807   3.296   2.173   8.403  0.2065 -0.1299  0.4261
   28SAPC  H18Z 3808   3.214   2.015   8.418  0.6259 -0.3264 -0.4196
   29SAPC     N 3809   4.056   0.088   6.068 -0.4587  0.3456 -0.2231
   29SAPC   C12 3810   4.090   0.021   6.198 -0.4029 -0.5211 -0.2044
   29SAPC  H12A 3811   4.091  -0.086   6.185 -2.6238 -0.4812 -1.1094
   29SAPC  H12B 3812   4.016   0.044   6.274  0.5109 -0.0991  0.5894
   29SAPC   C13 3813   3.911   0.065   6.044 -0.1044  0.0922 -0.6795
   29SAPC  H13A 3814   3.880  -0.038   6.033 -0.0636 -0.0612  0.5667
   29SAPC  H13B 3815   3.847   0.110   6.117 -2.5654 -0.5783 -2.2870
   29SAPC  H13C 3816   3.876   0.102   5.948 -0.0483  0.8952 -0.3911
   29SAPC   C14 3817   4.066   0.230   6.077 -0.1401  0.3344  0.1897
   29SAPC  H14A 3818   3.981   0.272   6.129  0.6536 -0.5414  2.3230
   29SAPC  H14B 3819   4.157   0.263   6.126 -0.0916 -2.1376  1.9707
   29SAPC  H14C 3820   4.063   0.271   5.978 -4.1998  1.0739  0.4575
   29SAPC   C15 3821   4.126   0.024   5.952 -0.0520  0.1399 -0.2923
   29SAPC  H15A 3822   4.100  -0.080   5.941 -1.7649  0.3036  1.6578
   29SAPC  H15B 3823   4.101   0.077   5.861 -1.1815 -1.1173 -0.7385
   29SAPC  H15C 3824   4.232   0.021   5.974 -0.4683 -1.8239  1.7712
   29SAPC   C11 3825   4.233   0.061   6.240 -0.0224  0.4673 -0.5176
   29SAPC  H11A 3826   4.234   0.172   6.252 -1.8898  0.5229 -0.5576
   29SAPC  H11B 3827   4.303   0.024   6.163  1.5560 -1.2329  1.5942
   29SAPC     P 3828   4.410   0.053   6.434 -0.1850 -0.3756 -0.1989
   29SAPC   O13 3829   4.386   0.029   6.576  0.0927  0.2382 -0.6913
   29SAPC   O14 3830   4.533   0.003   6.372  0.3859  0.1797  0.4141
   29SAPC   O12 3831   4.277   0.001   6.362 -0.0209 -0.6071  0.0858
   29SAPC   O11 3832   4.404   0.207   6.405 -0.2073  0.2165  0.1940
   29SAPC    C1 3833   4.324   0.297   6.474  0.3516  0.9216 -0.0167
   29SAPC    HA 3834   4.276   0.364   6.399 -0.5841 -3.0308 -3.3348
   29SAPC    HB 3835   4.244   0.246   6.531  1.1281 -0.2795  0.0208
   29SAPC    C2 3836   4.397   0.395   6.572  0.1016  0.1930 -0.5597
   29SAPC    HS 3837   4.484   0.438   6.517  0.7785  1.8115  1.6336
   29SAPC   O21 3838   4.442   0.326   6.688 -0.1988  0.7908 -0.3772
   29SAPC   C21 3839   4.569   0.344   6.723  0.5808 -0.7177 -0.1045
   29SAPC   O22 3840   4.653   0.399   6.656  0.8657 -0.2995 -0.1056
   29SAPC   C22 3841   4.598   0.282   6.860 -0.0053  0.2632 -0.4119
   29SAPC   H2R 3842   4.542   0.189   6.882 -0.2852  0.5428  0.0773
   29SAPC   H2S 3843   4.704   0.251   6.845 -0.5566 -1.0300 -1.8399
   29SAPC    C3 3844   4.303   0.513   6.606  0.4338  0.9935  0.8022
   29SAPC    HX 3845   4.211   0.467   6.649 -0.2331 -0.0640 -1.6146
   29SAPC    HY 3846   4.283   0.558   6.507  0.5628 -1.4855 -0.4265
   29SAPC   O31 3847   4.356   0.601   6.713  0.7960  0.3338  0.2371
   29SAPC   C31 3848   4.447   0.678   6.678 -0.4430  0.7387 -0.0201
   29SAPC   O32 3849   4.499   0.686   6.564 -0.2537  0.2184 -0.3963
   29SAPC   C32 3850   4.498   0.763   6.795 -0.4215 -0.7415 -0.6080
   29SAPC   H2X 3851   4.514   0.864   6.750 -2.2952  0.5598  1.3914
   29SAPC   H2Y 3852   4.601   0.726   6.813  0.1059  1.2674  1.0603
   29SAPC   C23 3853   4.583   0.394   6.963 -0.0790 -0.2274  0.2332
   29SAPC   H3R 3854   4.477   0.426   6.955 -0.7066 -1.4539  2.8449
   29SAPC   H3S 3855   4.651   0.481   6.949 -0.6507  0.5412  1.9872
   29SAPC   C24 3856   4.602   0.350   7.107  0.5899  0.7991  0.0630
   29SAPC   H4R 3857   4.709   0.339   7.133  0.9324  0.9092 -1.2432
   29SAPC   H4S 3858   4.565   0.246   7.124  1.0624  0.9414  2.2196
   29SAPC   C25 3859   4.537   0.442   7.212  0.3362  0.5592 -0.1202
   29SAPC   H5R 3860   4.521   0.545   7.176  2.3401  1.1210  0.4269
   29SAPC   C26 3861   4.496   0.415   7.341 -0.4836 -0.7962 -0.1667
   29SAPC   H6R 3862   4.432   0.492   7.386 -0.0714  0.2750 -1.3447
   29SAPC   C27 3863   4.511   0.285   7.408  0.0376 -0.4226 -0.3592
   29SAPC   H7R 3864   4.564   0.218   7.337  0.1609 -0.4266 -0.2640
   29SAPC   H7S 3865   4.412   0.239   7.429 -0.1125  0.0205 -0.0804
   29SAPC   C28 3866   4.597   0.290   7.527 -0.5418  0.2638 -0.2374
   29SAPC   H8R 3867   4.693   0.342   7.515  0.6601 -1.6301  0.6661
   29SAPC   C29 3868   4.570   0.257   7.653  0.6995 -1.3659  0.2431
   29SAPC   H9R 3869   4.661   0.256   7.715  1.8468 -1.8551 -1.3852
   29SAPC  C210 3870   4.435   0.221   7.703 -1.4785  0.5181  0.9326
   29SAPC  H10R 3871   4.443   0.127   7.761  0.0445 -0.4596 -0.7525
   29SAPC  H10S 3872   4.366   0.197   7.619  1.9448 -0.6150 -1.8124
   29SAPC  C211 3873   4.380   0.339   7.778 -1.4555 -0.3224 -0.0279
   29SAPC  H11R 3874   4.352   0.431   7.725 -0.6247  0.3842  0.7281
   29SAPC  C212 3875   4.394   0.351   7.917 -0.2884  0.2486  0.1081
   29SAPC  H12R 3876   4.336   0.430   7.968  2.2378  2.4200 -0.1886
   29SAPC  C213 3877   4.443   0.245   8.015  0.1952 -0.0196  0.1588
   29SAPC  H13R 3878   4.545   0.267   8.054  0.1620  1.7452 -0.6387
   29SAPC  H13S 3879   4.463   0.150   7.961  0.4912  0.4609 -0.5927
   29SAPC  C214 3880   4.332   0.232   8.118  1.5228 -0.3708 -0.2926
   29SAPC  H14R 3881   4.227   0.234   8.085  1.0482  0.9354  1.1585
   29SAPC  C215 3882   4.349   0.207   8.247 -0.5556 -0.2046 -0.4227
   29SAPC  H15R 3883   4.262   0.193   8.313  0.3699 -3.7322  0.2480
   29SAPC  C216 3884   4.489   0.188   8.304 -0.3700  0.2761  0.2013
   29SAPC  H16R 3885   4.564   0.262   8.267 -2.1661  1.2009 -1.8136
   29SAPC  H16S 3886   4.517   0.081   8.295 -1.9066 -0.3037  1.6937
   29SAPC  C217 3887   4.496   0.201   8.458  0.0991 -0.6617 -0.2310
   29SAPC  H17R 3888   4.439   0.121   8.510  1.4432  0.3684  3.1036
   29SAPC  H17S 3889   4.460   0.300   8.494  1.1784 -0.0867 -0.6955
   29SAPC  C218 3890   4.645   0.180   8.487  0.6008 -0.1746 -0.8988
   29SAPC  H18R 3891   4.710   0.268   8.468 -0.4202  1.0535  0.9854
   29SAPC  H18S 3892   4.686   0.100   8.422 -0.4963 -0.4960 -1.2101
   29SAPC  C219 3893   4.670   0.128   8.634  0.1368 -0.4041 -0.4699
   29SAPC  H19R 3894   4.610   0.184   8.709  2.1198  0.3454  0.6482
   29SAPC  H19S 3895   4.778   0.136   8.658  0.7770 -1.8603 -2.6034
   29SAPC  C220 3896   4.630  -0.017   8.664 -0.7232 -0.5613  0.3312
   29SAPC  H20R 3897   4.663  -0.045   8.767 -2.5826 -0.3607  1.0233
   29SAPC  H20S 3898   4.681  -0.086   8.594 -0.2754  0.5671 -0.4932
   29SAPC  H20T 3899   4.521  -0.029   8.654 -0.7889  0.3006 -0.0955
   29SAPC   C33 3900   4.395   0.772   6.910 -0.1791 -0.3613 -0.0130
   29SAPC   H3X 3901   4.349   0.673   6.929  3.0887 -1.8334  1.0945
   29SAPC   H3Y 3902   4.319   0.846   6.879  0.3903  0.2416  0.0081
   29SAPC   C34 3903   4.470   0.803   7.046  0.1726  0.1934 -0.0925
   29SAPC   H4X 3904   4.521   0.900   7.031 -0.8110  0.7648  0.1786
   29SAPC   H4Y 3905   4.540   0.718   7.066  1.2697  1.6856  3.2727
   29SAPC   C35 3906   4.375   0.801   7.167  0.6047 -0.3009 -0.1578
   29SAPC   H5X 3907   4.316   0.708   7.176  0.1127  0.1672  1.9489
   29SAPC   H5Y 3908   4.306   0.887   7.151  0.8578  0.0244  0.4475
   29SAPC   C36 3909   4.443   0.807   7.306  0.6060 -0.0129 -0.4612
   29SAPC   H6X 3910   4.515   0.891   7.306  0.5836  0.0196  0.5636
   29SAPC   H6Y 3911   4.503   0.714   7.321  1.3650  0.4857 -0.3737
   29SAPC   C37 3912   4.345   0.827   7.422  0.2411 -0.6077 -0.0506
   29SAPC   H7X 3913   4.279   0.739   7.409  0.6321 -1.0151  0.6775
   29SAPC   H7Y 3914   4.278   0.914   7.407  0.9079 -0.3928 -2.2008
   29SAPC   C38 3915   4.404   0.827   7.562  0.5877 -0.7176 -0.1908
   29SAPC   H8X 3916   4.476   0.909   7.584 -0.8588  0.2891  1.0412
   29SAPC   H8Y 3917   4.471   0.739   7.559  1.2960 -0.2400  0.9580
   29SAPC   C39 3918   4.300   0.793   7.668 -0.0062  0.4474 -0.0228
   29SAPC   H9X 3919   4.234   0.715   7.625 -1.1893  0.9544  0.8197
   29SAPC   H9Y 3920   4.218   0.867   7.679 -2.0775 -1.9566  1.7942
   29SAPC  C310 3921   4.354   0.759   7.808  1.1353  0.3911 -0.3904
   29SAPC  H10X 3922   4.403   0.660   7.820 -0.5533 -0.3152  1.0586
   29SAPC  H10Y 3923   4.272   0.764   7.883 -0.4750  0.6646 -2.1019
   29SAPC  C311 3924   4.468   0.848   7.852 -0.1865 -0.8282  0.1165
   29SAPC  H11X 3925   4.451   0.952   7.818 -1.5842 -0.6877  1.1387
   29SAPC  H11Y 3926   4.554   0.822   7.788 -1.0547 -0.8148 -1.0881
   29SAPC  C312 3927   4.501   0.845   7.999  0.3502  0.6192  0.9491
   29SAPC  H12X 3928   4.542   0.744   8.020 -2.2007 -0.2523  2.2229
   29SAPC  H12Y 3929   4.416   0.867   8.067  0.5373  1.1160  1.0192
   29SAPC  C313 3930   4.612   0.939   8.043 -0.4619 -1.0193  0.3151
   29SAPC  H13X 3931   4.620   0.922   8.153  0.5935 -1.2046  0.2194
   29SAPC  H13Y 3932   4.573   1.042   8.030 -2.3860 -1.5670  1.4100
   29SAPC  C314 3933   4.748   0.927   7.967 -0.2539  0.6342  0.8850
   29SAPC  H14X 3934   4.744   0.958   7.860  0.0301 -0.3369  0.5891
   29SAPC  H14Y 3935   4.780   0.821   7.965 -0.2281  0.6460  0.4942
   29SAPC  C315 3936   4.866   1.007   8.021 -0.4689  0.5389 -1.1556
   29SAPC  H15X 3937   4.875   0.990   8.130 -0.4858 -1.1205 -1.3962
   29SAPC  H15Y 3938   4.854   1.118   8.030  1.0184  0.5295  2.5394
   29SAPC  C316 3939   5.007   0.977   7.961 -0.0149  0.1939  0.5296
   29SAPC  H16X 3940   5.010   1.013   7.856  1.4932  3.0168  1.4530
   29SAPC  H16Y 3941   5.014   0.866   7.956 -0.7689  0.1761 -1.1608
   29SAPC  C317 3942   5.131   1.021   8.043  0.3983 -0.2523 -0.0158
   29SAPC  H17X 3943   5.231   1.000   7.999 -0.3902 -2.2196 -0.9511
   29SAPC  H17Y 3944   5.127   0.963   8.138  1.2494  0.0842  0.2365
   29SAPC  C318 3945   5.126   1.170   8.083 -0.2835 -0.1697  0.5893
   29SAPC  H18X 3946   5.057   1.185   8.169  1.0229 -2.0414  2.0643
   29SAPC  H18Y 3947   5.095   1.227   7.993 -0.2155  0.2323  0.8164
   29SAPC  H18Z 3948   5.226   1.197   8.124  1.3760 -3.0885 -1.1803
   30SAPC     N 3949   6.240   6.583   5.915 -0.3981  0.5270 -0.2211
   30SAPC   C12 3950   6.349   6.546   5.820  0.0432  0.0399 -0.5579
   30SAPC  H12A 3951   6.407   6.632   5.789  0.4440  0.3900  1.0764
   30SAPC  H12B 3952   6.310   6.510   5.726  0.3978 -0.5228 -0.4908
   30SAPC   C13 3953   6.291   6.624   6.049  0.4090 -0.5625  0.1346
   30SAPC  H13A 3954   6.370   6.560   6.086 -0.6438 -2.1221 -0.2224
   30SAPC  H13B 3955   6.337   6.722   6.043 -1.0032  0.2832  1.9140
   30SAPC  H13C 3956   6.210   6.641   6.118 -0.2971 -1.2927 -0.4954
   30SAPC   C14 3957   6.157   6.693   5.863  0.8373  0.1762 -0.1983
   30SAPC  H14A 3958   6.090   6.729   5.939  0.0749 -1.1519 -0.2183
   30SAPC  H14B 3959   6.212   6.774   5.817 -1.5295  3.5116  2.3437
   30SAPC  H14C 3960   6.081   6.656   5.796 -1.5630  2.4655  1.0642
   30SAPC   C15 3961   6.147   6.472   5.937 -0.1025  1.1366 -0.4007
   30SAPC  H15A 3962   6.058   6.485   5.997 -0.9398 -0.5307 -1.2223
   30SAPC  H15B 3963   6.129   6.418   5.846 -1.4343  0.7929  0.0420
   30SAPC  H15C 3964   6.194   6.393   5.994  0.4280  0.6236 -1.5279
   30SAPC   C11 3965   6.455   6.443   5.863  0.0315 -0.2819 -0.3117
   30SAPC  H11A 3966   6.521   6.476   5.946  1.3771 -2.8098 -0.2625
   30SAPC  H11B 3967   6.527   6.427   5.780  3.1170 -2.0999  2.4703
   30SAPC     P 3968   6.474   6.196   5.894  0.0393 -0.3055  0.2195
   30SAPC   O13 3969   6.463   6.156   5.752  0.0381 -0.2814  0.4493
   30SAPC   O14 3970   6.610   6.206   5.953 -0.6983 -0.2756 -0.1545
   30SAPC   O12 3971   6.392   6.324   5.907  0.5013 -0.3817 -0.4901
   30SAPC   O11 3972   6.392   6.091   5.979  0.1414  0.4722 -0.3805
   30SAPC    C1 3973   6.272   6.130   6.051 -0.1731  1.1657  0.4416
   30SAPC    HA 3974   6.298   6.213   6.120  0.7900  0.9367  0.3609
   30SAPC    HB 3975   6.192   6.153   5.977 -0.8982 -0.0694  0.8138
   30SAPC    C2 3976   6.218   6.007   6.127  0.8778  0.9543 -0.4280
   30SAPC    HS 3977   6.206   5.933   6.045  1.0547  1.6550 -1.0965
   30SAPC   O21 3978   6.095   6.050   6.180  0.4570  0.3886 -0.4555
   30SAPC   C21 3979   5.995   5.961   6.185 -0.3560  0.7968 -0.1852
   30SAPC   O22 3980   6.001   5.848   6.132  0.7033 -0.6482  0.2048
   30SAPC   C22 3981   5.876   6.020   6.262 -0.0503  0.3708 -0.0091
   30SAPC   H2R 3982   5.919   6.107   6.316  1.0199 -0.6500  0.8534
   30SAPC   H2S 3983   5.790   6.045   6.197  0.1469  0.8521 -0.0888
   30SAPC    C3 3984   6.319   5.943   6.235 -0.2747  0.0605 -0.7256
   30SAPC    HX 3985   6.365   6.026   6.293 -0.1321 -1.7221  1.8705
   30SAPC    HY 3986   6.406   5.896   6.184  1.4743 -0.1374  2.2361
   30SAPC   O31 3987   6.253   5.852   6.324 -0.1726  0.0110 -0.6097
   30SAPC   C31 3988   6.323   5.820   6.435  0.2110  0.7585 -0.5497
   30SAPC   O32 3989   6.430   5.869   6.468 -0.0784  0.2764  0.6265
   30SAPC   C32 3990   6.243   5.715   6.512 -0.4080 -0.2203  0.1716
   30SAPC   H2X 3991   6.184   5.646   6.448 -0.0112 -0.3699 -0.0368
   30SAPC   H2Y 3992   6.157   5.762   6.565 -1.0667 -1.6504  0.4323
   30SAPC   C23 3993   5.830   5.910   6.363  0.0301 -0.2693  0.0620
   30SAPC   H3R 3994   5.841   5.807   6.322  0.1450 -0.7149  1.1929
   30SAPC   H3S 3995   5.721   5.917   6.384 -0.2275 -2.6081 -0.1575
   30SAPC   C24 3996   5.914   5.910   6.486 -0.1036 -0.3900  0.2508
   30SAPC   H4R 3997   5.903   6.011   6.531  1.5692 -0.6774  1.4125
   30SAPC   H4S 3998   6.017   5.903   6.444 -0.8089 -1.6085 -1.3908
   30SAPC   C25 3999   5.876   5.805   6.587  0.1274  0.1778  0.1875
   30SAPC   H5R 4000   5.914   5.703   6.572  1.9105  0.6818  0.9544
   30SAPC   C26 4001   5.794   5.825   6.692 -0.3292 -0.2291 -0.4245
   30SAPC   H6R 4002   5.767   5.744   6.763 -1.4104  0.9670  0.5786
   30SAPC   C27 4003   5.739   5.957   6.739  0.7084 -0.9401  0.7610
   30SAPC   H7R 4004   5.642   5.924   6.782  0.4704 -1.8714 -0.4189
   30SAPC   H7S 4005   5.717   6.030   6.658 -0.4039 -0.3808  1.5478
   30SAPC   C28 4006   5.813   6.033   6.844 -0.7551 -0.6885 -0.1402
   30SAPC   H8R 4007   5.918   6.060   6.824 -1.0597  0.7504  0.0635
   30SAPC   C29 4008   5.767   6.067   6.965  0.1619 -0.8089 -1.1962
   30SAPC   H9R 4009   5.847   6.109   7.028 -1.8784 -0.1094  1.1192
   30SAPC  C210 4010   5.628   6.049   7.024 -0.3340  0.9278 -0.8448
   30SAPC  H10R 4011   5.609   5.940   7.018  2.2420  0.4061 -0.8469
   30SAPC  H10S 4012   5.557   6.089   6.949  0.4585  0.6219 -1.7882
   30SAPC  C211 4013   5.619   6.124   7.155  0.6253  0.4846 -0.1225
   30SAPC  H11R 4014   5.555   6.212   7.151  1.1233  0.9110  0.8526
   30SAPC  C212 4015   5.649   6.084   7.280 -0.1029  0.0562  0.1018
   30SAPC  H12R 4016   5.642   6.155   7.363 -1.1406 -0.9368  0.9002
   30SAPC  C213 4017   5.706   5.954   7.325 -0.3245 -0.0832 -0.0747
   30SAPC  H13R 4018   5.800   5.974   7.380 -0.8657 -1.7294  1.5392
   30SAPC  H13S 4019   5.740   5.886   7.244 -1.3325 -0.5298 -0.1363
   30SAPC  C214 4020   5.612   5.883   7.422 -0.1102  0.3460  0.3036
   30SAPC  H14R 4021   5.542   5.815   7.371 -0.6644  0.5450  0.7897
   30SAPC  C215 4022   5.606   5.880   7.556 -0.0991 -0.0561 -0.5656
   30SAPC  H15R 4023   5.535   5.818   7.613  1.8082 -0.1234  1.9221
   30SAPC  C216 4024   5.694   5.955   7.652  0.4873 -0.3858  0.0569
   30SAPC  H16R 4025   5.783   5.996   7.599 -0.1316 -0.9707 -1.4941
   30SAPC  H16S 4026   5.740   5.882   7.722  1.2689  1.3776  1.4592
   30SAPC  C217 4027   5.618   6.052   7.736 -0.5885  0.1583 -0.6418
   30SAPC  H17R 4028   5.549   6.010   7.813 -1.1562  0.8107 -0.7881
   30SAPC  H17S 4029   5.573   6.126   7.666  1.9728  3.9988  1.4427
   30SAPC  C218 4030   5.721   6.134   7.828  0.9739 -0.3266 -0.0098
   30SAPC  H18R 4031   5.821   6.144   7.781  0.6444  0.2624 -0.6026
   30SAPC  H18S 4032   5.744   6.072   7.917  0.7589  0.0891  0.3401
   30SAPC  C219 4033   5.679   6.273   7.876 -0.4329  0.6508 -0.1435
   30SAPC  H19R 4034   5.721   6.317   7.969 -3.3165  2.3762  0.4674
   30SAPC  H19S 4035   5.572   6.269   7.905 -0.9616  1.5441 -1.8348
   30SAPC  C220 4036   5.685   6.376   7.763 -0.2401 -0.2704 -0.2914
   30SAPC  H20R 4037   5.792   6.384   7.735 -0.0408  1.4507  0.7873
   30SAPC  H20S 4038   5.648   6.475   7.798  1.0871  0.0166  0.3476
   30SAPC  H20T 4039   5.636   6.339   7.671  1.3900  0.5825 -1.5456
   30SAPC   C33 4040   6.335   5.643   6.616  0.5234 -0.6528 -0.1082
   30SAPC   H3X 4041   6.424   5.602   6.565  0.4462  0.1133 -0.8764
   30SAPC   H3Y 4042   6.261   5.566   6.647  0.6456 -1.5971 -1.9979
   30SAPC   C34 4043   6.367   5.730   6.744  0.5152 -0.6609  0.3999
   30SAPC   H4X 4044   6.269   5.769   6.779  0.7831  1.3246 -0.9162
   30SAPC   H4Y 4045   6.429   5.819   6.720 -0.2908  0.0323  0.8401
   30SAPC   C35 4046   6.443   5.661   6.857 -0.1231 -0.4482  0.2472
   30SAPC   H5X 4047   6.544   5.638   6.815  0.8625  0.1460  2.1611
   30SAPC   H5Y 4048   6.389   5.567   6.881 -3.6414  1.3138 -0.2382
   30SAPC   C36 4049   6.445   5.737   6.985 -0.7420 -0.2742 -0.2637
   30SAPC   H6X 4050   6.339   5.735   7.018 -0.6047  0.0904  0.2178
   30SAPC   H6Y 4051   6.477   5.842   6.969 -1.7496  0.6288  2.9062
   30SAPC   C37 4052   6.535   5.684   7.097 -0.3817  0.4536  0.4464
   30SAPC   H7X 4053   6.645   5.686   7.081 -0.4769  0.1396 -0.2714
   30SAPC   H7Y 4054   6.510   5.576   7.105 -2.1816  0.7096 -0.9320
   30SAPC   C38 4055   6.514   5.741   7.240  0.2963  0.6790  0.1166
   30SAPC   H8X 4056   6.539   5.848   7.224 -0.5250  0.7421 -0.9174
   30SAPC   H8Y 4057   6.600   5.693   7.290 -0.0715 -0.9745 -0.7712
   30SAPC   C39 4058   6.384   5.724   7.319  0.1518  0.1294  0.6136
   30SAPC   H9X 4059   6.363   5.616   7.335 -1.0082  0.4659  1.4560
   30SAPC   H9Y 4060   6.300   5.757   7.254  0.4133 -1.7577 -0.7745
   30SAPC  C310 4061   6.386   5.788   7.453 -0.1103 -0.1445  0.1404
   30SAPC  H10X 4062   6.287   5.798   7.503  0.7034  1.6055  1.5435
   30SAPC  H10Y 4063   6.424   5.891   7.436 -1.3518  0.4486  0.7658
   30SAPC  C311 4064   6.472   5.715   7.554 -0.2627 -0.6023  0.4478
   30SAPC  H11X 4065   6.575   5.716   7.514  0.3398 -0.2213  1.9429
   30SAPC  H11Y 4066   6.441   5.609   7.557 -2.1112 -0.0862  0.9501
   30SAPC  C312 4067   6.450   5.779   7.687  0.1693  0.3490  0.1896
   30SAPC  H12X 4068   6.342   5.771   7.712  0.0010 -1.7224 -1.0310
   30SAPC  H12Y 4069   6.471   5.888   7.693 -2.5704  0.8866  1.9022
   30SAPC  C313 4070   6.516   5.720   7.807  0.8108  0.0103  0.1396
   30SAPC  H13X 4071   6.623   5.741   7.788  0.5278  2.6735  1.1248
   30SAPC  H13Y 4072   6.499   5.610   7.812  2.4672 -0.3379 -1.0819
   30SAPC  C314 4073   6.470   5.782   7.937  0.0718  0.5592  0.1972
   30SAPC  H14X 4074   6.359   5.787   7.937  0.0722  0.7761 -0.8534
   30SAPC  H14Y 4075   6.498   5.890   7.942 -1.3822  0.9103  1.7418
   30SAPC  C315 4076   6.504   5.708   8.062 -0.3275  0.0362  0.1626
   30SAPC  H15X 4077   6.615   5.712   8.073 -0.1369 -1.3431 -0.9537
   30SAPC  H15Y 4078   6.470   5.603   8.049 -2.2111  0.6691 -0.4087
   30SAPC  C316 4079   6.434   5.769   8.188  0.5458  0.4030 -0.6366
   30SAPC  H16X 4080   6.328   5.734   8.196  0.5121  0.5748 -0.3396
   30SAPC  H16Y 4081   6.429   5.879   8.196  3.3284  0.5304  0.1079
   30SAPC  C317 4082   6.503   5.714   8.314  0.3398 -0.2182 -0.3642
   30SAPC  H17X 4083   6.607   5.752   8.321  0.4316  0.0456 -2.4296
   30SAPC  H17Y 4084   6.516   5.605   8.300 -0.3057 -0.2204 -1.0667
   30SAPC  C318 4085   6.424   5.746   8.441 -0.4025  0.7976  0.1526
   30SAPC  H18X 4086   6.465   5.698   8.533 -1.4243  0.9091  0.6744
   30SAPC  H18Y 4087   6.324   5.703   8.419 -0.1571  0.4763 -0.3507
   30SAPC  H18Z 4088   6.416   5.856   8.434  1.1041  0.8792 -1.0226
   31SAPC     N 4089   3.031   5.269   6.019 -0.3767  0.3597  0.4257
   31SAPC   C12 4090   3.055   5.418   6.045  0.2186  0.4628  0.2439
   31SAPC  H12A 4091   2.963   5.462   6.080  0.2675  1.3000 -0.6264
   31SAPC  H12B 4092   3.072   5.472   5.953  2.2087  1.0924  0.9106
   31SAPC   C13 4093   2.929   5.254   5.912  0.2227  0.3553 -0.0390
   31SAPC  H13A 4094   2.849   5.325   5.927 -0.2558  0.0329 -1.0228
   31SAPC  H13B 4095   2.971   5.293   5.820 -1.2825  4.3538  0.7567
   31SAPC  H13C 4096   2.896   5.154   5.891  1.6965 -0.7778  2.5935
   31SAPC   C14 4097   3.157   5.202   5.980 -0.4704 -0.2757  0.5200
   31SAPC  H14A 4098   3.132   5.098   5.962 -1.6773  0.2359 -0.9355
   31SAPC  H14B 4099   3.190   5.251   5.890 -0.1307 -0.0376  0.7716
   31SAPC  H14C 4100   3.234   5.200   6.056  0.3833 -1.0551 -0.3276
   31SAPC   C15 4101   2.984   5.189   6.137 -0.1163  0.8805 -0.0819
   31SAPC  H15A 4102   2.877   5.198   6.141 -0.1849 -0.1067  0.8864
   31SAPC  H15B 4103   3.019   5.087   6.125  0.3559  1.0340 -0.0572
   31SAPC  H15C 4104   3.029   5.234   6.225  0.5014 -1.4462  0.8813
   31SAPC   C11 4105   3.173   5.457   6.133 -0.5003  0.0672  0.0382
   31SAPC  H11A 4106   3.179   5.568   6.126 -0.0177 -0.0165 -0.9774
   31SAPC  H11B 4107   3.274   5.428   6.097  1.7233  3.2433  3.0532
   31SAPC     P 4108   3.127   5.528   6.374  0.1014  0.0062  0.0877
   31SAPC   O13 4109   3.229   5.638   6.362  0.2214 -0.4031  0.2931
   31SAPC   O14 4110   2.990   5.573   6.351 -0.2359 -0.0928 -0.1352
   31SAPC   O12 4111   3.160   5.412   6.266 -0.3350 -0.3058 -0.4797
   31SAPC   O11 4112   3.133   5.461   6.518  1.0114  0.3766 -0.0828
   31SAPC    C1 4113   3.034   5.360   6.552  0.0140 -0.6225  0.0006
   31SAPC    HA 4114   2.928   5.379   6.526 -0.2776 -1.7312  0.3010
   31SAPC    HB 4115   3.056   5.265   6.498  0.7257 -0.4949  0.0504
   31SAPC    C2 4116   3.027   5.344   6.699  0.2699 -0.0135  0.2535
   31SAPC    HS 4117   3.023   5.235   6.720 -2.2823 -0.0933 -0.3525
   31SAPC   O21 4118   2.917   5.410   6.760  0.4792 -0.3465  0.0761
   31SAPC   C21 4119   2.818   5.343   6.822 -0.5005  0.4383  0.4057
   31SAPC   O22 4120   2.794   5.224   6.813 -0.2319 -0.5157 -0.7124
   31SAPC   C22 4121   2.726   5.443   6.896 -0.2792 -0.3499  1.1921
   31SAPC   H2R 4122   2.784   5.528   6.938 -2.3471  1.0266  1.4339
   31SAPC   H2S 4123   2.659   5.478   6.815  1.9462  0.7183 -0.2846
   31SAPC    C3 4124   3.166   5.372   6.772  0.2711 -0.3587  0.6942
   31SAPC    HX 4125   3.181   5.482   6.766 -1.5198 -0.1714 -1.5559
   31SAPC    HY 4126   3.252   5.318   6.728  0.7685  2.2641 -1.8449
   31SAPC   O31 4127   3.146   5.324   6.905 -1.0912 -0.1308 -0.5720
   31SAPC   C31 4128   3.215   5.388   7.000 -0.2129 -0.2563  0.3465
   31SAPC   O32 4129   3.275   5.492   6.985  0.1239 -0.1760  0.4901
   31SAPC   C32 4130   3.197   5.313   7.138 -0.2938 -0.4737  0.0566
   31SAPC   H2X 4131   3.245   5.215   7.118 -0.6526 -0.1428 -2.9429
   31SAPC   H2Y 4132   3.089   5.294   7.153 -0.4600 -0.0579 -0.5813
   31SAPC   C23 4133   2.647   5.376   7.013  0.0888 -0.0803  0.2736
   31SAPC   H3R 4134   2.578   5.295   6.982 -0.7405  0.0259  1.7558
   31SAPC   H3S 4135   2.581   5.459   7.045 -0.2634  0.1343 -0.9302
   31SAPC   C24 4136   2.731   5.338   7.133 -0.5852  0.4999  0.1092
   31SAPC   H4R 4137   2.799   5.260   7.092 -0.4305  1.5689 -1.7663
   31SAPC   H4S 4138   2.668   5.289   7.210  3.3574 -1.8711  2.1341
   31SAPC   C25 4139   2.801   5.455   7.204 -0.7974  0.5588 -0.3100
   31SAPC   H5R 4140   2.859   5.513   7.130  0.5046  0.5923  0.6962
   31SAPC   C26 4141   2.802   5.493   7.336 -0.0091 -0.3562 -0.0025
   31SAPC   H6R 4142   2.863   5.579   7.369  0.6971 -1.4536  1.7315
   31SAPC   C27 4143   2.729   5.424   7.452 -0.0387  0.4561 -0.2197
   31SAPC   H7R 4144   2.787   5.332   7.476 -2.0672 -0.5150  1.2082
   31SAPC   H7S 4145   2.620   5.406   7.443 -0.3865  2.5074 -0.7559
   31SAPC   C28 4146   2.742   5.506   7.575  0.6047 -0.0586 -0.6523
   31SAPC   H8R 4147   2.647   5.558   7.588  0.7715  1.1198 -3.3920
   31SAPC   C29 4148   2.842   5.520   7.666  0.6264  0.5578 -0.0673
   31SAPC   H9R 4149   2.832   5.607   7.733 -0.1100 -0.0436  0.6254
   31SAPC  C210 4150   2.982   5.457   7.659  0.1282 -0.5673 -0.1474
   31SAPC  H10R 4151   3.019   5.460   7.554 -0.3199 -1.7742 -0.3554
   31SAPC  H10S 4152   2.967   5.348   7.674  2.4160 -0.8937  0.2711
   31SAPC  C211 4153   3.096   5.494   7.751  0.5122 -0.0766 -0.6630
   31SAPC  H11R 4154   3.166   5.559   7.694 -0.8733 -0.1006 -2.4757
   31SAPC  C212 4155   3.110   5.448   7.875 -0.7424 -0.8360  0.0986
   31SAPC  H12R 4156   3.191   5.497   7.930 -0.9398  0.4766 -0.7483
   31SAPC  C213 4157   3.029   5.346   7.956  0.3783 -0.1602  0.3586
   31SAPC  H13R 4158   2.939   5.312   7.900  0.4092 -0.6035  0.5781
   31SAPC  H13S 4159   3.000   5.392   8.053 -1.4379 -0.9658  0.2334
   31SAPC  C214 4160   3.106   5.225   7.992 -0.3180 -0.4288 -0.0220
   31SAPC  H14R 4161   3.097   5.137   7.927 -0.5411 -1.1528  0.9546
   31SAPC  C215 4162   3.192   5.216   8.102  0.3360  0.5953 -0.1650
   31SAPC  H15R 4163   3.261   5.131   8.096 -1.0074 -0.5029 -0.6459
   31SAPC  C216 4164   3.234   5.309   8.211  0.1597  0.2465  0.1541
   31SAPC  H16R 4165   3.230   5.418   8.191 -2.7165  0.6886  2.4655
   31SAPC  H16S 4166   3.340   5.283   8.235  0.0187 -0.7288 -0.2120
   31SAPC  C217 4167   3.146   5.283   8.341 -1.1340 -0.0392  0.2236
   31SAPC  H17R 4168   3.135   5.175   8.363  0.4523 -0.6419 -1.6033
   31SAPC  H17S 4169   3.047   5.321   8.308  0.3463  1.1390 -3.3970
   31SAPC  C218 4170   3.196   5.356   8.465 -0.9522  0.2558  0.5949
   31SAPC  H18R 4171   3.212   5.464   8.447 -0.8662  0.0968 -0.3343
   31SAPC  H18S 4172   3.290   5.311   8.505 -1.6684 -0.9625  0.9620
   31SAPC  C219 4173   3.091   5.334   8.576 -0.7260  0.2885  0.1928
   31SAPC  H19R 4174   3.083   5.224   8.587  0.0685  0.3174  1.1479
   31SAPC  H19S 4175   2.990   5.374   8.552 -0.6627  1.1459  1.3176
   31SAPC  C220 4176   3.137   5.398   8.710  0.0236  0.2169 -0.6652
   31SAPC  H20R 4177   3.101   5.503   8.717  2.6480  1.0493  2.7649
   31SAPC  H20S 4178   3.244   5.391   8.737  0.5875  2.3655 -2.0408
   31SAPC  H20T 4179   3.071   5.351   8.786 -0.4304 -0.2077 -1.3009
   31SAPC   C33 4180   3.267   5.380   7.256 -0.4068  0.3314  0.4677
   31SAPC   H3X 4181   3.247   5.489   7.256  1.0876  0.6903 -1.6809
   31SAPC   H3Y 4182   3.377   5.372   7.242  0.0115 -0.0932  3.3426
   31SAPC   C34 4183   3.232   5.315   7.392  0.0535  0.5928 -0.3802
   31SAPC   H4X 4184   3.214   5.208   7.365  2.0122  0.4912 -1.4893
   31SAPC   H4Y 4185   3.129   5.343   7.425  0.8547  1.9425  1.1186
   31SAPC   C35 4186   3.334   5.335   7.502 -0.3187 -0.1037 -0.2118
   31SAPC   H5X 4187   3.293   5.415   7.567 -2.6493 -1.2219 -0.1861
   31SAPC   H5Y 4188   3.426   5.374   7.454 -0.4107  1.5025  0.8388
   31SAPC   C36 4189   3.364   5.214   7.586 -0.1278  0.1876 -0.7635
   31SAPC   H6X 4190   3.415   5.139   7.520  0.0834 -0.1487 -0.2252
   31SAPC   H6Y 4191   3.259   5.189   7.611 -0.1833  2.7307  2.1446
   31SAPC   C37 4192   3.440   5.247   7.714  0.3043  0.5170 -0.0973
   31SAPC   H7X 4193   3.376   5.327   7.758  0.1579  1.6972 -2.3150
   31SAPC   H7Y 4194   3.536   5.294   7.686  0.1840 -0.3624 -2.1709
   31SAPC   C38 4195   3.469   5.125   7.799 -0.3331 -0.0939  0.0345
   31SAPC   H8X 4196   3.538   5.058   7.743  0.9040  1.6185 -0.5758
   31SAPC   H8Y 4197   3.376   5.067   7.819  0.8123 -1.5796  1.3094
   31SAPC   C39 4198   3.525   5.176   7.931  0.4029 -0.3300 -0.3692
   31SAPC   H9X 4199   3.446   5.228   7.988 -0.0339 -3.6561  2.3966
   31SAPC   H9Y 4200   3.606   5.249   7.911 -1.4650  1.5509 -1.4279
   31SAPC  C310 4201   3.572   5.060   8.024 -0.5677 -0.2329 -0.0714
   31SAPC  H10X 4202   3.635   4.984   7.973 -1.2332 -0.7044 -0.1956
   31SAPC  H10Y 4203   3.492   4.997   8.067 -0.7938  0.2782  0.2658
   31SAPC  C311 4204   3.652   5.108   8.152  0.3431  0.2964 -0.5792
   31SAPC  H11X 4205   3.590   5.164   8.224 -1.9718 -3.4783  0.6222
   31SAPC  H11Y 4206   3.732   5.164   8.100  2.9399 -1.9803  0.6872
   31SAPC  C312 4207   3.738   4.999   8.229  0.1903  1.3170  1.0135
   31SAPC  H12X 4208   3.804   4.945   8.158 -1.6798  0.1497  0.0826
   31SAPC  H12Y 4209   3.668   4.931   8.282  0.4664 -0.3044 -0.6304
   31SAPC  C313 4210   3.822   5.066   8.344 -0.5083  0.1048 -0.6399
   31SAPC  H13X 4211   3.759   5.130   8.409  1.6856 -0.8732  2.7722
   31SAPC  H13Y 4212   3.904   5.122   8.294  1.2085 -1.5754  0.1629
   31SAPC  C314 4213   3.886   4.953   8.434  0.1087  0.2577 -0.2963
   31SAPC  H14X 4214   3.964   4.894   8.380 -0.4424 -0.2401 -0.5577
   31SAPC  H14Y 4215   3.800   4.889   8.462 -0.9650  1.9075  0.2946
   31SAPC  C315 4216   3.951   5.014   8.557  0.4338 -0.2028  0.6189
   31SAPC  H15X 4217   3.878   5.076   8.613  1.6854  2.3362 -0.3915
   31SAPC  H15Y 4218   4.029   5.086   8.524  0.0712 -1.0777 -2.5386
   31SAPC  C316 4219   4.009   4.896   8.640 -0.1882 -0.8495 -0.0118
   31SAPC  H16X 4220   4.098   4.857   8.585  0.2494 -1.7579  1.2856
   31SAPC  H16Y 4221   3.932   4.816   8.628  0.4199 -1.1134 -2.7121
   31SAPC  C317 4222   4.036   4.931   8.786  0.4025 -0.5637  0.2431
   31SAPC  H17X 4223   4.056   4.835   8.838  0.7628 -1.4885 -1.5315
   31SAPC  H17Y 4224   3.945   4.968   8.839  0.1961  1.6583 -1.4614
   31SAPC  C318 4225   4.146   5.035   8.801 -0.0850  0.0142  1.1594
   31SAPC  H18X 4226   4.151   5.092   8.705 -1.8586 -1.0358  0.3952
   31SAPC  H18Y 4227   4.249   4.992   8.807 -0.3060 -0.5511  0.9937
   31SAPC  H18Z 4228   4.125   5.123   8.864 -0.6692  0.1881  0.7332
   32SAPC     N 4229   1.237   1.245   5.801 -0.0979  0.0174  0.1209
   32SAPC   C12 4230   1.184   1.237   5.943  0.1854 -0.0212  0.0514
   32SAPC  H12A 4231   1.146   1.137   5.958  0.5284 -0.2992 -0.8820
   32SAPC  H12B 4232   1.099   1.304   5.946 -1.7794 -2.3948 -0.0459
   32SAPC   C13 4233   1.364   1.169   5.784 -0.0994 -0.6510  0.1545
   32SAPC  H13A 4234   1.449   1.200   5.843 -1.4101 -0.6878  2.1529
   32SAPC  H13B 4235   1.351   1.065   5.809  0.5420 -0.6522  0.4892
   32SAPC  H13C 4236   1.400   1.172   5.682 -1.3076 -0.5343 -0.2890
   32SAPC   C14 4237   1.137   1.174   5.711 -0.6437  0.8278  0.2203
   32SAPC  H14A 4238   1.051   1.236   5.689 -1.2385  1.3121  3.4441
   32SAPC  H14B 4239   1.192   1.143   5.624  0.2941  1.8283  0.4482
   32SAPC  H14C 4240   1.104   1.083   5.759 -4.8053  1.6422 -0.6619
   32SAPC   C15 4241   1.260   1.388   5.768 -0.0048  0.0847  0.3195
   32SAPC  H15A 4242   1.303   1.378   5.669  1.9405 -0.9989  1.2215
   32SAPC  H15B 4243   1.166   1.440   5.779 -0.6336 -1.2628  1.7174
   32SAPC  H15C 4244   1.324   1.428   5.844  1.5866  0.8324 -1.3452
   32SAPC   C11 4245   1.270   1.270   6.066 -0.5202  0.1351  0.5290
   32SAPC  H11A 4246   1.351   1.194   6.068  0.3703  1.0335  2.6713
   32SAPC  H11B 4247   1.202   1.268   6.154 -0.7515  1.7963  0.4281
   32SAPC     P 4248   1.319   1.512   6.160  0.3790  0.2399  0.2552
   32SAPC   O13 4249   1.422   1.609   6.119  0.0579 -0.4058 -0.0585
   32SAPC   O14 4250   1.182   1.562   6.162 -0.0836 -0.0884  0.3996
   32SAPC   O12 4251   1.333   1.396   6.051  0.4686  0.2679 -0.3453
   32SAPC   O11 4252   1.370   1.447   6.292  0.0328 -0.0453  0.6115
   32SAPC    C1 4253   1.508   1.454   6.319  0.0217  0.0307  0.1973
   32SAPC    HA 4254   1.561   1.426   6.226 -1.0435  0.7949 -0.6753
   32SAPC    HB 4255   1.534   1.562   6.332 -2.8232  1.3041 -3.0626
   32SAPC    C2 4256   1.566   1.360   6.427 -0.5888 -0.3043 -0.1912
   32SAPC    HS 4257   1.540   1.257   6.393 -3.0750  0.1265  0.2520
   32SAPC   O21 4258   1.517   1.403   6.559  0.3332  0.0380  0.4237
   32SAPC   C21 4259   1.503   1.306   6.647  0.5994 -0.3522 -0.1416
   32SAPC   O22 4260   1.526   1.193   6.629 -0.1207  0.1404  0.3628
   32SAPC   C22 4261   1.449   1.372   6.774  0.5368 -0.2767  0.4262
   32SAPC   H2R 4262   1.526   1.361   6.854  2.5182  4.3020 -0.5012
   32SAPC   H2S 4263   1.430   1.479   6.752 -1.5816  0.0614  3.2786
   32SAPC    C3 4264   1.725   1.386   6.424 -0.1293  0.5524  0.2268
   32SAPC    HX 4265   1.741   1.496   6.433 -2.5108  0.9079  0.5661
   32SAPC    HY 4266   1.754   1.346   6.324 -0.8941 -0.5614  0.4333
   32SAPC   O31 4267   1.793   1.311   6.531  0.7020 -0.2891 -0.2217
   32SAPC   C31 4268   1.863   1.201   6.501  0.4011 -0.6416 -0.1171
   32SAPC   O32 4269   1.874   1.152   6.394  0.1364 -0.0925  1.3062
   32SAPC   C32 4270   1.912   1.153   6.631 -0.1222  0.5490  0.0092
   32SAPC   H2X 4271   1.856   1.062   6.661  2.1210 -1.1236 -0.5781
   32SAPC   H2Y 4272   1.914   1.227   6.714  0.6849 -1.2828  1.6826
   32SAPC   C23 4273   1.321   1.312   6.822 -0.6455  0.3245 -0.2433
   32SAPC   H3R 4274   1.338   1.208   6.856  0.9359  1.5214  3.1051
   32SAPC   H3S 4275   1.245   1.314   6.740 -1.8185  0.3596  0.8160
   32SAPC   C24 4276   1.264   1.387   6.936 -0.2812  0.3902  0.3564
   32SAPC   H4R 4277   1.155   1.365   6.944  0.0382 -1.1716  0.9762
   32SAPC   H4S 4278   1.283   1.495   6.923 -1.6282  0.8239  1.6357
   32SAPC   C25 4279   1.325   1.341   7.070 -0.0313 -0.0190  0.0481
   32SAPC   H5R 4280   1.318   1.235   7.098  1.1232 -0.1555 -0.1179
   32SAPC   C26 4281   1.377   1.417   7.168  0.2855  0.3476  1.0045
   32SAPC   H6R 4282   1.426   1.357   7.247  0.5699 -2.1509 -0.9528
   32SAPC   C27 4283   1.389   1.568   7.167  0.3690  0.3280  0.2689
   32SAPC   H7R 4284   1.292   1.594   7.214  1.5105  0.8847  2.4086
   32SAPC   H7S 4285   1.396   1.601   7.061  0.3782 -1.3312 -0.2766
   32SAPC   C28 4286   1.518   1.626   7.230  0.1515 -0.4110 -0.3633
   32SAPC   H8R 4287   1.594   1.668   7.163 -0.2064 -1.0404 -1.1807
   32SAPC   C29 4288   1.523   1.639   7.363  0.3925 -0.4503 -0.4795
   32SAPC   H9R 4289   1.617   1.677   7.405  0.5252 -1.1286 -0.1434
   32SAPC  C210 4290   1.422   1.592   7.471 -0.2831 -0.2198 -0.7248
   32SAPC  H10R 4291   1.476   1.545   7.556 -1.4351 -0.5888 -0.1702
   32SAPC  H10S 4292   1.346   1.527   7.424 -1.6844  2.2664 -2.1525
   32SAPC  C211 4293   1.349   1.711   7.533  0.3627  0.2742  0.5283
   32SAPC  H11R 4294   1.273   1.748   7.463  0.2177  0.9768  1.0469
   32SAPC  C212 4295   1.374   1.767   7.652  0.3264 -0.0647 -0.0862
   32SAPC  H12R 4296   1.314   1.857   7.675 -0.8587 -1.1385  1.2023
   32SAPC  C213 4297   1.487   1.739   7.751  0.3703 -0.3234  0.7085
   32SAPC  H13R 4298   1.516   1.844   7.774  2.2853  0.3372 -3.7112
   32SAPC  H13S 4299   1.562   1.680   7.693 -1.5392 -0.4024 -1.8486
   32SAPC  C214 4300   1.430   1.668   7.876  0.4624 -0.1551  0.2171
   32SAPC  H14R 4301   1.463   1.564   7.879  1.8078  0.2060 -1.0645
   32SAPC  C215 4302   1.355   1.714   7.976 -0.1598 -0.6956  0.1300
   32SAPC  H15R 4303   1.323   1.646   8.056  1.1358 -1.5342 -0.0149
   32SAPC  C216 4304   1.318   1.863   7.973  0.2309 -0.8907  0.6340
   32SAPC  H16R 4305   1.211   1.890   7.984  0.9796  2.1757  1.7202
   32SAPC  H16S 4306   1.355   1.927   7.890  1.0331 -2.2067 -0.0420
   32SAPC  C217 4307   1.376   1.924   8.099 -0.5418 -0.3467  0.5635
   32SAPC  H17R 4308   1.486   1.908   8.104 -0.6100 -2.7410 -2.4407
   32SAPC  H17S 4309   1.333   1.864   8.182 -2.5243 -0.8870 -0.7746
   32SAPC  C218 4310   1.336   2.072   8.128 -0.4692  0.1325  0.2536
   32SAPC  H18R 4311   1.225   2.078   8.131 -0.4525  2.7793 -1.5129
   32SAPC  H18S 4312   1.376   2.127   8.041  1.2260 -0.4143  0.6497
   32SAPC  C219 4313   1.402   2.126   8.258  0.2968 -0.3476 -0.3463
   32SAPC  H19R 4314   1.508   2.140   8.229  1.2242  0.2812  2.8910
   32SAPC  H19S 4315   1.404   2.054   8.343  0.5443  1.2146  1.0523
   32SAPC  C220 4316   1.341   2.262   8.298 -0.0199  0.1925  0.2480
   32SAPC  H20R 4317   1.234   2.249   8.327  0.4398 -2.4818  1.0476
   32SAPC  H20S 4318   1.352   2.329   8.211  1.1320  1.5355  1.3861
   32SAPC  H20T 4319   1.385   2.304   8.391 -0.1476 -0.6341  0.6912
   32SAPC   C33 4320   2.064   1.099   6.625  0.1216  0.1322  0.1763
   32SAPC   H3X 4321   2.134   1.185   6.612  0.9276 -0.5986 -0.4191
   32SAPC   H3Y 4322   2.071   1.033   6.536 -1.2870 -3.3890  2.4415
   32SAPC   C34 4323   2.112   1.027   6.755  0.0379  0.1272 -0.1832
   32SAPC   H4X 4324   2.216   0.995   6.731  0.3083  1.5918 -1.1632
   32SAPC   H4Y 4325   2.056   0.932   6.764  1.8526 -0.9693  0.0478
   32SAPC   C35 4326   2.104   1.105   6.880 -0.1707  0.3583 -0.5784
   32SAPC   H5X 4327   2.136   1.035   6.960  1.7686 -0.0789 -1.6860
   32SAPC   H5Y 4328   2.001   1.134   6.910  0.3944  0.8004  1.0315
   32SAPC   C36 4329   2.192   1.233   6.898  0.1021 -0.2082  0.1241
   32SAPC   H6X 4330   2.162   1.308   6.822  2.3635  2.1827  1.4155
   32SAPC   H6Y 4331   2.293   1.189   6.883 -0.7132 -2.4300  0.7888
   32SAPC   C37 4332   2.174   1.312   7.030  0.7146  0.2857  0.4884
   32SAPC   H7X 4333   2.065   1.327   7.048  0.6880 -0.2792  0.8313
   32SAPC   H7Y 4334   2.220   1.412   7.017 -1.2144  1.0646 -0.9891
   32SAPC   C38 4335   2.244   1.243   7.146 -0.0872  0.3192 -0.1908
   32SAPC   H8X 4336   2.346   1.224   7.106 -0.8332 -1.4727 -1.3982
   32SAPC   H8Y 4337   2.193   1.144   7.154 -0.3859  0.4991  0.1561
   32SAPC   C39 4338   2.228   1.321   7.276  0.7296  0.8805 -0.3928
   32SAPC   H9X 4339   2.127   1.308   7.318  1.1969 -0.2175  0.4225
   32SAPC   H9Y 4340   2.233   1.430   7.251 -1.2964  0.9778 -0.5392
   32SAPC  C310 4341   2.343   1.301   7.381  0.0281 -0.2128  0.2807
   32SAPC  H10X 4342   2.336   1.393   7.443 -1.0969 -0.5686  0.6932
   32SAPC  H10Y 4343   2.449   1.303   7.347 -0.0157 -0.1842  0.1445
   32SAPC  C311 4344   2.305   1.190   7.471  0.0366  0.6923 -0.0570
   32SAPC  H11X 4345   2.308   1.089   7.424  1.5425 -0.0151  1.4221
   32SAPC  H11Y 4346   2.198   1.195   7.500  0.5324 -1.1356  2.5011
   32SAPC  C312 4347   2.388   1.187   7.599 -0.1131  0.2790  0.3371
   32SAPC  H12X 4348   2.497   1.189   7.579 -0.3664  0.9321 -1.1187
   32SAPC  H12Y 4349   2.370   1.088   7.645  2.0492 -0.7896 -0.9649
   32SAPC  C313 4350   2.352   1.293   7.701 -0.1042  0.7470 -0.1359
   32SAPC  H13X 4351   2.241   1.286   7.693 -0.5274  3.0469  2.2541
   32SAPC  H13Y 4352   2.376   1.391   7.653  3.1966 -0.5060 -1.2774
   32SAPC  C314 4353   2.417   1.265   7.836 -0.6078 -0.4780  0.6578
   32SAPC  H14X 4354   2.522   1.242   7.807 -0.4929  0.9892 -0.1594
   32SAPC  H14Y 4355   2.386   1.166   7.876  0.8627 -1.5226 -0.6523
   32SAPC  C315 4356   2.397   1.383   7.930 -0.4327  0.7036  0.7895
   32SAPC  H15X 4357   2.459   1.466   7.888  1.2893  0.3268  2.4410
   32SAPC  H15Y 4358   2.441   1.353   8.028  1.8015  0.8156 -0.1168
   32SAPC  C316 4359   2.253   1.434   7.947  0.1201  1.0530  0.4204
   32SAPC  H16X 4360   2.181   1.351   7.964  1.6309 -0.3280  0.3472
   32SAPC  H16Y 4361   2.233   1.481   7.849  2.4184 -2.6753 -2.1210
   32SAPC  C317 4362   2.235   1.529   8.072  0.5131  0.9065  0.2610
   32SAPC  H17X 4363   2.239   1.462   8.160  2.1081  0.9548  0.2521
   32SAPC  H17Y 4364   2.128   1.561   8.063 -0.0382 -1.0747 -0.7998
   32SAPC  C318 4365   2.330   1.641   8.082 -0.6178 -0.1732 -0.2422
   32SAPC  H18X 4366   2.372   1.663   7.982 -0.0167 -2.3884 -0.5334
   32SAPC  H18Y 4367   2.402   1.627   8.165  0.7550 -0.8534 -1.5177
   32SAPC  H18Z 4368   2.257   1.720   8.112 -1.3874 -1.2143  0.7066
   33POPC     N 4369   0.587   1.025  10.650 -0.2953  0.0923  0.1612
   33POPC   C12 4370   0.580   1.067  10.501  0.0266  0.0648 -0.6165
   33POPC  H12A 4371   0.666   1.022  10.454 -0.0114 -0.2606 -0.3790
   33POPC  H12B 4372   0.574   1.175  10.491 -1.5691  0.0133 -0.4519
   33POPC   C13 4373   0.718   1.064  10.711 -0.2851  0.3971 -0.4458
   33POPC  H13A 4374   0.734   1.053  10.817  0.7548  0.1783 -0.6164
   33POPC  H13B 4375   0.803   1.021  10.660  0.3878  0.0587  0.9274
   33POPC  H13C 4376   0.722   1.170  10.691  1.0799  0.2676 -0.9822
   33POPC   C14 4377   0.477   1.090  10.733 -0.2907  0.0956  0.0699
   33POPC  H14A 4378   0.462   1.042  10.828  0.9697 -1.8857 -0.6552
   33POPC  H14B 4379   0.491   1.196  10.749 -0.2743 -0.0876  1.3615
   33POPC  H14C 4380   0.382   1.085  10.682 -0.2673  3.4646 -0.5152
   33POPC   C15 4381   0.573   0.876  10.684 -0.6789 -0.6188 -0.4179
   33POPC  H15A 4382   0.577   0.869  10.791 -1.7542  2.0612 -0.1045
   33POPC  H15B 4383   0.648   0.825  10.625 -0.6005 -0.5622 -0.3675
   33POPC  H15C 4384   0.476   0.846  10.647 -0.4842 -0.0150 -1.4793
   33POPC   C11 4385   0.452   1.024  10.419  0.2918 -0.0985  0.6103
   33POPC  H11A 4386   0.466   1.062  10.316  2.4116 -1.6376  0.2636
   33POPC  H11B 4387   0.359   1.068  10.463  1.1106  3.8293 -1.1434
   33POPC     P 4388   0.318   0.810  10.366  0.2166 -0.0609  0.3137
   33POPC   O13 4389   0.231   0.795  10.485  0.0049 -0.2936  0.0453
   33POPC   O14 4390   0.358   0.682  10.297 -0.1072 -0.3376 -0.0506
   33POPC   O12 4391   0.445   0.883  10.415  0.2105  0.6693  0.2117
   33POPC   O11 4392   0.249   0.910  10.259  0.1282 -0.0478 -0.3064
   33POPC    C1 4393   0.236   0.864  10.122  0.3376 -0.1645  0.5517
   33POPC    HA 4394   0.210   0.951  10.058 -0.3985  0.8031  2.0996
   33POPC    HB 4395   0.328   0.814  10.085 -1.2043 -2.2149 -0.7431
   33POPC    C2 4396   0.112   0.773  10.114 -0.7014  0.6706 -0.1488
   33POPC    HS 4397   0.143   0.674  10.153  2.3929  2.2138  1.7496
   33POPC   O21 4398   0.079   0.768   9.976  0.0801  0.4909 -0.1172
   33POPC   C21 4399   0.142   0.684   9.899  0.9430 -0.7015  1.4334
   33POPC   O22 4400   0.224   0.601   9.934 -0.5322  0.7576 -0.1706
   33POPC   C22 4401   0.102   0.715   9.757  0.1109  1.0034  0.1200
   33POPC   H2R 4402   0.137   0.818   9.734 -0.9360  0.6505 -3.7064
   33POPC   H2S 4403  -0.008   0.729   9.769 -0.1700 -0.0743 -0.9769
   33POPC    C3 4404  -0.015   0.820  10.188 -0.5971  0.0952 -0.1320
   33POPC    HX 4405  -0.021   0.928  10.167 -0.3384  0.0861 -0.2513
   33POPC    HY 4406  -0.003   0.821  10.298 -2.5769  2.0404  0.1203
   33POPC   O31 4407  -0.136   0.761  10.150 -0.1496 -0.1206  0.5816
   33POPC   C31 4408  -0.235   0.834  10.099  0.0558 -0.3734 -0.0732
   33POPC   O32 4409  -0.233   0.948  10.067  0.1681 -0.6095  0.7287
   33POPC   C32 4410  -0.351   0.734  10.074 -0.2644 -0.1607  0.0102
   33POPC   H2X 4411  -0.437   0.769  10.135 -2.3194 -1.7776 -1.8293
   33POPC   H2Y 4412  -0.315   0.635  10.108  3.9555  0.5012 -1.8867
   33POPC   C23 4413   0.144   0.607   9.659 -0.1744 -0.4679  0.0448
   33POPC   H3R 4414   0.092   0.510   9.676  0.5204 -0.7857  0.3776
   33POPC   H3S 4415   0.253   0.589   9.658  0.0188  0.6329  0.2069
   33POPC   C24 4416   0.126   0.653   9.511  0.9068 -0.2990 -0.4626
   33POPC   H4R 4417   0.016   0.654   9.497  0.7216  0.7529  0.8183
   33POPC   H4S 4418   0.160   0.565   9.452 -2.9127 -0.3931 -2.8694
   33POPC   C25 4419   0.209   0.776   9.488 -0.0660 -0.6092 -0.4582
   33POPC   H5R 4420   0.313   0.756   9.520 -0.1666  0.0606  0.2945
   33POPC   H5S 4421   0.174   0.871   9.532  0.5303 -0.0571 -1.1421
   33POPC   C26 4422   0.201   0.803   9.345  0.0623  0.3724 -0.2501
   33POPC   H6R 4423   0.103   0.811   9.294  0.1224  0.5660 -0.3382
   33POPC   H6S 4424   0.262   0.728   9.290 -1.4932 -0.8320 -0.3806
   33POPC   C27 4425   0.267   0.940   9.310  0.3125 -0.4457  0.5427
   33POPC   H7R 4426   0.371   0.951   9.347 -0.2835  3.8093  1.4372
   33POPC   H7S 4427   0.215   1.012   9.377 -0.8980 -1.1765  0.4081
   33POPC   C28 4428   0.254   0.989   9.172  0.5565 -0.2708  0.3007
   33POPC   H8R 4429   0.313   0.917   9.112  1.9451  0.2203  1.0382
   33POPC   H8S 4430   0.319   1.079   9.166  0.0170  0.1980  1.2160
   33POPC   C29 4431   0.115   1.007   9.120 -0.1978  0.3115  0.7218
   33POPC   H91 4432   0.037   0.961   9.182  2.4580 -3.4759  1.6507
   33POPC  C210 4433   0.083   1.060   8.996  0.3341 -0.3875  0.7277
   33POPC  H101 4434  -0.023   1.064   8.968  0.4565  0.4980  0.3257
   33POPC  C211 4435   0.175   1.119   8.893  0.0372 -0.3795  0.2720
   33POPC  H11R 4436   0.278   1.135   8.932  1.3999 -1.1563 -2.6768
   33POPC  H11S 4437   0.154   1.220   8.854  0.6329 -0.6439 -0.7723
   33POPC  C212 4438   0.207   1.023   8.777  0.2220  0.1634  0.4572
   33POPC  H12R 4439   0.282   1.080   8.718 -0.8462  2.2794  1.0341
   33POPC  H12S 4440   0.132   1.006   8.696 -0.4128  0.2734  1.0065
   33POPC  C213 4441   0.278   0.889   8.807  0.5725 -0.0918 -0.2346
   33POPC  H13R 4442   0.196   0.832   8.856  1.5077 -1.0597  0.2378
   33POPC  H13S 4443   0.354   0.894   8.887 -0.3033 -3.3508  0.9630
   33POPC  C214 4444   0.330   0.838   8.673  1.0791  0.5000 -0.8817
   33POPC  H14R 4445   0.409   0.766   8.703 -0.9876 -1.9383 -0.8904
   33POPC  H14S 4446   0.373   0.914   8.604  0.3327 -0.4197 -2.4119
   33POPC  C215 4447   0.219   0.750   8.602  0.1942  0.0042 -0.1095
   33POPC  H15R 4448   0.146   0.818   8.554  1.8917  1.9350 -0.0906
   33POPC  H15S 4449   0.169   0.687   8.679  1.5847 -1.1820 -0.1301
   33POPC  C216 4450   0.289   0.654   8.506  0.2658  0.4987  0.2611
   33POPC  H16R 4451   0.237   0.556   8.510  0.0285  0.5635 -0.8810
   33POPC  H16S 4452   0.393   0.633   8.540 -0.4988 -0.7225  1.9640
   33POPC  C217 4453   0.292   0.704   8.368  0.6893 -0.6802  0.0619
   33POPC  H17R 4454   0.353   0.795   8.386  1.5324 -1.8114  3.6806
   33POPC  H17S 4455   0.192   0.736   8.331  0.5420 -1.6600 -0.4239
   33POPC  C218 4456   0.366   0.608   8.275  0.8922 -0.2796 -0.1064
   33POPC  H18R 4457   0.469   0.595   8.315  0.4605 -1.8681  0.5376
   33POPC  H18S 4458   0.377   0.647   8.171  0.0956 -0.4221 -0.2493
   33POPC  H18T 4459   0.318   0.509   8.277 -0.4565  0.3580  0.5424
   33POPC   C33 4460  -0.384   0.726   9.921  0.6697  0.0855  0.0653
   33POPC   H3X 4461  -0.410   0.827   9.883 -0.5630  0.3212  1.4539
   33POPC   H3Y 4462  -0.467   0.658   9.893 -0.3678  1.5648 -0.5926
   33POPC   C34 4463  -0.268   0.668   9.846 -0.1404  0.2513  0.8433
   33POPC   H4X 4464  -0.282   0.558   9.844 -1.3922  0.3460 -2.3531
   33POPC   H4Y 4465  -0.174   0.695   9.899  1.5185 -0.0782 -1.7759
   33POPC   C35 4466  -0.251   0.714   9.704 -0.2584  0.0793  0.5082
   33POPC   H5X 4467  -0.158   0.670   9.662  0.8993  2.1896  0.7315
   33POPC   H5Y 4468  -0.234   0.823   9.705  0.5744 -0.0410  1.3457
   33POPC   C36 4469  -0.374   0.681   9.614 -0.1211  0.0861  0.0967
   33POPC   H6X 4470  -0.460   0.738   9.654 -0.0031 -0.2550  0.8628
   33POPC   H6Y 4471  -0.389   0.571   9.628 -1.9698  0.1399 -1.2535
   33POPC   C37 4472  -0.352   0.727   9.467 -0.1273  0.1404  0.3556
   33POPC   H7X 4473  -0.264   0.676   9.423  0.0191 -1.3948  2.2764
   33POPC   H7Y 4474  -0.339   0.837   9.470  0.5492  0.1492 -1.3566
   33POPC   C38 4475  -0.474   0.692   9.377 -0.3955  0.0991 -0.0833
   33POPC   H8X 4476  -0.559   0.758   9.409  0.7099  0.0269  3.4069
   33POPC   H8Y 4477  -0.504   0.588   9.399  0.5029 -0.6262 -2.1185
   33POPC   C39 4478  -0.442   0.700   9.229  0.0654  0.3990 -0.2946
   33POPC   H9X 4479  -0.357   0.633   9.206 -0.1624 -0.0423  0.1551
   33POPC   H9Y 4480  -0.418   0.807   9.213 -0.3585  0.4258 -0.7903
   33POPC  C310 4481  -0.562   0.684   9.133 -0.0530 -0.4669  0.0909
   33POPC  H10X 4482  -0.585   0.580   9.163 -0.7764 -0.1892  0.5115
   33POPC  H10Y 4483  -0.516   0.682   9.032  0.5785 -1.1156  0.3823
   33POPC  C311 4484  -0.678   0.786   9.154  0.1383 -0.1604  0.3643
   33POPC  H11X 4485  -0.636   0.888   9.160 -2.4971  0.9343  1.6242
   33POPC  H11Y 4486  -0.717   0.753   9.253  1.5124 -3.2480  0.0174
   33POPC  C312 4487  -0.782   0.801   9.041  1.1054  0.2842  0.2717
   33POPC  H12X 4488  -0.750   0.838   8.941 -0.4800  1.0581  0.0045
   33POPC  H12Y 4489  -0.855   0.875   9.082 -1.1732 -1.7882  0.2006
   33POPC  C313 4490  -0.876   0.685   9.014  0.1517 -0.1729 -0.6908
   33POPC  H13X 4491  -0.912   0.654   9.114 -2.4536  0.6463 -1.2932
   33POPC  H13Y 4492  -0.844   0.601   8.949  0.1855 -0.5991 -0.1338
   33POPC  C314 4493  -1.012   0.724   8.956 -0.1790 -0.4800 -0.3868
   33POPC  H14X 4494  -1.065   0.786   9.032 -1.0089 -0.0323 -1.2983
   33POPC  H14Y 4495  -1.078   0.635   8.950 -0.3415 -0.5458  1.5810
   33POPC  C315 4496  -1.004   0.795   8.822 -0.6799  0.2090  0.3322
   33POPC  H15X 4497  -0.949   0.727   8.754 -1.6140 -1.1368  0.8808
   33POPC  H15Y 4498  -0.950   0.891   8.836 -1.7088  0.8734 -0.0352
   33POPC  C316 4499  -1.136   0.822   8.754 -0.0576  0.6804 -0.4895
   33POPC  H16X 4500  -1.144   0.892   8.668  0.5505  0.9163 -0.3536
   33POPC  H16Y 4501  -1.205   0.860   8.832 -0.0687  1.4719 -0.8741
   33POPC  H16Z 4502  -1.179   0.726   8.717 -0.0581  0.2439  0.6244
   34POPC     N 4503   3.994   2.099  11.125 -0.2378 -0.3049  0.5087
   34POPC   C12 4504   4.080   2.175  11.027 -0.5582 -0.1636 -0.2617
   34POPC  H12A 4505   4.174   2.123  11.028 -1.0638 -1.2486  3.2617
   34POPC  H12B 4506   4.095   2.276  11.063 -1.0962  0.1697 -0.9216
   34POPC   C13 4507   4.053   2.089  11.256 -0.2286  0.1588  0.1273
   34POPC  H13A 4508   4.018   2.003  11.312  1.2655  0.1940  1.1800
   34POPC  H13B 4509   4.160   2.071  11.258  0.0895  1.9694  0.9443
   34POPC  H13C 4510   4.044   2.183  11.307  1.2283 -1.1145  2.9719
   34POPC   C14 4511   3.859   2.153  11.134  0.4398 -0.5445  0.1310
   34POPC  H14A 4512   3.815   2.115  11.225  3.5736 -1.0213  1.5983
   34POPC  H14B 4513   3.872   2.260  11.145 -0.4131 -0.0615 -2.6696
   34POPC  H14C 4514   3.795   2.134  11.049  1.2643  0.0655 -0.6521
   34POPC   C15 4515   3.977   1.961  11.065  0.3888  0.1427  0.0066
   34POPC  H15A 4516   3.926   1.965  10.970 -0.4277  0.4391  0.4385
   34POPC  H15B 4517   3.920   1.903  11.136  1.4827  1.4864  2.0929
   34POPC  H15C 4518   4.072   1.910  11.065  0.3823  0.1286  0.2530
   34POPC   C11 4519   4.024   2.195  10.879 -0.0620  0.0303 -0.1705
   34POPC  H11A 4520   4.074   2.288  10.843 -0.8397  0.5062 -0.0571
   34POPC  H11B 4521   3.916   2.212  10.897 -0.6308 -2.0847 -1.2771
   34POPC     P 4522   4.183   2.024  10.762 -0.4495 -0.0906 -0.2140
   34POPC   O13 4523   4.195   1.879  10.793  0.0785  0.3091 -0.4904
   34POPC   O14 4524   4.288   2.116  10.811 -0.2369  0.3257 -0.6324
   34POPC   O12 4525   4.035   2.076  10.803 -0.7377 -0.3803  0.7298
   34POPC   O11 4526   4.185   2.035  10.605 -0.0574 -0.1345 -0.5351
   34POPC    C1 4527   4.077   2.075  10.524 -0.0617 -0.0916 -0.9794
   34POPC    HA 4528   4.057   2.181  10.547 -1.6526 -0.7949  1.1475
   34POPC    HB 4529   3.993   2.015  10.565  1.6119 -0.6502  1.9710
   34POPC    C2 4530   4.094   2.078  10.372  0.1231  0.1903  0.3233
   34POPC    HS 4531   4.018   2.134  10.314  0.4301 -0.2777 -0.5451
   34POPC   O21 4532   4.109   1.945  10.320 -0.1286  0.7113  0.3399
   34POPC   C21 4533   3.995   1.877  10.298 -0.0900  0.1593  0.9967
   34POPC   O22 4534   3.881   1.917  10.317  0.1787 -0.7085  0.1480
   34POPC   C22 4535   4.030   1.754  10.218 -0.4003  0.1867 -0.4385
   34POPC   H2R 4536   3.942   1.685  10.224  0.8339 -1.3567  0.8214
   34POPC   H2S 4537   4.110   1.701  10.274 -0.2390  2.4579  1.6510
   34POPC    C3 4538   4.215   2.166  10.327 -0.1428  0.2452 -1.0013
   34POPC    HX 4539   4.302   2.113  10.372  0.7521  1.6487 -1.0341
   34POPC    HY 4540   4.201   2.266  10.374  2.0147 -0.0586  0.4384
   34POPC   O31 4541   4.210   2.177  10.189  0.4208 -0.2298  0.1085
   34POPC   C31 4542   4.288   2.095  10.127  0.3330  0.1621 -0.1848
   34POPC   O32 4543   4.348   2.007  10.179  0.0749  0.5083 -0.2752
   34POPC   C32 4544   4.302   2.137   9.982 -0.3157  0.5702  0.1214
   34POPC   H2X 4545   4.216   2.197   9.946 -1.4848 -1.1207 -0.0324
   34POPC   H2Y 4546   4.304   2.039   9.928 -1.7836  0.1034  0.8576
   34POPC   C23 4547   4.081   1.791  10.075  0.2378 -0.2462  0.2965
   34POPC   H3R 4548   4.121   1.700  10.027 -0.9396 -1.2199  1.0971
   34POPC   H3S 4549   4.167   1.860  10.087  0.2454 -0.4300  1.4668
   34POPC   C24 4550   3.974   1.858   9.994 -0.1612  0.6426  0.1471
   34POPC   H4R 4551   3.924   1.940  10.048  0.0580 -0.1696  1.6403
   34POPC   H4S 4552   3.891   1.785   9.983 -0.1259  0.7590 -0.9775
   34POPC   C25 4553   4.026   1.911   9.866 -0.0031  0.0121 -0.4544
   34POPC   H5R 4554   4.111   1.853   9.825 -0.6791 -1.6269  0.3546
   34POPC   H5S 4555   4.064   2.013   9.887  1.7049 -0.6163 -0.3752
   34POPC   C26 4556   3.932   1.923   9.753  0.3255  1.0038 -0.8787
   34POPC   H6R 4557   3.839   1.975   9.782 -1.1699 -1.8823 -0.1304
   34POPC   H6S 4558   3.899   1.821   9.725  1.8688 -0.2201  1.4041
   34POPC   C27 4559   3.998   1.992   9.642  0.4999  0.0901  0.2165
   34POPC   H7R 4560   4.103   1.956   9.637  0.4173 -0.1560  0.2700
   34POPC   H7S 4561   4.014   2.101   9.660  1.7308 -0.0596  0.1395
   34POPC   C28 4562   3.937   1.972   9.501 -0.0057 -1.2277  0.1036
   34POPC   H8R 4563   3.830   2.000   9.508 -0.0027 -0.0812 -2.8528
   34POPC   H8S 4564   3.944   1.869   9.459  0.0048 -0.8201 -0.9052
   34POPC   C29 4565   4.003   2.058   9.401 -0.2110  0.2389  0.0661
   34POPC   H91 4566   4.109   2.069   9.426 -0.7137  2.4133  1.5913
   34POPC  C210 4567   3.945   2.116   9.302 -0.0564  0.3670 -0.3053
   34POPC  H101 4568   4.012   2.173   9.237  1.0202 -0.0736  0.4044
   34POPC  C211 4569   3.800   2.113   9.275  0.5890  0.0967  0.7512
   34POPC  H11R 4570   3.759   2.216   9.276  1.8413  0.6170  0.6859
   34POPC  H11S 4571   3.744   2.057   9.353 -0.1254 -0.2345  0.0216
   34POPC  C212 4572   3.763   2.040   9.136  0.5093  0.0273 -0.0086
   34POPC  H12R 4573   3.655   2.015   9.135  0.2465  0.9977  1.4504
   34POPC  H12S 4574   3.811   1.940   9.150  0.7536  0.0486 -0.6636
   34POPC  C213 4575   3.808   2.123   9.012  0.0144 -0.1869 -0.6628
   34POPC  H13R 4576   3.916   2.140   9.026  0.3008 -1.5275 -1.0432
   34POPC  H13S 4577   3.758   2.222   9.017  0.8596  0.1676  1.8169
   34POPC  C214 4578   3.783   2.051   8.876 -0.0030 -0.1146  0.1659
   34POPC  H14R 4579   3.685   1.998   8.886  0.0727 -0.0547  1.4994
   34POPC  H14S 4580   3.849   1.971   8.838  3.0959  2.7263 -0.9734
   34POPC  C215 4581   3.739   2.158   8.766  0.1903  0.6708  1.3497
   34POPC  H15R 4582   3.827   2.214   8.727 -0.8981  1.3889 -0.2027
   34POPC  H15S 4583   3.660   2.233   8.789 -3.3982 -2.0513 -0.9755
   34POPC  C216 4584   3.667   2.075   8.651  0.2570 -0.6427  0.1113
   34POPC  H16R 4585   3.575   2.026   8.687 -0.9322  1.5257  0.1566
   34POPC  H16S 4586   3.735   1.993   8.619 -0.6748 -0.9722 -1.0945
   34POPC  C217 4587   3.634   2.147   8.524 -0.0387  0.6055  0.0159
   34POPC  H17R 4588   3.726   2.202   8.495 -1.1878  3.4943  1.4139
   34POPC  H17S 4589   3.555   2.216   8.561  0.2989  0.6025  0.7579
   34POPC  C218 4590   3.574   2.057   8.416 -0.1697  0.4974 -0.0582
   34POPC  H18R 4591   3.504   1.981   8.457 -0.7062  0.8430 -0.3149
   34POPC  H18S 4592   3.653   2.002   8.360 -0.6518  1.4889 -1.7839
   34POPC  H18T 4593   3.528   2.123   8.340 -0.2829  0.8132  0.2833
   34POPC   C33 4594   4.436   2.211   9.950 -0.4006  0.0370  0.5383
   34POPC   H3X 4595   4.520   2.163  10.005 -0.0282  0.4774  0.3525
   34POPC   H3Y 4596   4.444   2.309  10.001  0.3954 -0.6841  1.8864
   34POPC   C34 4597   4.475   2.215   9.810  0.4817  0.1080  0.5350
   34POPC   H4X 4598   4.504   2.115   9.771  0.9507 -0.5578  2.4552
   34POPC   H4Y 4599   4.565   2.277   9.794  0.7727 -0.0531  1.4759
   34POPC   C35 4600   4.364   2.283   9.726  0.1107  0.2010 -0.4071
   34POPC   H5X 4601   4.343   2.380   9.776 -2.8074 -0.6749  0.2145
   34POPC   H5Y 4602   4.268   2.227   9.721  0.6175 -0.8350  0.9382
   34POPC   C36 4603   4.405   2.303   9.583 -0.5233  0.2926 -0.5634
   34POPC   H6X 4604   4.440   2.204   9.546  0.5844 -0.1139  1.4418
   34POPC   H6Y 4605   4.495   2.368   9.582 -0.8018  0.7386  0.9443
   34POPC   C37 4606   4.293   2.354   9.493  0.7655 -0.6000 -0.1112
   34POPC   H7X 4607   4.267   2.457   9.523 -1.1404 -1.2151  0.5323
   34POPC   H7Y 4608   4.199   2.294   9.501 -2.1596  3.0982 -3.0693
   34POPC   C38 4609   4.340   2.352   9.349 -0.6578  0.0938  0.6046
   34POPC   H8X 4610   4.359   2.251   9.306 -0.9413  0.5141 -0.5578
   34POPC   H8Y 4611   4.438   2.403   9.336 -0.2147 -0.7274  0.6509
   34POPC   C39 4612   4.232   2.411   9.252  0.0462  0.3208 -0.0561
   34POPC   H9X 4613   4.203   2.514   9.282 -0.6324 -0.5206  2.4956
   34POPC   H9Y 4614   4.132   2.365   9.271 -0.3891  1.5054  0.6321
   34POPC  C310 4615   4.256   2.382   9.103 -0.0031  0.1376 -0.4027
   34POPC  H10X 4616   4.234   2.274   9.091 -0.4228  0.2387 -0.5515
   34POPC  H10Y 4617   4.361   2.403   9.073  0.3380 -1.9848 -0.8295
   34POPC  C311 4618   4.164   2.456   9.006 -0.5160 -0.4532  0.0567
   34POPC  H11X 4619   4.198   2.561   8.991  0.1075 -0.2215  2.5705
   34POPC  H11Y 4620   4.064   2.463   9.056  1.2572  1.3154  3.7925
   34POPC  C312 4621   4.146   2.381   8.871 -0.4162 -0.3920  0.3939
   34POPC  H12X 4622   4.099   2.282   8.892  0.4413 -0.2861  3.1478
   34POPC  H12Y 4623   4.245   2.365   8.823 -0.0154 -0.8743  1.3554
   34POPC  C313 4624   4.052   2.458   8.773 -0.6754  0.2221  0.3381
   34POPC  H13X 4625   4.042   2.385   8.690  0.9423  0.0818  0.2293
   34POPC  H13Y 4626   4.089   2.558   8.743 -0.7912  0.1078 -0.1961
   34POPC  C314 4627   3.916   2.488   8.843  0.3317  0.2343 -0.0442
   34POPC  H14X 4628   3.929   2.563   8.924 -1.9016  1.4333 -0.7150
   34POPC  H14Y 4629   3.876   2.392   8.882 -1.4734  0.0452 -2.1652
   34POPC  C315 4630   3.805   2.535   8.743  0.8583 -0.3515 -0.4276
   34POPC  H15X 4631   3.812   2.467   8.656 -0.6818 -0.4318 -0.5139
   34POPC  H15Y 4632   3.839   2.632   8.698  0.7323  0.0002  0.2283
   34POPC  C316 4633   3.665   2.538   8.810  0.7913  0.7805  0.3109
   34POPC  H16X 4634   3.574   2.525   8.748  1.2951  1.1912 -0.5413
   34POPC  H16Y 4635   3.658   2.631   8.870  1.6344  0.9487  0.1732
   34POPC  H16Z 4636   3.668   2.459   8.887  0.9335  0.5391  0.0594
   35POPC     N 4637   2.097   6.088  11.104  0.3549 -0.1341  0.7050
   35POPC   C12 4638   2.182   6.176  11.013  0.7432  0.2879  0.8751
   35POPC  H12A 4639   2.244   6.119  10.946 -2.0558 -1.0515 -0.7985
   35POPC  H12B 4640   2.248   6.232  11.078  0.4351  0.8126  0.7430
   35POPC   C13 4641   1.995   6.011  11.020 -0.2525  0.4256  0.3281
   35POPC  H13A 4642   1.948   5.938  11.084 -1.3902  0.0260 -0.8913
   35POPC  H13B 4643   1.918   6.080  10.986 -0.1711 -0.2863 -1.4299
   35POPC  H13C 4644   2.039   5.979  10.927  2.0746  1.3757  1.0178
   35POPC   C14 4645   2.177   5.988  11.181 -0.5633  0.6235 -0.6096
   35POPC  H14A 4646   2.112   5.920  11.233  0.1007 -0.6303 -1.3834
   35POPC  H14B 4647   2.251   5.939  11.120 -2.2094 -0.7549 -1.6157
   35POPC  H14C 4648   2.250   6.024  11.252  1.2807 -0.8164 -1.6871
   35POPC   C15 4649   2.025   6.163  11.207 -0.4964  0.0394 -0.6603
   35POPC  H15A 4650   2.092   6.220  11.270 -0.0616  0.3643 -1.4027
   35POPC  H15B 4651   1.981   6.097  11.279  0.3312  1.6765  1.4562
   35POPC  H15C 4652   1.954   6.234  11.168 -0.6715 -0.2143 -0.8031
   35POPC   C11 4653   2.118   6.270  10.902  0.1342 -0.7757 -0.0177
   35POPC  H11A 4654   2.043   6.217  10.840  0.0413  0.1060 -0.6761
   35POPC  H11B 4655   2.202   6.299  10.837  1.0666 -2.2298  0.4883
   35POPC     P 4656   2.136   6.507  10.997 -0.0215  0.0409  0.0074
   35POPC   O13 4657   2.276   6.472  11.026 -0.1793  0.5928  0.2586
   35POPC   O14 4658   2.065   6.588  11.097  0.2892 -0.0610 -0.8681
   35POPC   O12 4659   2.055   6.387  10.968 -0.1832  1.4972 -0.3929
   35POPC   O11 4660   2.123   6.591  10.874 -0.2178  0.1641  0.5026
   35POPC    C1 4661   2.236   6.602  10.782 -0.5068  0.2465 -0.4635
   35POPC    HA 4662   2.315   6.524  10.797 -0.7224 -0.0444 -0.8150
   35POPC    HB 4663   2.284   6.701  10.792  0.6760 -0.4766  1.6110
   35POPC    C2 4664   2.175   6.569  10.643 -0.4106 -0.5997  0.2787
   35POPC    HS 4665   2.076   6.619  10.643 -0.4292 -0.6105 -0.5117
   35POPC   O21 4666   2.178   6.426  10.612  0.3516  1.0542 -0.8019
   35POPC   C21 4667   2.065   6.390  10.541 -0.5546  0.3511  0.9014
   35POPC   O22 4668   1.981   6.467  10.508  0.1686 -0.7749 -0.2254
   35POPC   C22 4669   2.087   6.243  10.504  0.4002 -0.3119  0.1887
   35POPC   H2R 4670   2.025   6.214  10.417  1.2699 -0.8688 -0.2475
   35POPC   H2S 4671   2.048   6.184  10.590 -0.1574 -0.0376  0.1338
   35POPC    C3 4672   2.268   6.645  10.538 -0.2798 -0.8303 -0.0899
   35POPC    HX 4673   2.371   6.608  10.552 -0.1304  0.2089  1.9056
   35POPC    HY 4674   2.264   6.754  10.559  0.8029 -0.7443 -0.3043
   35POPC   O31 4675   2.228   6.614  10.406  0.1196  0.0300  0.4822
   35POPC   C31 4676   2.145   6.694  10.346 -0.3227 -0.4638 -0.6561
   35POPC   O32 4677   2.104   6.795  10.403 -0.4971  0.1974 -0.0741
   35POPC   C32 4678   2.112   6.632  10.208 -0.0831 -0.2464 -0.6651
   35POPC   H2X 4679   2.111   6.521  10.214  2.2883 -0.2910 -0.4513
   35POPC   H2Y 4680   2.196   6.666  10.144  1.0846 -1.9654 -0.0979
   35POPC   C23 4681   2.219   6.197  10.446 -0.1897  0.4064 -0.2806
   35POPC   H3R 4682   2.208   6.089  10.423 -0.4825 -0.0586  1.9037
   35POPC   H3S 4683   2.304   6.203  10.517 -0.2251 -1.3990 -0.0463
   35POPC   C24 4684   2.245   6.275  10.315 -0.3904 -0.3281 -0.6449
   35POPC   H4R 4685   2.271   6.378  10.347  0.3028 -1.1248  1.5885
   35POPC   H4S 4686   2.153   6.280  10.254 -0.8544 -0.7546  0.0090
   35POPC   C25 4687   2.353   6.228  10.215 -0.5748  0.4315 -0.2302
   35POPC   H5R 4688   2.442   6.219  10.281 -0.7290  0.3784 -0.0284
   35POPC   H5S 4689   2.358   6.304  10.133 -2.9686  1.0588  0.1316
   35POPC   C26 4690   2.326   6.086  10.150 -0.3172  0.0930 -0.1166
   35POPC   H6R 4691   2.328   6.011  10.232 -1.1554 -1.9101 -1.8334
   35POPC   H6S 4692   2.419   6.058  10.096  1.1794  1.2798  1.7331
   35POPC   C27 4693   2.189   6.066  10.076  0.4173 -0.7349  0.3493
   35POPC   H7R 4694   2.103   6.073  10.146 -0.6316  1.0780 -1.0271
   35POPC   H7S 4695   2.192   5.962  10.037 -0.0433 -0.9090  0.7750
   35POPC   C28 4696   2.155   6.159   9.963  0.5175 -0.4527 -0.0506
   35POPC   H8R 4697   2.138   6.262  10.001  2.6632  0.3360 -1.0405
   35POPC   H8S 4698   2.059   6.128   9.918  0.6538  0.7567 -1.2348
   35POPC   C29 4699   2.252   6.176   9.849  0.5566  0.4282  0.1813
   35POPC   H91 4700   2.291   6.080   9.809  0.4780 -0.0214  1.1619
   35POPC  C210 4701   2.311   6.288   9.805 -0.3660  0.0167 -0.0827
   35POPC  H101 4702   2.378   6.283   9.718  0.8025 -0.2919  0.8072
   35POPC  C211 4703   2.295   6.428   9.872  0.0351  0.1222 -0.4900
   35POPC  H11R 4704   2.390   6.483   9.885 -0.2409  0.3506  0.7007
   35POPC  H11S 4705   2.256   6.414   9.975  0.8629  2.4710  0.2112
   35POPC  C212 4706   2.201   6.515   9.794 -0.1769 -0.3928  0.2740
   35POPC  H12R 4707   2.198   6.614   9.845 -0.2531  0.6363 -1.6321
   35POPC  H12S 4708   2.100   6.469   9.803 -0.8157  0.9052  0.0140
   35POPC  C213 4709   2.235   6.529   9.643 -0.2053 -0.7516  1.1163
   35POPC  H13R 4710   2.238   6.427   9.598  2.4353 -0.5180  0.5958
   35POPC  H13S 4711   2.338   6.568   9.628 -0.3161 -1.3712 -2.0404
   35POPC  C214 4712   2.143   6.626   9.569  0.0142  0.1970 -0.2132
   35POPC  H14R 4713   2.144   6.723   9.624 -0.2808 -1.5836  3.2140
   35POPC  H14S 4714   2.039   6.589   9.578 -0.7586  1.5992 -2.4191
   35POPC  C215 4715   2.173   6.640   9.414  1.3592  0.4049 -0.2025
   35POPC  H15R 4716   2.271   6.690   9.409  1.0757  0.9428 -0.4503
   35POPC  H15S 4717   2.090   6.705   9.379  1.4504  0.2525 -0.7025
   35POPC  C216 4718   2.162   6.501   9.344  0.7951  0.8774  0.3782
   35POPC  H16R 4719   2.058   6.460   9.344  1.5631 -1.1711  0.1307
   35POPC  H16S 4720   2.232   6.428   9.390  1.1445 -0.0055 -1.4949
   35POPC  C217 4721   2.216   6.508   9.196 -0.6842 -0.0065 -0.0205
   35POPC  H17R 4722   2.222   6.407   9.150  0.8984 -0.2647  0.6610
   35POPC  H17S 4723   2.325   6.529   9.204 -1.1416  1.9692  2.2116
   35POPC  C218 4724   2.146   6.596   9.099  0.2795 -0.2077  0.1599
   35POPC  H18R 4725   2.186   6.586   8.996  0.7154  2.0150  0.0680
   35POPC  H18S 4726   2.161   6.702   9.129  0.3475 -0.6059  1.6402
   35POPC  H18T 4727   2.038   6.569   9.089  0.8478 -2.6860 -0.1415
   35POPC   C33 4728   1.973   6.688  10.170  0.3277  0.1128 -1.2966
   35POPC   H3X 4729   1.969   6.798  10.189  4.1899 -0.0784  2.0135
   35POPC   H3Y 4730   1.900   6.646  10.242  2.0128  0.3354  0.6254
   35POPC   C34 4731   1.925   6.653  10.026  0.5708 -0.3266  0.1907
   35POPC   H4X 4732   1.977   6.560   9.996 -0.8446  0.0990 -4.2617
   35POPC   H4Y 4733   1.942   6.738   9.957 -0.9157 -0.9282 -0.9794
   35POPC   C35 4734   1.775   6.616  10.014 -0.5084  0.1523 -0.1059
   35POPC   H5X 4735   1.720   6.708  10.044 -0.2868  0.4763 -0.6793
   35POPC   H5Y 4736   1.757   6.536  10.089 -1.3947  0.6316  0.2123
   35POPC   C36 4737   1.735   6.559   9.884  0.5673  0.5358  0.7139
   35POPC   H6X 4738   1.632   6.516   9.888  1.3325 -1.3693  1.6192
   35POPC   H6Y 4739   1.802   6.474   9.859 -0.0287  1.0843 -3.3151
   35POPC   C37 4740   1.752   6.646   9.764 -0.3908 -0.2275  0.4466
   35POPC   H7X 4741   1.852   6.693   9.769 -0.6975  0.3924  0.8295
   35POPC   H7Y 4742   1.678   6.729   9.762 -0.1811  0.0106  1.6653
   35POPC   C38 4743   1.736   6.563   9.643  0.3186 -0.0350  0.0795
   35POPC   H8X 4744   1.635   6.517   9.642 -0.2879  1.1586  1.5790
   35POPC   H8Y 4745   1.805   6.476   9.638 -0.3996 -0.5123 -2.7469
   35POPC   C39 4746   1.748   6.638   9.512  0.1834  0.0827 -0.7246
   35POPC   H9X 4747   1.850   6.682   9.510 -0.0130  0.8405  1.9787
   35POPC   H9Y 4748   1.676   6.723   9.513  1.7072  1.4279  0.5634
   35POPC  C310 4749   1.718   6.542   9.393  0.7231 -0.2680  0.3663
   35POPC  H10X 4750   1.616   6.498   9.388  1.6050 -2.4218  0.2636
   35POPC  H10Y 4751   1.791   6.459   9.403 -0.0901 -1.6147 -3.2262
   35POPC  C311 4752   1.757   6.620   9.258  0.1660  0.0382  0.8868
   35POPC  H11X 4753   1.801   6.555   9.180 -0.3377  2.5261 -1.6582
   35POPC  H11Y 4754   1.838   6.693   9.281 -0.6541  1.6748 -1.0709
   35POPC  C312 4755   1.632   6.668   9.184  0.3355 -0.3773  0.3743
   35POPC  H12X 4756   1.551   6.700   9.253  0.3579 -0.0060  0.2267
   35POPC  H12Y 4757   1.588   6.580   9.132  0.0467  0.2790 -0.5028
   35POPC  C313 4758   1.673   6.778   9.094 -0.3778  1.2182 -0.7285
   35POPC  H13X 4759   1.731   6.854   9.151 -0.6272 -0.6640  2.2381
   35POPC  H13Y 4760   1.579   6.817   9.049  0.3833  1.4573 -2.1905
   35POPC  C314 4761   1.763   6.724   8.972  0.0226  0.3355  0.7952
   35POPC  H14X 4762   1.733   6.618   8.961 -0.1667  0.4677 -0.0013
   35POPC  H14Y 4763   1.870   6.735   9.000 -0.3556  2.4778  1.6611
   35POPC  C315 4764   1.731   6.801   8.831 -0.5188  0.0836 -0.1808
   35POPC  H15X 4765   1.773   6.904   8.836  2.4950 -1.0894  0.4745
   35POPC  H15Y 4766   1.622   6.818   8.818 -0.4926  0.3557 -0.0540
   35POPC  C316 4767   1.782   6.728   8.712  0.3012 -0.3672  0.3579
   35POPC  H16X 4768   1.714   6.641   8.701 -1.9348  1.1298  1.6321
   35POPC  H16Y 4769   1.885   6.686   8.720  0.1800 -0.4762  1.4728
   35POPC  H16Z 4770   1.768   6.794   8.623 -0.7189  0.4082  1.0764
   36POPC     N 4771   6.052   5.037  10.971 -0.3504  0.4413 -1.0423
   36POPC   C12 4772   6.118   4.997  10.836 -0.0132  0.9458 -0.3547
   36POPC  H12A 4773   6.205   4.933  10.844  0.1343  1.2491  0.6257
   36POPC  H12B 4774   6.158   5.085  10.788 -0.7947  0.7703 -1.3553
   36POPC   C13 4775   5.923   5.102  10.955 -0.3713  0.4777  0.9821
   36POPC  H13A 4776   5.922   5.203  10.917 -1.9003 -0.1018 -0.6854
   36POPC  H13B 4777   5.867   5.043  10.883  1.0566 -1.6945  1.5369
   36POPC  H13C 4778   5.868   5.105  11.048 -1.2389  0.3824  0.4887
   36POPC   C14 4779   6.033   4.915  11.055 -0.1389 -0.2114  0.2613
   36POPC  H14A 4780   5.964   4.851  11.003 -1.0375  0.2898  0.8035
   36POPC  H14B 4781   6.121   4.853  11.058  0.9218  1.2008 -0.6136
   36POPC  H14C 4782   5.995   4.939  11.154  0.4208  1.1596  0.1698
   36POPC   C15 4783   6.142   5.132  11.048 -0.2698  0.0331 -0.1322
   36POPC  H15A 4784   6.242   5.092  11.050 -0.4849 -0.6098 -1.1761
   36POPC  H15B 4785   6.113   5.143  11.151  0.6461  1.7315 -0.0244
   36POPC  H15C 4786   6.154   5.226  10.996  0.4128 -0.6724 -1.2933
   36POPC   C11 4787   6.018   4.926  10.740  0.3067 -0.3125  0.1443
   36POPC  H11A 4788   6.070   4.908  10.644 -0.1435  0.6874 -0.3031
   36POPC  H11B 4789   5.935   4.999  10.725 -0.5387 -1.2080  0.3650
   36POPC     P 4790   6.029   4.666  10.745 -0.0933  0.1835  0.3672
   36POPC   O13 4791   5.964   4.559  10.811 -0.5444  0.6220 -0.0344
   36POPC   O14 4792   6.177   4.676  10.758  0.8913 -0.0479  0.2982
   36POPC   O12 4793   5.962   4.806  10.787 -0.2211  0.7763  0.4760
   36POPC   O11 4794   5.988   4.658  10.594 -0.5749  0.2925 -0.2757
   36POPC    C1 4795   5.854   4.631  10.565  0.2131 -0.2652 -0.4601
   36POPC    HA 4796   5.781   4.660  10.644 -0.2219  0.6123 -1.1642
   36POPC    HB 4797   5.844   4.521  10.549  2.1956 -0.2195 -2.5201
   36POPC    C2 4798   5.806   4.709  10.435  0.1806 -0.4169 -0.7700
   36POPC    HS 4799   5.699   4.689  10.413 -0.0910 -0.8134  0.7907
   36POPC   O21 4800   5.892   4.668  10.321  0.4689 -0.4096 -0.2634
   36POPC   C21 4801   5.889   4.544  10.271  0.6498  0.1021 -0.2543
   36POPC   O22 4802   5.802   4.458  10.301 -0.9176 -0.0774  0.0968
   36POPC   C22 4803   6.010   4.527  10.173 -0.0390  0.1024  0.0535
   36POPC   H2R 4804   6.085   4.473  10.235 -0.1550  2.2754  2.1923
   36POPC   H2S 4805   6.045   4.622  10.129 -0.2243 -0.2443 -0.8828
   36POPC    C3 4806   5.808   4.865  10.456  0.5730 -0.4473  1.1733
   36POPC    HX 4807   5.910   4.906  10.476 -0.1270  1.8890  0.2904
   36POPC    HY 4808   5.755   4.876  10.553  3.2716  0.7278  2.6202
   36POPC   O31 4809   5.740   4.937  10.347  0.1062 -0.0280  0.0809
   36POPC   C31 4810   5.824   4.969  10.247  0.5242 -0.1452  0.5102
   36POPC   O32 4811   5.941   4.951  10.236  0.4045  0.1532 -0.6335
   36POPC   C32 4812   5.737   5.040  10.138 -0.5964  0.0678 -0.0216
   36POPC   H2X 4813   5.764   5.148  10.147  2.0105 -0.4167 -1.2252
   36POPC   H2Y 4814   5.629   5.027  10.161 -0.5289  0.7168  0.7069
   36POPC   C23 4815   5.956   4.447  10.050  0.5609 -0.3957 -0.4656
   36POPC   H3R 4816   5.899   4.362  10.092  0.9072  0.0499  0.9532
   36POPC   H3S 4817   6.044   4.394  10.007  0.9431 -0.4900  0.4050
   36POPC   C24 4818   5.897   4.528   9.931  0.4879  0.6824 -1.1283
   36POPC   H4R 4819   5.982   4.594   9.904  1.0455  0.0321 -1.0022
   36POPC   H4S 4820   5.801   4.575   9.959  0.1506  0.0220 -1.1667
   36POPC   C25 4821   5.848   4.432   9.816 -0.5919 -0.5859  0.0589
   36POPC   H5R 4822   5.749   4.393   9.849 -0.8877 -0.3051 -0.4616
   36POPC   H5S 4823   5.917   4.346   9.804  0.9872  0.6692 -0.1743
   36POPC   C26 4824   5.841   4.508   9.684 -0.1147 -0.3769  0.6363
   36POPC   H6R 4825   5.784   4.604   9.694  0.3689 -0.0778  0.5513
   36POPC   H6S 4826   5.779   4.447   9.615 -0.2258 -0.4374  0.7880
   36POPC   C27 4827   5.977   4.535   9.607 -0.4023  0.2798  0.3957
   36POPC   H7R 4828   6.043   4.593   9.673  0.3925  1.6852 -1.5434
   36POPC   H7S 4829   5.964   4.603   9.520 -0.3456 -1.2490 -0.8639
   36POPC   C28 4830   6.050   4.406   9.568 -0.0616 -0.7262  1.0362
   36POPC   H8R 4831   5.969   4.361   9.506  2.4020 -2.8015 -0.8756
   36POPC   H8S 4832   6.076   4.339   9.653  2.1950 -2.3271 -0.7767
   36POPC   C29 4833   6.178   4.416   9.492  0.1782 -0.4050 -0.2869
   36POPC   H91 4834   6.259   4.459   9.552  1.5153 -2.7508 -0.2840
   36POPC  C210 4835   6.198   4.376   9.363 -0.1870  0.0907  0.2028
   36POPC  H101 4836   6.299   4.386   9.320  0.8046  0.5271  2.4552
   36POPC  C211 4837   6.084   4.326   9.269  0.0850 -0.1001 -0.0403
   36POPC  H11R 4838   6.015   4.410   9.246 -1.5437 -0.7386  2.2369
   36POPC  H11S 4839   6.033   4.241   9.318 -3.5346  0.6976 -2.0500
   36POPC  C212 4840   6.145   4.275   9.138  0.1741  0.3018 -0.3068
   36POPC  H12R 4841   6.204   4.184   9.161 -1.9072 -1.2535 -0.8399
   36POPC  H12S 4842   6.215   4.350   9.094  0.9613 -1.0176 -1.3749
   36POPC  C213 4843   6.048   4.227   9.027  0.5443 -0.8677 -0.5395
   36POPC  H13R 4844   5.979   4.298   8.977  0.0461  0.0372  1.3546
   36POPC  H13S 4845   5.973   4.172   9.087 -0.8726  2.1772  0.7126
   36POPC  C214 4846   6.124   4.158   8.916  0.2578  0.4078  0.2365
   36POPC  H14R 4847   6.175   4.069   8.960 -3.0012 -0.4599  2.6992
   36POPC  H14S 4848   6.213   4.215   8.881  0.1335  0.4475 -0.0174
   36POPC  C215 4849   6.036   4.109   8.796 -0.3371  0.2262  0.7356
   36POPC  H15R 4850   6.106   4.074   8.717  0.5505  3.5265 -0.0949
   36POPC  H15S 4851   5.982   4.193   8.746  0.7227  1.0307  0.8975
   36POPC  C216 4852   5.934   3.999   8.823 -0.2290  0.4012 -0.0294
   36POPC  H16R 4853   5.867   4.024   8.908 -1.6058 -0.4019 -0.8418
   36POPC  H16S 4854   5.992   3.907   8.849  1.5358  1.4966  0.0413
   36POPC  C217 4855   5.833   3.976   8.706  0.2357  0.2311  0.1627
   36POPC  H17R 4856   5.776   3.890   8.748 -0.6802  0.5782 -0.3493
   36POPC  H17S 4857   5.876   3.944   8.609  0.1230 -0.0164  0.1928
   36POPC  C218 4858   5.743   4.092   8.677 -0.2934  0.2084 -0.1946
   36POPC  H18R 4859   5.658   4.064   8.612 -1.4905  2.8796  0.1036
   36POPC  H18S 4860   5.804   4.168   8.624 -0.0982 -0.8355 -1.5316
   36POPC  H18T 4861   5.697   4.135   8.769  0.8495 -0.1535  0.5778
   36POPC   C33 4862   5.770   4.994   9.993  0.7877 -0.0761  0.2549
   36POPC   H3X 4863   5.748   4.887   9.980  1.7732 -0.1575 -0.9220
   36POPC   H3Y 4864   5.880   5.006   9.980  0.8646  1.3277  1.7999
   36POPC   C34 4865   5.703   5.082   9.877  0.1787  0.0728  0.1177
   36POPC   H4X 4866   5.722   5.189   9.901  0.1887 -0.1659  1.2431
   36POPC   H4Y 4867   5.592   5.081   9.878  0.1190  1.4016 -1.3949
   36POPC   C35 4868   5.762   5.060   9.737 -0.3843 -0.1163  0.2261
   36POPC   H5X 4869   5.749   4.951   9.726  2.7478 -0.8637  2.5363
   36POPC   H5Y 4870   5.870   5.082   9.729 -0.3275 -0.9201 -1.9296
   36POPC   C36 4871   5.681   5.147   9.635 -0.8161  0.5104 -0.0546
   36POPC   H6X 4872   5.665   5.253   9.664  1.0480  1.0091 -0.6997
   36POPC   H6Y 4873   5.578   5.109   9.620 -1.4756  1.4577  1.7631
   36POPC   C37 4874   5.751   5.154   9.500  0.9134  0.3461  0.1494
   36POPC   H7X 4875   5.760   5.055   9.450  1.6283  1.4660 -2.0872
   36POPC   H7Y 4876   5.854   5.192   9.519 -0.3669  3.1313  2.0937
   36POPC   C38 4877   5.680   5.252   9.407 -0.5448  0.0669  0.9643
   36POPC   H8X 4878   5.642   5.339   9.464  1.3243  0.7638  1.2190
   36POPC   H8Y 4879   5.585   5.210   9.368 -0.7391  1.9802 -0.7705
   36POPC   C39 4880   5.768   5.294   9.280  0.1174  0.0134 -0.1757
   36POPC   H9X 4881   5.861   5.346   9.312  0.6953 -0.7112 -0.6294
   36POPC   H9Y 4882   5.708   5.368   9.224  0.8842 -0.4111 -1.6208
   36POPC  C310 4883   5.796   5.179   9.189  0.7058 -0.3344 -0.3972
   36POPC  H10X 4884   5.698   5.130   9.174  0.4290  0.3193 -0.7657
   36POPC  H10Y 4885   5.864   5.096   9.219  4.1901  1.5437 -2.4259
   36POPC  C311 4886   5.850   5.227   9.053 -0.5549  0.2755 -0.2813
   36POPC  H11X 4887   5.953   5.259   9.079 -0.9473  1.2931  0.0696
   36POPC  H11Y 4888   5.790   5.315   9.022 -1.0130 -0.3234 -1.1452
   36POPC  C312 4889   5.844   5.124   8.945 -0.3932 -0.6636  0.1679
   36POPC  H12X 4890   5.736   5.106   8.926  0.0910 -2.0038 -1.4750
   36POPC  H12Y 4891   5.872   5.026   8.990 -0.0199  0.2989  2.1778
   36POPC  C313 4892   5.916   5.157   8.821 -0.0532 -0.1800  0.2950
   36POPC  H13X 4893   5.898   5.082   8.741  0.6945  1.9121 -1.9707
   36POPC  H13Y 4894   6.026   5.153   8.837 -0.3696  1.1436  3.5135
   36POPC  C314 4895   5.868   5.285   8.743  0.0109  0.5680  0.9707
   36POPC  H14X 4896   5.899   5.373   8.803  0.7517  0.1380  1.2297
   36POPC  H14Y 4897   5.758   5.281   8.724  0.3303  1.1361 -1.2891
   36POPC  C315 4898   5.928   5.290   8.597  0.7797 -0.1574  0.1728
   36POPC  H15X 4899   5.881   5.198   8.555  1.4183 -1.5493  2.3090
   36POPC  H15Y 4900   6.038   5.272   8.593  1.3069  2.8427 -2.8097
   36POPC  C316 4901   5.889   5.399   8.491 -0.2809 -0.1406  0.1873
   36POPC  H16X 4902   5.786   5.437   8.508 -0.0674  0.4499  0.1993
   36POPC  H16Y 4903   5.911   5.358   8.391  0.3481 -1.2237  0.7578
   36POPC  H16Z 4904   5.961   5.483   8.502 -0.5470  0.0711  0.3286
   37POPC     N 4905   3.695   0.874   5.992  0.2952  0.0420  0.0457
   37POPC   C12 4906   3.823   0.888   6.071 -0.1043 -0.0537  0.3880
   37POPC  H12A 4907   3.893   0.920   5.995 -0.3419 -0.7192 -0.1203
   37POPC  H12B 4908   3.855   0.790   6.102 -1.0798 -0.4532  0.1518
   37POPC   C13 4909   3.712   0.784   5.874 -0.5005  0.2460 -0.3518
   37POPC  H13A 4910   3.621   0.775   5.817 -0.3373 -1.9707 -0.3800
   37POPC  H13B 4911   3.776   0.822   5.796 -3.5729  0.5791 -2.9328
   37POPC  H13C 4912   3.733   0.679   5.892 -2.5677 -0.2261 -0.3951
   37POPC   C14 4913   3.586   0.808   6.077  0.1306  0.0480  0.8503
   37POPC  H14A 4914   3.490   0.811   6.027  1.5902  2.1926 -2.1846
   37POPC  H14B 4915   3.614   0.705   6.090  0.1580  0.2464  2.5157
   37POPC  H14C 4916   3.575   0.854   6.174 -0.1139 -0.7108  1.1891
   37POPC   C15 4917   3.646   1.014   5.943  0.4420  0.2049  0.1902
   37POPC  H15A 4918   3.608   1.070   6.027 -0.2883 -0.5756  0.3879
   37POPC  H15B 4919   3.559   1.001   5.880 -1.3233  0.6249  2.4373
   37POPC  H15C 4920   3.720   1.075   5.892 -1.5933  3.0774  0.4245
   37POPC   C11 4921   3.815   0.986   6.188  0.1759 -0.2409  0.2745
   37POPC  H11A 4922   3.769   1.084   6.165 -0.2162 -0.6374 -0.6583
   37POPC  H11B 4923   3.919   0.991   6.227 -0.0645 -1.6233  1.1712
   37POPC     P 4924   3.763   0.819   6.394 -0.1489  0.1427  0.0267
   37POPC   O13 4925   3.852   0.716   6.327 -0.2673 -0.2661 -0.3527
   37POPC   O14 4926   3.639   0.772   6.456  0.3790  0.2630 -0.0840
   37POPC   O12 4927   3.729   0.931   6.292 -0.7025  0.2559 -0.1056
   37POPC   O11 4928   3.847   0.899   6.505  0.0995  0.6264  0.0370
   37POPC    C1 4929   3.788   1.009   6.585 -0.2861  0.0686  0.2296
   37POPC    HA 4930   3.795   0.981   6.693  2.7303  1.0107  0.3659
   37POPC    HB 4931   3.682   1.024   6.554  0.4469  1.8626 -1.6495
   37POPC    C2 4932   3.876   1.135   6.574  0.0982  0.2818 -0.8553
   37POPC    HS 4933   3.882   1.182   6.474  0.7967 -0.9730 -1.4232
   37POPC   O21 4934   4.011   1.103   6.617 -1.1087 -0.8384 -0.0350
   37POPC   C21 4935   4.105   1.193   6.600 -0.1457 -0.1680 -0.0584
   37POPC   O22 4936   4.081   1.300   6.541 -0.0385 -0.2676  0.2358
   37POPC   C22 4937   4.241   1.153   6.650  0.5893  0.2633 -0.4060
   37POPC   H2R 4938   4.300   1.247   6.647  0.6688  0.2082 -0.5855
   37POPC   H2S 4939   4.284   1.081   6.576 -0.2991  0.0390 -0.7221
   37POPC    C3 4940   3.814   1.231   6.679 -0.0000 -0.4586 -0.4472
   37POPC    HX 4941   3.709   1.248   6.647 -0.8075 -0.4093  2.0576
   37POPC    HY 4942   3.866   1.329   6.668 -0.3465 -0.4024 -1.7586
   37POPC   O31 4943   3.817   1.182   6.816 -0.4582  0.4083  0.3026
   37POPC   C31 4944   3.779   1.265   6.912 -0.3072 -0.6777  0.0657
   37POPC   O32 4945   3.746   1.382   6.896  0.0758  1.0389 -0.2070
   37POPC   C32 4946   3.776   1.197   7.047 -0.3311  0.1436  0.2266
   37POPC   H2X 4947   3.876   1.157   7.076 -2.3755 -2.9557  3.9756
   37POPC   H2Y 4948   3.697   1.119   7.039 -0.4163  0.2603 -0.0745
   37POPC   C23 4949   4.228   1.083   6.786 -0.1211  0.4333  0.5289
   37POPC   H3R 4950   4.323   1.025   6.791 -0.4056 -0.2476 -1.2819
   37POPC   H3S 4951   4.153   1.002   6.782  1.3692 -0.9559 -0.6398
   37POPC   C24 4952   4.210   1.182   6.897  0.1141 -0.3865 -0.2097
   37POPC   H4R 4953   4.106   1.221   6.892  0.0773 -0.1224  1.6562
   37POPC   H4S 4954   4.288   1.260   6.883  1.3146 -1.5398 -0.1404
   37POPC   C25 4955   4.236   1.121   7.029 -0.8427  0.1765  0.0556
   37POPC   H5R 4956   4.345   1.100   7.040 -1.2131 -2.9033 -1.2298
   37POPC   H5S 4957   4.178   1.027   7.036 -0.9181  0.1704 -0.5936
   37POPC   C26 4958   4.193   1.215   7.147  0.2512  0.1851  0.6835
   37POPC   H6R 4959   4.088   1.245   7.127  0.0865 -0.7591  0.0912
   37POPC   H6S 4960   4.261   1.303   7.141 -0.7459  0.9055 -0.8077
   37POPC   C27 4961   4.200   1.134   7.273  0.1449  0.0581  0.6980
   37POPC   H7R 4962   4.309   1.116   7.282  0.0737 -0.1036  1.2876
   37POPC   H7S 4963   4.147   1.038   7.256 -0.3532  0.3176  0.7694
   37POPC   C28 4964   4.166   1.215   7.392  1.2290  0.2356 -0.5657
   37POPC   H8R 4965   4.065   1.259   7.379  0.4906 -1.4412 -0.7345
   37POPC   H8S 4966   4.233   1.304   7.391 -0.5416  1.6072 -0.4702
   37POPC   C29 4967   4.169   1.129   7.518  0.7123 -0.9143 -0.0015
   37POPC   H91 4968   4.071   1.081   7.533 -1.5899  2.5314 -2.4651
   37POPC  C210 4969   4.267   1.123   7.612  0.2846 -0.1447 -0.3052
   37POPC  H101 4970   4.259   1.061   7.703  1.8523 -0.2611 -0.2216
   37POPC  C211 4971   4.390   1.205   7.615 -0.2693 -0.0269 -0.2648
   37POPC  H11R 4972   4.400   1.273   7.527 -1.7139  0.5862  0.0091
   37POPC  H11S 4973   4.479   1.139   7.622 -0.5179 -0.3797 -0.4328
   37POPC  C212 4974   4.397   1.290   7.743  0.0038 -0.3424 -0.2195
   37POPC  H12R 4975   4.490   1.350   7.747 -1.9305  2.8769 -0.2184
   37POPC  H12S 4976   4.390   1.218   7.827  0.2460 -1.4080 -1.0945
   37POPC  C213 4977   4.282   1.384   7.775 -0.7099  0.1606  0.2133
   37POPC  H13R 4978   4.307   1.451   7.860 -0.9182 -0.0652  0.4518
   37POPC  H13S 4979   4.193   1.325   7.806 -1.1663  0.5445 -0.3462
   37POPC  C214 4980   4.271   1.487   7.662  0.2532 -0.8497  1.0846
   37POPC  H14R 4981   4.222   1.436   7.576 -1.2353 -0.3454  1.5888
   37POPC  H14S 4982   4.371   1.513   7.622 -0.7424  0.8526 -0.4749
   37POPC  C215 4983   4.202   1.621   7.696  0.6929 -0.5008  0.3288
   37POPC  H15R 4984   4.224   1.696   7.618  0.7942  0.1486  0.9692
   37POPC  H15S 4985   4.252   1.654   7.790 -0.9221 -1.1260  1.4407
   37POPC  C216 4986   4.046   1.612   7.739  0.0794  0.6856 -0.4022
   37POPC  H16R 4987   4.032   1.543   7.825 -0.9995  0.2202 -0.9320
   37POPC  H16S 4988   3.976   1.583   7.658 -0.6373  0.0213  0.4287
   37POPC  C217 4989   3.996   1.744   7.793 -0.2601  0.1340 -0.5053
   37POPC  H17R 4990   4.064   1.774   7.877 -0.5212 -0.0986 -0.2089
   37POPC  H17S 4991   3.895   1.736   7.837  0.4764 -0.0440  1.2555
   37POPC  C218 4992   3.982   1.854   7.684  0.7078  0.1362  0.1252
   37POPC  H18R 4993   3.941   1.800   7.596  0.7826 -1.6667  1.1304
   37POPC  H18S 4994   4.086   1.885   7.661  1.5820  0.6121  4.0151
   37POPC  H18T 4995   3.910   1.935   7.709  0.7826  0.6557 -1.2738
   37POPC   C33 4996   3.740   1.292   7.169  0.2963 -0.3963 -0.3236
   37POPC   H3X 4997   3.639   1.333   7.150  1.5582  2.9014 -0.6108
   37POPC   H3Y 4998   3.808   1.381   7.171  2.1005 -1.6979 -1.3908
   37POPC   C34 4999   3.734   1.223   7.306 -0.0313  0.1834 -0.6761
   37POPC   H4X 5000   3.839   1.191   7.324  0.6114  1.6743 -1.5917
   37POPC   H4Y 5001   3.660   1.140   7.310 -0.7185  0.8123  0.4056
   37POPC   C35 5002   3.694   1.323   7.420  0.1414 -0.2996 -0.1481
   37POPC   H5X 5003   3.588   1.354   7.415 -0.5150 -2.1498  1.3796
   37POPC   H5Y 5004   3.754   1.411   7.385  0.0059 -0.9544 -2.1463
   37POPC   C36 5005   3.726   1.277   7.561  0.0719  0.0304  0.7581
   37POPC   H6X 5006   3.837   1.271   7.560  0.1950  1.8091 -0.0252
   37POPC   H6Y 5007   3.684   1.177   7.581  0.2658 -0.3597 -0.7058
   37POPC   C37 5008   3.669   1.371   7.661 -0.2169 -0.6950  0.2124
   37POPC   H7X 5009   3.560   1.387   7.652 -0.1585 -0.4951 -0.1869
   37POPC   H7Y 5010   3.699   1.475   7.635 -0.6471 -0.0625  2.1216
   37POPC   C38 5011   3.712   1.328   7.801 -0.3840  0.0786  0.4265
   37POPC   H8X 5012   3.820   1.303   7.803 -0.0884  1.0738 -1.3735
   37POPC   H8Y 5013   3.658   1.234   7.826  1.2083 -0.5151  1.7937
   37POPC   C39 5014   3.677   1.437   7.915 -0.1777  0.0054 -0.4033
   37POPC   H9X 5015   3.571   1.469   7.912 -0.1985 -0.0324 -4.3299
   37POPC   H9Y 5016   3.737   1.529   7.903  0.2495  0.0665  1.7801
   37POPC  C310 5017   3.723   1.387   8.052 -0.8958  0.8136 -0.5360
   37POPC  H10X 5018   3.813   1.324   8.039  0.4874  2.7231 -0.5755
   37POPC  H10Y 5019   3.650   1.311   8.087  0.6384 -0.1898  0.6459
   37POPC  C311 5020   3.734   1.493   8.164 -0.2753  0.6411 -0.1183
   37POPC  H11X 5021   3.812   1.561   8.122  0.6261 -0.4779 -0.2944
   37POPC  H11Y 5022   3.764   1.437   8.255 -3.2462 -0.3184  0.3739
   37POPC  C312 5023   3.603   1.572   8.192  0.5937  0.3159 -0.1814
   37POPC  H12X 5024   3.529   1.503   8.237  0.3691  1.2275  0.9012
   37POPC  H12Y 5025   3.562   1.602   8.093 -0.0257 -0.3206 -0.1165
   37POPC  C313 5026   3.630   1.687   8.280  0.1406 -0.1558  0.2253
   37POPC  H13X 5027   3.537   1.747   8.282 -1.1453 -2.0011 -0.7364
   37POPC  H13Y 5028   3.704   1.749   8.226  1.2067 -0.6175  1.1020
   37POPC  C314 5029   3.662   1.639   8.419 -0.5409 -0.4981 -0.1596
   37POPC  H14X 5030   3.759   1.584   8.416  1.0301  2.1560 -1.6350
   37POPC  H14Y 5031   3.586   1.577   8.471 -0.2670  1.1519  2.3500
   37POPC  C315 5032   3.695   1.741   8.530 -0.0174  0.4254  0.0143
   37POPC  H15X 5033   3.595   1.781   8.556 -0.1668  0.0076  0.0779
   37POPC  H15Y 5034   3.769   1.814   8.490 -0.0917  0.4045 -0.1614
   37POPC  C316 5035   3.757   1.668   8.648  0.3173  0.3708  0.4527
   37POPC  H16X 5036   3.754   1.725   8.744 -2.7724  1.9335 -0.4423
   37POPC  H16Y 5037   3.855   1.624   8.620 -0.6563 -0.4467 -1.8385
   37POPC  H16Z 5038   3.705   1.575   8.678  1.9884 -0.9260 -0.5069
   38POPC     N 5039   4.594   6.500   6.225 -0.3115 -0.7978 -0.1379
   38POPC   C12 5040   4.489   6.549   6.315 -0.5877 -0.7966 -0.0560
   38POPC  H12A 5041   4.394   6.545   6.264 -1.5903  1.6163  1.4491
   38POPC  H12B 5042   4.506   6.654   6.335 -0.5201 -0.8245  0.0319
   38POPC   C13 5043   4.604   6.589   6.096 -0.2003 -0.0145  0.0286
   38POPC  H13A 5044   4.616   6.690   6.132  0.1531  0.0540 -0.2669
   38POPC  H13B 5045   4.679   6.553   6.027  0.0015 -1.0393  0.7450
   38POPC  H13C 5046   4.511   6.586   6.042 -0.4044 -1.0078  0.3988
   38POPC   C14 5047   4.731   6.494   6.285 -0.8153  0.1872  0.0425
   38POPC  H14A 5048   4.751   6.569   6.360  1.7804 -0.4725  0.1207
   38POPC  H14B 5049   4.745   6.397   6.331 -2.2660  0.5531  1.3369
   38POPC  H14C 5050   4.808   6.494   6.210 -2.2484  2.3700 -1.5587
   38POPC   C15 5051   4.556   6.356   6.180 -1.1320 -0.5365 -0.8474
   38POPC  H15A 5052   4.622   6.319   6.102 -1.4341 -0.8516 -0.9602
   38POPC  H15B 5053   4.452   6.352   6.150 -1.6955 -1.7356  1.0781
   38POPC  H15C 5054   4.563   6.283   6.260 -1.8869 -1.1765 -1.3460
   38POPC   C11 5055   4.467   6.477   6.449  0.0389  0.4652 -0.1453
   38POPC  H11A 5056   4.394   6.531   6.513  1.4329  3.2020 -0.7591
   38POPC  H11B 5057   4.563   6.475   6.504  1.1949  0.3484 -2.0638
   38POPC     P 5058   4.270   6.310   6.411  0.0258 -0.0281  0.2366
   38POPC   O13 5059   4.270   6.179   6.348  0.5259  0.6065 -0.4037
   38POPC   O14 5060   4.207   6.417   6.333  0.3585 -0.3631 -0.1034
   38POPC   O12 5061   4.423   6.342   6.441  0.6758 -0.1257 -0.3558
   38POPC   O11 5062   4.201   6.298   6.557 -0.2886 -0.0548 -0.3597
   38POPC    C1 5063   4.279   6.266   6.674 -0.2243 -0.3522  0.0034
   38POPC    HA 5064   4.246   6.316   6.768 -0.0938 -1.9605  0.9549
   38POPC    HB 5065   4.385   6.293   6.659 -0.2125 -0.5478 -0.2594
   38POPC    C2 5066   4.283   6.115   6.702  0.7393  0.4175 -0.3206
   38POPC    HS 5067   4.310   6.059   6.610 -3.1244 -2.6219  0.0960
   38POPC   O21 5068   4.152   6.090   6.758 -0.2878  0.1148  0.0530
   38POPC   C21 5069   4.110   5.969   6.734 -0.1199  0.0360 -0.6846
   38POPC   O22 5070   4.162   5.891   6.653  0.0151 -0.2820 -0.5367
   38POPC   C22 5071   3.992   5.934   6.821 -0.6733  1.2130 -0.1164
   38POPC   H2R 5072   3.903   5.977   6.771 -0.4195 -0.3924 -2.1183
   38POPC   H2S 5073   4.011   5.968   6.925  0.1216 -0.5375  0.3477
   38POPC    C3 5074   4.385   6.097   6.813  0.0780  0.0078  0.0485
   38POPC    HX 5075   4.490   6.121   6.784 -0.2318  2.8811  0.9254
   38POPC    HY 5076   4.382   5.989   6.839  0.4191  0.0540  0.2908
   38POPC   O31 5077   4.361   6.174   6.934  0.1340 -0.4251 -0.1710
   38POPC   C31 5078   4.298   6.118   7.033  0.7761  0.7763 -0.1352
   38POPC   O32 5079   4.239   6.012   7.031  0.3393  0.0863  0.0068
   38POPC   C32 5080   4.301   6.209   7.160 -0.4262  0.4892 -0.3526
   38POPC   H2X 5081   4.195   6.244   7.164 -1.1263 -1.2465 -2.0101
   38POPC   H2Y 5082   4.364   6.300   7.161  0.2222  0.1665  3.2753
   38POPC   C23 5083   3.971   5.778   6.820  0.4956 -0.0249  0.4806
   38POPC   H3R 5084   3.994   5.725   6.725  0.3726 -2.8583  1.9465
   38POPC   H3S 5085   3.863   5.767   6.842  0.9383 -0.9974  2.4068
   38POPC   C24 5086   4.046   5.704   6.936 -0.2381  0.1038 -0.6728
   38POPC   H4R 5087   4.005   5.738   7.033  3.6216 -2.3467  2.1202
   38POPC   H4S 5088   4.155   5.724   6.928 -0.1491 -0.0277  0.1687
   38POPC   C25 5089   4.040   5.546   6.927 -0.5155  0.6416 -0.1250
   38POPC   H5R 5090   4.112   5.519   7.007 -0.7506 -0.4941 -0.2739
   38POPC   H5S 5091   4.071   5.515   6.825  0.8917 -0.4493  0.5855
   38POPC   C26 5092   3.903   5.485   6.966 -0.0276 -0.1963 -0.1459
   38POPC   H6R 5093   3.910   5.376   6.947  0.0555 -0.1553 -0.3544
   38POPC   H6S 5094   3.829   5.529   6.896 -1.4206 -2.2121 -0.0195
   38POPC   C27 5095   3.874   5.531   7.115 -0.6309 -0.5755 -0.3586
   38POPC   H7R 5096   3.825   5.631   7.115 -0.1834 -0.3386 -1.2590
   38POPC   H7S 5097   3.968   5.538   7.175 -1.3279  0.6412  0.6393
   38POPC   C28 5098   3.803   5.409   7.204 -0.0223  0.2084 -0.2368
   38POPC   H8R 5099   3.887   5.336   7.214  0.9000  1.0829 -1.3057
   38POPC   H8S 5100   3.724   5.360   7.143 -1.6680  3.6826 -1.1263
   38POPC   C29 5101   3.746   5.457   7.336  0.6333 -0.0622  0.2371
   38POPC   H91 5102   3.705   5.558   7.345  1.5480  0.3437 -0.0304
   38POPC  C210 5103   3.754   5.386   7.452  0.4125  0.8599 -0.3916
   38POPC  H101 5104   3.690   5.418   7.536 -1.4079  1.3650 -1.8992
   38POPC  C211 5105   3.823   5.251   7.484  0.1559  0.2220 -0.0109
   38POPC  H11R 5106   3.875   5.218   7.391 -0.8095  0.2550 -0.5738
   38POPC  H11S 5107   3.752   5.173   7.516 -1.4330  1.1104 -1.1981
   38POPC  C212 5108   3.927   5.266   7.596  0.7515  0.7779 -0.0734
   38POPC  H12R 5109   4.003   5.347   7.584  2.0176 -0.5407 -1.4530
   38POPC  H12S 5110   3.985   5.172   7.612  0.9595  1.0760  1.0159
   38POPC  C213 5111   3.858   5.289   7.733 -0.2465  0.3007  0.2027
   38POPC  H13R 5112   3.776   5.215   7.738  0.3140 -0.3096  0.5018
   38POPC  H13S 5113   3.807   5.388   7.738 -0.7670  0.0063  0.8255
   38POPC  C214 5114   3.951   5.269   7.845 -0.3505  0.7866 -0.3851
   38POPC  H14R 5115   3.893   5.299   7.935 -2.6827 -2.2063 -0.7449
   38POPC  H14S 5116   4.047   5.324   7.840 -0.2887  0.7290  0.0592
   38POPC  C215 5117   3.986   5.119   7.870  0.2342  0.1067  0.1075
   38POPC  H15R 5118   4.031   5.088   7.773 -2.9051  1.0916 -1.8413
   38POPC  H15S 5119   3.886   5.070   7.871  0.6712 -0.8157 -0.4389
   38POPC  C216 5120   4.073   5.083   7.988 -0.1200 -0.5843  0.3457
   38POPC  H16R 5121   4.122   4.987   7.961  2.6936  1.1446 -1.1671
   38POPC  H16S 5122   4.000   5.067   8.071 -0.0052 -0.5886  0.4457
   38POPC  C217 5123   4.183   5.185   8.035  0.6572 -0.0786 -0.3731
   38POPC  H17R 5124   4.245   5.220   7.949  2.3687  0.9347  1.1947
   38POPC  H17S 5125   4.251   5.127   8.101  0.2286 -0.7421 -0.5032
   38POPC  C218 5126   4.137   5.301   8.123  0.1312 -0.3174  0.3898
   38POPC  H18R 5127   4.218   5.368   8.157 -0.4995  0.2981  0.7016
   38POPC  H18S 5128   4.083   5.269   8.215  1.0159  0.1372  1.0772
   38POPC  H18T 5129   4.062   5.373   8.083 -0.9651 -0.8178  1.4733
   38POPC   C33 5130   4.334   6.128   7.291  0.1015  0.0532 -0.6188
   38POPC   H3X 5131   4.440   6.096   7.281  0.1012 -0.5160  0.9064
   38POPC   H3Y 5132   4.262   6.044   7.303  1.4300 -0.7738  2.5788
   38POPC   C34 5133   4.343   6.197   7.430  0.1374 -0.6810 -0.4128
   38POPC   H4X 5134   4.245   6.237   7.462  0.5186 -1.0445  1.3267
   38POPC   H4Y 5135   4.408   6.286   7.423 -1.2283  0.4984  1.1857
   38POPC   C35 5136   4.371   6.098   7.537 -0.8610 -0.5613 -0.1131
   38POPC   H5X 5137   4.463   6.044   7.507 -1.0717 -0.2977 -1.2847
   38POPC   H5Y 5138   4.297   6.015   7.542 -0.7301 -0.6824 -0.1863
   38POPC   C36 5139   4.381   6.165   7.672 -0.4847  0.2405  0.2963
   38POPC   H6X 5140   4.291   6.217   7.713  0.1531  2.6376 -1.1696
   38POPC   H6Y 5141   4.466   6.234   7.692 -0.5053  0.3852 -0.1044
   38POPC   C37 5142   4.398   6.049   7.783 -0.0975  0.0883  0.2543
   38POPC   H7X 5143   4.497   6.001   7.764  1.4727  2.5735  1.6666
   38POPC   H7Y 5144   4.313   5.978   7.776 -0.0852  0.1803 -1.1553
   38POPC   C38 5145   4.399   6.121   7.917 -0.2416 -0.0754 -0.2896
   38POPC   H8X 5146   4.307   6.181   7.907 -1.6410 -2.3872 -2.7471
   38POPC   H8Y 5147   4.481   6.195   7.925 -1.7672  1.6933 -0.4004
   38POPC   C39 5148   4.392   6.023   8.032  0.3573  0.1951 -0.8866
   38POPC   H9X 5149   4.484   5.961   8.037  0.3830  0.0206 -2.7279
   38POPC   H9Y 5150   4.312   5.951   8.003  1.4182 -0.9922 -0.9589
   38POPC  C310 5151   4.361   6.081   8.168 -0.0752 -0.6180 -0.1321
   38POPC  H10X 5152   4.253   6.105   8.175  0.5572  2.3897  0.3534
   38POPC  H10Y 5153   4.422   6.172   8.183 -1.4542  0.1460  1.0128
   38POPC  C311 5154   4.391   5.976   8.282 -0.2839 -1.0134  0.7812
   38POPC  H11X 5155   4.493   5.936   8.268 -0.4729 -1.1695 -0.2476
   38POPC  H11Y 5156   4.319   5.891   8.279 -2.7063  0.9194  1.1753
   38POPC  C312 5157   4.377   6.033   8.421  0.3130 -0.0308 -0.9890
   38POPC  H12X 5158   4.287   6.097   8.437  0.7893  0.6471 -0.9585
   38POPC  H12Y 5159   4.476   6.078   8.446  0.4202 -1.1161  0.6655
   38POPC  C313 5160   4.384   5.914   8.530  0.0151  0.0625 -0.1004
   38POPC  H13X 5161   4.479   5.860   8.514 -0.1717 -0.3438  0.1371
   38POPC  H13Y 5162   4.299   5.847   8.505  0.0024 -0.1058  0.3766
   38POPC  C314 5163   4.368   5.961   8.679  0.2267  0.7093  0.0507
   38POPC  H14X 5164   4.279   6.027   8.678 -0.3468  0.0682  2.6041
   38POPC  H14Y 5165   4.453   6.021   8.717  1.0689 -0.1284 -0.4842
   38POPC  C315 5166   4.333   5.850   8.774  0.1284  0.2078 -0.0552
   38POPC  H15X 5167   4.416   5.780   8.799 -0.0197  0.2206  0.4926
   38POPC  H15Y 5168   4.249   5.795   8.728 -0.7755  1.7297 -0.2871
   38POPC  C316 5169   4.265   5.906   8.906  0.5639 -0.5651  0.3043
   38POPC  H16X 5170   4.246   5.828   8.982 -1.3786  0.1377  0.5866
   38POPC  H16Y 5171   4.170   5.958   8.882 -1.3936 -4.6790 -2.0969
   38POPC  H16Z 5172   4.333   5.981   8.950 -0.2543  1.3192 -1.4767
   39POPC     N 5173   2.261   1.333   5.678  0.7119 -0.4496  0.6073
   39POPC   C12 5174   2.214   1.441   5.773  0.5573 -0.1906 -0.3290
   39POPC  H12A 5175   2.123   1.406   5.821  1.4728 -1.0253  0.8752
   39POPC  H12B 5176   2.186   1.535   5.729  0.7613  0.2749  0.5087
   39POPC   C13 5177   2.294   1.206   5.735  0.3904  0.0460 -0.0924
   39POPC  H13A 5178   2.360   1.225   5.818 -0.2165  2.3739 -0.0666
   39POPC  H13B 5179   2.207   1.169   5.787  0.7776 -0.9578 -0.1347
   39POPC  H13C 5180   2.334   1.138   5.661 -1.8100  1.2136 -2.5539
   39POPC   C14 5181   2.136   1.323   5.592 -0.1124  0.1112 -0.2908
   39POPC  H14A 5182   2.060   1.278   5.653  0.9232 -1.6037 -0.2125
   39POPC  H14B 5183   2.099   1.420   5.560 -0.8273 -0.2582 -0.5986
   39POPC  H14C 5184   2.150   1.266   5.501 -0.6697  0.3555 -0.5345
   39POPC   C15 5185   2.371   1.388   5.593  0.1296 -0.0362  0.5844
   39POPC  H15A 5186   2.453   1.431   5.650  1.2718 -1.9726  0.4845
   39POPC  H15B 5187   2.320   1.470   5.544  0.9961 -0.7789 -1.6555
   39POPC  H15C 5188   2.418   1.324   5.520 -3.3900  0.2369 -2.1711
   39POPC   C11 5189   2.303   1.467   5.902  0.4396 -0.2476 -0.4886
   39POPC  H11A 5190   2.251   1.549   5.957 -0.1223 -1.4468  0.8439
   39POPC  H11B 5191   2.406   1.494   5.872  1.1418 -1.6089  0.5726
   39POPC     P 5192   2.424   1.308   6.077  0.0788  0.2278 -0.3720
   39POPC   O13 5193   2.532   1.400   6.067  0.4226 -0.3966 -0.2849
   39POPC   O14 5194   2.454   1.175   6.022 -0.2640  0.3175 -0.1769
   39POPC   O12 5195   2.302   1.361   5.997  0.0994 -0.2571  0.0796
   39POPC   O11 5196   2.362   1.299   6.226 -0.1788 -0.1390  0.3384
   39POPC    C1 5197   2.262   1.387   6.268 -0.3766  0.3009  0.8696
   39POPC    HA 5198   2.166   1.331   6.277 -1.1745  1.3856 -0.4718
   39POPC    HB 5199   2.234   1.465   6.194  1.4644  0.8492  0.6925
   39POPC    C2 5200   2.293   1.462   6.405 -0.6627  0.9055 -0.0470
   39POPC    HS 5201   2.377   1.533   6.394  0.2451 -0.5332 -4.2631
   39POPC   O21 5202   2.328   1.358   6.502  0.3135  0.7434  0.5240
   39POPC   C21 5203   2.448   1.368   6.560 -0.4808  0.6232 -0.0446
   39POPC   O22 5204   2.536   1.456   6.539  0.2112  0.6730  0.0680
   39POPC   C22 5205   2.462   1.266   6.663 -0.1160  0.8578 -0.5284
   39POPC   H2R 5206   2.443   1.165   6.621  0.2896  0.7001 -0.3316
   39POPC   H2S 5207   2.390   1.287   6.745 -0.2379 -0.4350 -0.2961
   39POPC    C3 5208   2.166   1.537   6.453 -0.1600 -0.3977 -0.1654
   39POPC    HX 5209   2.083   1.475   6.413  0.2712  0.1145 -1.9855
   39POPC    HY 5210   2.169   1.629   6.390  3.4545  0.1061  0.5314
   39POPC   O31 5211   2.156   1.553   6.599 -0.6640 -0.4466 -0.5658
   39POPC   C31 5212   2.232   1.650   6.648 -0.0608  0.3649  0.2205
   39POPC   O32 5213   2.304   1.722   6.580  0.3729  0.5799  1.1780
   39POPC   C32 5214   2.203   1.666   6.796  0.1505  0.4415 -0.1467
   39POPC   H2X 5215   2.105   1.719   6.793 -0.1565 -0.1396 -1.1072
   39POPC   H2Y 5216   2.200   1.565   6.843  0.2654 -1.2232 -3.4278
   39POPC   C23 5217   2.605   1.259   6.724 -0.3403 -0.3891  0.3864
   39POPC   H3R 5218   2.614   1.359   6.771 -1.7514  1.5772 -3.1060
   39POPC   H3S 5219   2.674   1.244   6.639 -1.8944 -1.1425 -0.8106
   39POPC   C24 5220   2.622   1.154   6.828 -0.0475  0.7290 -0.1250
   39POPC   H4R 5221   2.728   1.125   6.842  0.2400  0.3700 -2.6817
   39POPC   H4S 5222   2.561   1.068   6.794 -1.2387  0.8130  1.6509
   39POPC   C25 5223   2.565   1.191   6.965  0.1002 -0.3593 -0.4940
   39POPC   H5R 5224   2.507   1.101   6.993  2.9139 -1.9965  0.4482
   39POPC   H5S 5225   2.505   1.284   6.962 -0.0506 -0.3430  1.5696
   39POPC   C26 5226   2.674   1.204   7.072  0.2475  0.1398 -0.5108
   39POPC   H6R 5227   2.746   1.120   7.073  1.6949  1.3095 -1.1228
   39POPC   H6S 5228   2.637   1.225   7.174  0.0091 -0.5108 -0.4640
   39POPC   C27 5229   2.754   1.335   7.044 -0.8307 -0.0496  0.6159
   39POPC   H7R 5230   2.678   1.416   7.056 -0.2129  0.4922  0.9103
   39POPC   H7S 5231   2.805   1.328   6.946 -0.8328 -2.0261  0.7315
   39POPC   C28 5232   2.875   1.353   7.143 -0.5633 -0.2630  0.4698
   39POPC   H8R 5233   2.936   1.261   7.133 -0.7465 -0.2165 -1.2491
   39POPC   H8S 5234   2.827   1.344   7.243 -5.4292 -1.1069 -1.6231
   39POPC   C29 5235   2.952   1.480   7.108  0.1750  0.5846 -0.6011
   39POPC   H91 5236   3.000   1.481   7.009  0.2009  1.6183 -0.5839
   39POPC  C210 5237   2.962   1.593   7.187  0.3967  0.4473 -0.2296
   39POPC  H101 5238   3.025   1.678   7.156  1.8743 -0.8435 -0.8762
   39POPC  C211 5239   2.887   1.619   7.319 -0.0617  0.2888  0.3681
   39POPC  H11R 5240   2.796   1.555   7.325  0.3376 -0.2104  1.2748
   39POPC  H11S 5241   2.860   1.726   7.310  1.3820  0.6283 -0.1588
   39POPC  C212 5242   2.977   1.598   7.438 -0.1029  0.2099  0.1082
   39POPC  H12R 5243   3.081   1.632   7.419  0.5895 -1.7125  0.2656
   39POPC  H12S 5244   2.978   1.487   7.450 -1.7791  0.1919  0.4095
   39POPC  C213 5245   2.925   1.648   7.575 -0.5329 -0.2875 -0.2809
   39POPC  H13R 5246   2.923   1.757   7.556  2.4387 -0.1505 -0.2640
   39POPC  H13S 5247   3.000   1.618   7.650 -0.5393  1.7721  0.6090
   39POPC  C214 5248   2.792   1.589   7.627  0.2798  0.2461  1.0459
   39POPC  H14R 5249   2.784   1.481   7.602  0.0332  0.6907 -0.9989
   39POPC  H14S 5250   2.708   1.638   7.575 -0.2066 -0.8646  0.7579
   39POPC  C215 5251   2.778   1.609   7.781  0.2714  0.7966  0.4367
   39POPC  H15R 5252   2.671   1.582   7.796  0.3156  0.2922 -0.1005
   39POPC  H15S 5253   2.795   1.716   7.804  0.4920  0.4146  2.2068
   39POPC  C216 5254   2.867   1.517   7.871 -0.7383 -0.0203  0.1854
   39POPC  H16R 5255   2.972   1.531   7.838 -0.6094 -0.0594  0.5700
   39POPC  H16S 5256   2.849   1.407   7.867  1.8770 -0.4591 -2.3927
   39POPC  C217 5257   2.861   1.549   8.018 -0.3773 -0.1264 -0.1899
   39POPC  H17R 5258   2.920   1.470   8.069 -2.1211 -0.0020  2.1700
   39POPC  H17S 5259   2.762   1.537   8.066 -1.2171 -0.4875 -1.9404
   39POPC  C218 5260   2.945   1.676   8.063  0.2579  0.3982 -0.6550
   39POPC  H18R 5261   2.879   1.764   8.049 -1.1551 -0.5078 -0.0188
   39POPC  H18S 5262   3.046   1.688   8.020  0.5377  0.1648 -0.0809
   39POPC  H18T 5263   2.960   1.664   8.173  2.2542 -0.2574 -0.9531
   39POPC   C33 5264   2.304   1.758   6.869 -0.3003  0.5765 -0.0087
   39POPC   H3X 5265   2.258   1.767   6.970 -0.7852  0.1413 -0.1860
   39POPC   H3Y 5266   2.298   1.857   6.819 -2.5268  1.7924  2.3999
   39POPC   C34 5267   2.445   1.711   6.885 -0.5391  0.1989 -0.0521
   39POPC   H4X 5268   2.489   1.800   6.935  0.7004  0.0986 -0.9010
   39POPC   H4Y 5269   2.498   1.710   6.787 -1.1548  1.2209 -0.4073
   39POPC   C35 5270   2.478   1.594   6.966  0.1227  0.8678 -0.1340
   39POPC   H5X 5271   2.589   1.591   6.960  0.0527  0.1304 -1.5180
   39POPC   H5Y 5272   2.430   1.501   6.930  1.4298 -0.5037  1.4587
   39POPC   C36 5273   2.433   1.600   7.115 -0.2706  0.0966 -0.2681
   39POPC   H6X 5274   2.470   1.504   7.157 -0.6791 -0.2000 -0.5765
   39POPC   H6Y 5275   2.322   1.593   7.114 -0.3295  0.0032 -3.2654
   39POPC   C37 5276   2.478   1.723   7.192 -0.3026  0.0465 -0.2934
   39POPC   H7X 5277   2.434   1.820   7.160  1.2343  1.1229  0.7033
   39POPC   H7Y 5278   2.589   1.722   7.183 -0.1165  2.0195  1.2257
   39POPC   C38 5279   2.452   1.712   7.344  0.2916  0.7289  0.1746
   39POPC   H8X 5280   2.487   1.610   7.369  1.0032 -0.0309 -3.3687
   39POPC   H8Y 5281   2.341   1.716   7.354  0.3214 -0.6522  1.2258
   39POPC   C39 5282   2.508   1.830   7.417 -0.3145  0.4744 -0.1863
   39POPC   H9X 5283   2.477   1.928   7.375  2.3414  0.5963 -2.0572
   39POPC   H9Y 5284   2.619   1.838   7.414 -0.3317  1.5088  0.8637
   39POPC  C310 5285   2.468   1.820   7.569  0.3010  0.3555  0.6267
   39POPC  H10X 5286   2.488   1.715   7.601 -1.8439 -0.0962  0.6051
   39POPC  H10Y 5287   2.358   1.812   7.576  0.3524 -0.3895  0.6820
   39POPC  C311 5288   2.538   1.921   7.663 -0.8366  0.1955 -0.3320
   39POPC  H11X 5289   2.487   2.016   7.637 -1.5724  0.3120  1.4071
   39POPC  H11Y 5290   2.644   1.936   7.634  0.2050 -2.6066  1.5759
   39POPC  C312 5291   2.530   1.884   7.809  0.1479  0.0393  0.3498
   39POPC  H12X 5292   2.568   1.779   7.815 -0.8767 -0.2868  1.3085
   39POPC  H12Y 5293   2.421   1.873   7.827 -0.6592 -1.1096 -3.9854
   39POPC  C313 5294   2.619   1.970   7.900  0.7429  0.7453  0.4854
   39POPC  H13X 5295   2.597   2.078   7.884  0.9754  0.4367 -2.6904
   39POPC  H13Y 5296   2.725   1.946   7.875  1.1946  2.0135  1.0884
   39POPC  C314 5297   2.607   1.932   8.042  0.4476  0.1370 -0.7056
   39POPC  H14X 5298   2.679   2.000   8.093  2.5982 -2.5523  0.1314
   39POPC  H14Y 5299   2.634   1.827   8.068 -0.7135 -0.0966 -0.4124
   39POPC  C315 5300   2.472   1.964   8.097 -0.2665  0.4397 -1.2191
   39POPC  H15X 5301   2.402   1.891   8.052 -0.4404 -0.2822  0.1472
   39POPC  H15Y 5302   2.421   2.058   8.067 -2.3730  1.0837  3.4595
   39POPC  C316 5303   2.451   1.950   8.252 -0.6585  0.0929  0.3770
   39POPC  H16X 5304   2.503   1.858   8.285 -0.2094  0.6390  1.1975
   39POPC  H16Y 5305   2.345   1.932   8.281 -0.4824 -2.1549 -0.1680
   39POPC  H16Z 5306   2.491   2.037   8.308  1.4436 -0.4080 -0.2804
   40POPC     N 5307   6.461   5.567   5.901 -0.0993  0.0816  0.3830
   40POPC   C12 5308   6.525   5.506   6.020  0.7137  0.2488 -0.3195
   40POPC  H12A 5309   6.631   5.493   6.001  1.0148  0.0918  1.3471
   40POPC  H12B 5310   6.483   5.407   6.023 -0.4567  0.6980 -1.1441
   40POPC   C13 5311   6.314   5.603   5.928  0.1012  0.3656  0.0548
   40POPC  H13A 5312   6.267   5.509   5.955 -0.0843  0.6243  0.6479
   40POPC  H13B 5313   6.308   5.653   6.024  0.6563 -2.8993  1.9507
   40POPC  H13C 5314   6.266   5.643   5.840  2.0509  4.1271  0.5281
   40POPC   C14 5315   6.533   5.693   5.849  1.0902 -0.6713 -0.3814
   40POPC  H14A 5316   6.634   5.676   5.814  1.6286 -0.5539  1.0468
   40POPC  H14B 5317   6.461   5.755   5.798 -0.6185 -2.9391 -0.8729
   40POPC  H14C 5318   6.558   5.750   5.937 -0.6777 -2.4409  1.3676
   40POPC   C15 5319   6.462   5.468   5.782 -0.0568  0.5662 -0.7722
   40POPC  H15A 5320   6.421   5.371   5.805  1.6836  0.0140  0.1189
   40POPC  H15B 5321   6.564   5.445   5.756  0.6474  0.6032  1.6732
   40POPC  H15C 5322   6.407   5.508   5.698 -4.4028 -2.1395  0.4609
   40POPC   C11 5323   6.503   5.584   6.151 -0.8790 -0.4220 -0.3168
   40POPC  H11A 5324   6.492   5.692   6.129  1.5436 -0.2135 -0.7787
   40POPC  H11B 5325   6.592   5.581   6.217 -1.0646  0.6590 -0.0019
   40POPC     P 5326   6.380   5.400   6.293 -0.5327 -0.0765  0.2534
   40POPC   O13 5327   6.398   5.301   6.183  0.0071  0.0668 -0.3831
   40POPC   O14 5328   6.248   5.392   6.369 -0.5490 -0.4365 -0.4229
   40POPC   O12 5329   6.383   5.536   6.221  0.2476 -0.0871  0.4304
   40POPC   O11 5330   6.492   5.400   6.400  0.1857  0.2721  0.5055
   40POPC    C1 5331   6.613   5.322   6.390  1.2767  0.0507  0.2766
   40POPC    HA 5332   6.688   5.359   6.318  2.2690 -1.8762  0.2505
   40POPC    HB 5333   6.582   5.220   6.357 -0.0915 -0.0038  1.5949
   40POPC    C2 5334   6.682   5.303   6.521 -0.1724 -0.4945 -0.0814
   40POPC    HS 5335   6.756   5.221   6.510  0.8124  0.5447 -1.7764
   40POPC   O21 5336   6.586   5.279   6.625 -0.4584  0.1585 -0.3493
   40POPC   C21 5337   6.551   5.155   6.630  0.4335  0.2350 -0.0136
   40POPC   O22 5338   6.559   5.066   6.544  0.9139 -0.0296 -0.3233
   40POPC   C22 5339   6.492   5.123   6.768 -0.4898 -0.6194  0.5751
   40POPC   H2R 5340   6.518   5.015   6.775 -2.1673 -1.1623 -0.6553
   40POPC   H2S 5341   6.382   5.120   6.748 -0.7731  1.2553  1.6748
   40POPC    C3 5342   6.767   5.423   6.550 -0.1424 -0.9037  0.0398
   40POPC    HX 5343   6.702   5.513   6.548  1.7513  0.5687  0.7403
   40POPC    HY 5344   6.836   5.432   6.464 -0.0077 -1.3968  0.0930
   40POPC   O31 5345   6.837   5.414   6.672 -0.0067 -0.0730  0.0514
   40POPC   C31 5346   6.943   5.327   6.673 -0.4355 -0.0284  1.2776
   40POPC   O32 5347   6.988   5.278   6.570 -0.2230 -0.3365 -0.1028
   40POPC   C32 5348   7.010   5.320   6.816  0.1951 -0.0241  0.2608
   40POPC   H2X 5349   7.115   5.356   6.820 -0.6814  2.9298 -0.8410
   40POPC   H2Y 5350   7.004   5.210   6.829 -1.8069 -0.1589 -1.2711
   40POPC   C23 5351   6.523   5.218   6.888 -0.2506  0.3402 -0.1081
   40POPC   H3R 5352   6.473   5.317   6.881  1.9344  1.6030  0.9929
   40POPC   H3S 5353   6.633   5.228   6.881 -0.0033 -1.9871 -0.5648
   40POPC   C24 5354   6.495   5.151   7.031  0.9001 -0.1180  0.6505
   40POPC   H4R 5355   6.551   5.055   7.026  1.3189  0.1522 -0.0311
   40POPC   H4S 5356   6.390   5.132   7.060 -0.0160  2.6572 -0.4254
   40POPC   C25 5357   6.550   5.235   7.147  0.1689  0.1010  0.5527
   40POPC   H5R 5358   6.514   5.339   7.138 -0.4821 -0.1899 -0.3431
   40POPC   H5S 5359   6.661   5.230   7.141  0.1418 -1.1958  0.7006
   40POPC   C26 5360   6.515   5.178   7.292  0.1334 -0.2573  1.1844
   40POPC   H6R 5361   6.565   5.080   7.305 -0.2765 -0.7394 -0.5131
   40POPC   H6S 5362   6.409   5.145   7.282 -0.2155  0.9046  0.8485
   40POPC   C27 5363   6.545   5.264   7.409  0.0745  0.2577 -0.4670
   40POPC   H7R 5364   6.487   5.358   7.398  0.7623  0.6670 -0.6711
   40POPC   H7S 5365   6.652   5.293   7.422 -0.5841  1.9273  2.0214
   40POPC   C28 5366   6.492   5.197   7.543 -0.6872 -0.1617 -0.1476
   40POPC   H8R 5367   6.538   5.100   7.571 -0.4782 -0.0405 -0.0676
   40POPC   H8S 5368   6.382   5.187   7.540 -0.6758 -0.5283  0.4215
   40POPC   C29 5369   6.526   5.289   7.661  0.8089 -0.0949  0.4238
   40POPC   H91 5370   6.479   5.389   7.653  1.9077  0.4369  0.4327
   40POPC  C210 5371   6.601   5.280   7.769  0.2249  0.0565 -0.2625
   40POPC  H101 5372   6.586   5.360   7.843  0.5237 -1.4067  1.4599
   40POPC  C211 5373   6.684   5.165   7.821  0.5866  0.4395  0.5775
   40POPC  H11R 5374   6.791   5.196   7.828  1.6493 -2.6629 -0.5333
   40POPC  H11S 5375   6.684   5.072   7.760  0.7961  0.6240  0.2920
   40POPC  C212 5376   6.636   5.114   7.959 -0.2775  0.1748  0.1684
   40POPC  H12R 5377   6.702   5.026   7.969  1.2858  0.8656 -2.7908
   40POPC  H12S 5378   6.529   5.091   7.944 -0.0132 -1.1063  0.1390
   40POPC  C213 5379   6.655   5.221   8.067  0.3203  0.7010 -0.5443
   40POPC  H13R 5380   6.625   5.326   8.049  0.4702  1.1020  1.3531
   40POPC  H13S 5381   6.766   5.219   8.078  0.1526 -0.6920  1.3661
   40POPC  C214 5382   6.596   5.174   8.198 -0.5779 -0.3034  0.0005
   40POPC  H14R 5383   6.673   5.186   8.277 -1.8968 -1.2256  1.4878
   40POPC  H14S 5384   6.561   5.069   8.195 -1.0482 -0.2793  2.5249
   40POPC  C215 5385   6.477   5.250   8.257  0.3834 -0.2891 -0.4008
   40POPC  H15R 5386   6.508   5.354   8.281  0.1044  0.0023 -1.2743
   40POPC  H15S 5387   6.441   5.196   8.347  0.5747 -2.7428 -1.7091
   40POPC  C216 5388   6.359   5.244   8.156 -0.1747  0.0324  0.4057
   40POPC  H16R 5389   6.337   5.138   8.134  1.7383 -0.7534  1.9854
   40POPC  H16S 5390   6.393   5.294   8.063  1.6856  0.5672  1.3218
   40POPC  C217 5391   6.236   5.319   8.196  0.0716  0.6279  0.1252
   40POPC  H17R 5392   6.210   5.284   8.298 -0.0412  0.0998 -0.0840
   40POPC  H17S 5393   6.157   5.290   8.124  0.8666 -0.2558 -0.4243
   40POPC  C218 5394   6.243   5.470   8.208 -0.1185 -0.5559  0.2496
   40POPC  H18R 5395   6.309   5.501   8.291 -0.9299  1.0178  0.3425
   40POPC  H18S 5396   6.138   5.505   8.224  0.4363  1.3589 -0.0311
   40POPC  H18T 5397   6.276   5.524   8.117  3.2549 -0.2176  1.5435
   40POPC   C33 5398   6.927   5.389   6.925 -0.3673 -0.0064 -0.2521
   40POPC   H3X 5399   6.827   5.342   6.927  0.1832 -1.2336 -0.5433
   40POPC   H3Y 5400   6.901   5.494   6.898 -0.8156 -0.0740 -0.0797
   40POPC   C34 5401   6.996   5.409   7.062  0.0960  0.1608  0.4094
   40POPC   H4X 5402   7.087   5.471   7.049  2.1547 -2.8128 -0.3748
   40POPC   H4Y 5403   7.031   5.312   7.104  0.5757 -0.1246 -0.6202
   40POPC   C35 5404   6.909   5.480   7.158  0.2620 -0.1499 -0.3342
   40POPC   H5X 5405   6.810   5.432   7.171  0.3674  0.1335  1.8326
   40POPC   H5Y 5406   6.882   5.583   7.127 -1.8287 -1.2025 -2.2735
   40POPC   C36 5407   6.961   5.482   7.306 -0.4488 -0.7179  0.1288
   40POPC   H6X 5408   7.072   5.486   7.297 -0.5558  0.5171 -0.9025
   40POPC   H6Y 5409   6.925   5.397   7.369 -0.5094 -1.4092 -0.8202
   40POPC   C37 5410   6.910   5.617   7.369 -0.0319 -0.2868 -0.0241
   40POPC   H7X 5411   6.801   5.617   7.388 -0.2664  2.8074 -0.8888
   40POPC   H7Y 5412   6.932   5.705   7.306  1.0590  1.8450  3.1336
   40POPC   C38 5413   6.975   5.656   7.501  0.3784 -0.1671  0.1231
   40POPC   H8X 5414   6.934   5.751   7.543  0.5751  0.6425 -1.4443
   40POPC   H8Y 5415   7.081   5.684   7.482 -0.3055  1.5911 -1.4317
   40POPC   C39 5416   6.966   5.546   7.613  0.1448  0.1604 -0.3318
   40POPC   H9X 5417   7.013   5.457   7.565 -0.3658  0.2033 -0.9224
   40POPC   H9Y 5418   6.860   5.515   7.619  0.6244 -1.4780  0.3001
   40POPC  C310 5419   7.028   5.589   7.750 -0.3007 -0.6338  0.1984
   40POPC  H10X 5420   6.976   5.686   7.765  2.8899  1.4877 -1.2737
   40POPC  H10Y 5421   7.133   5.618   7.729 -0.9186  1.3354 -0.3582
   40POPC  C311 5422   7.016   5.493   7.866 -0.1522  0.5432 -0.3510
   40POPC  H11X 5423   6.909   5.490   7.897 -0.0087 -0.4315  0.0916
   40POPC  H11Y 5424   7.067   5.530   7.957 -1.6880 -0.6347  1.0428
   40POPC  C312 5425   7.062   5.351   7.840 -1.0990 -0.4129  1.0614
   40POPC  H12X 5426   7.000   5.300   7.764  3.2513 -0.8810 -2.5979
   40POPC  H12Y 5427   7.049   5.290   7.932  1.0269 -1.0999  0.9508
   40POPC  C313 5428   7.212   5.344   7.798 -0.0054  0.0860  0.2358
   40POPC  H13X 5429   7.227   5.403   7.705 -2.7266  2.4460  1.1185
   40POPC  H13Y 5430   7.234   5.239   7.769 -0.7085  0.8187 -3.4599
   40POPC  C314 5431   7.312   5.389   7.909  0.8902  0.2954 -0.0475
   40POPC  H14X 5432   7.297   5.493   7.945 -0.8184  0.1709 -0.3073
   40POPC  H14Y 5433   7.415   5.389   7.869  0.7970  0.1841 -0.2876
   40POPC  C315 5434   7.310   5.297   8.035 -0.8615  0.4041  0.0001
   40POPC  H15X 5435   7.340   5.194   8.006  0.2651  1.3611 -2.5159
   40POPC  H15Y 5436   7.207   5.283   8.073 -0.0502 -0.0152  2.2292
   40POPC  C316 5437   7.402   5.352   8.153 -0.5277  0.3849  0.6453
   40POPC  H16X 5438   7.509   5.337   8.127 -0.4809 -1.0358  1.5311
   40POPC  H16Y 5439   7.387   5.298   8.249 -1.5134  0.5735  0.6037
   40POPC  H16Z 5440   7.376   5.459   8.172 -0.5900  0.3954  0.5033
   41CHL1    C3 5441   0.588   1.594   9.960  0.1626  0.3785 -0.1337
   41CHL1    H3 5442   0.595   1.705   9.960 -2.0799  0.6228  2.6975
   41CHL1    O3 5443   0.623   1.565  10.093 -0.7229 -0.2212 -0.0631
   41CHL1   H3' 5444   0.601   1.473  10.106  0.4833 -0.7453 -1.4268
   41CHL1    C4 5445   0.452   1.535   9.936  0.5271  0.6369  1.1416
   41CHL1   H4A 5446   0.450   1.429   9.966 -2.7818 -0.2395 -1.5780
   41CHL1   H4B 5447   0.378   1.592   9.995 -0.5311 -1.7979  2.2878
   41CHL1    C5 5448   0.408   1.541   9.789  0.6329  0.0195  0.0344
   41CHL1    C6 5449   0.291   1.601   9.756  0.0254 -0.2047  0.2070
   41CHL1    H6 5450   0.224   1.626   9.839  2.6291 -1.1707  2.8011
   41CHL1    C7 5451   0.238   1.607   9.616 -0.1517  0.3934 -0.0744
   41CHL1   H7A 5452   0.132   1.574   9.611 -0.4000  1.3274 -1.1421
   41CHL1   H7B 5453   0.241   1.708   9.572 -1.3578 -0.6033 -2.6487
   41CHL1    C8 5454   0.324   1.524   9.513 -0.3342  0.1279  0.0450
   41CHL1    H8 5455   0.281   1.422   9.524  0.7418 -0.1267  2.5151
   41CHL1   C14 5456   0.311   1.571   9.372 -0.2759 -0.3424 -0.2471
   41CHL1   H14 5457   0.363   1.668   9.367 -0.2416 -0.3710 -0.4546
   41CHL1   C15 5458   0.161   1.603   9.334 -0.3095 -0.1712  0.3265
   41CHL1  H15A 5459   0.079   1.539   9.373 -1.8843  1.9767  0.7081
   41CHL1  H15B 5460   0.134   1.704   9.372  0.5250 -0.4055  1.6199
   41CHL1   C16 5461   0.166   1.590   9.181 -0.7044 -0.2907  0.3316
   41CHL1  H16A 5462   0.104   1.507   9.140 -2.9201  1.0892  0.7520
   41CHL1  H16B 5463   0.139   1.689   9.140  0.8676  0.2049  0.4263
   41CHL1   C17 5464   0.315   1.553   9.137 -0.4826  0.2676 -0.1001
   41CHL1   H17 5465   0.366   1.651   9.137  0.3470 -0.1551  0.5833
   41CHL1   C13 5466   0.375   1.485   9.264  0.6378  0.2666  0.6175
   41CHL1   C18 5467   0.319   1.338   9.281 -0.5949 -0.2617  0.7746
   41CHL1  H18A 5468   0.347   1.290   9.378  0.2572 -0.6163  0.3666
   41CHL1  H18B 5469   0.209   1.333   9.272 -0.6459  1.8915 -0.6560
   41CHL1  H18C 5470   0.358   1.273   9.200 -2.1054 -0.3006  0.0445
   41CHL1   C12 5471   0.527   1.497   9.290  0.0789 -0.5424 -0.4264
   41CHL1  H12A 5472   0.591   1.420   9.242 -0.1556 -0.9244 -0.1315
   41CHL1  H12B 5473   0.575   1.592   9.257 -0.4174 -0.5216 -1.1153
   41CHL1   C11 5474   0.559   1.473   9.436  0.3463  0.9613 -0.2173
   41CHL1  H11A 5475   0.554   1.362   9.443  0.2568  1.0800  3.2306
   41CHL1  H11B 5476   0.667   1.499   9.449  0.6147 -0.2830  0.2001
   41CHL1    C9 5477   0.473   1.537   9.544  0.4343 -0.5117 -0.2358
   41CHL1    H9 5478   0.499   1.645   9.547  1.5968 -0.7871  0.2257
   41CHL1   C10 5479   0.509   1.488   9.688 -0.0139  0.0057  0.2487
   41CHL1   C19 5480   0.506   1.337   9.696 -0.1381  0.4224  0.2882
   41CHL1  H19A 5481   0.404   1.298   9.675 -0.3308  1.4058 -0.7272
   41CHL1  H19B 5482   0.588   1.298   9.632 -0.1728 -1.5030  1.3507
   41CHL1  H19C 5483   0.534   1.321   9.802 -3.7499  2.4023  1.7475
   41CHL1    C1 5484   0.656   1.535   9.721 -0.1386  0.8512  0.4593
   41CHL1   H1A 5485   0.736   1.491   9.658  1.5229 -0.1358  3.1043
   41CHL1   H1B 5486   0.659   1.643   9.695 -0.0302  0.6044 -0.6140
   41CHL1    C2 5487   0.685   1.522   9.868  0.8922 -0.5922 -0.5109
   41CHL1   H2A 5488   0.785   1.567   9.879  0.7693 -0.4098 -0.1399
   41CHL1   H2B 5489   0.695   1.412   9.878  0.6776 -0.6952 -1.3001
   41CHL1   C20 5490   0.340   1.489   8.994 -0.6767  0.5987 -0.5406
   41CHL1   H20 5491   0.277   1.398   8.983 -1.1435  1.0885 -2.1418
   41CHL1   C21 5492   0.490   1.456   8.978 -0.4480 -0.9828  0.4716
   41CHL1  H21A 5493   0.519   1.372   9.046  2.1245  1.2445  2.3583
   41CHL1  H21B 5494   0.549   1.542   9.016 -0.8873 -0.5376  0.1536
   41CHL1  H21C 5495   0.526   1.436   8.875 -0.6907  1.8127 -0.2302
   41CHL1   C22 5496   0.294   1.583   8.881 -0.0662  0.2419 -0.1955
   41CHL1  H22A 5497   0.198   1.632   8.906 -0.9057 -0.6797 -1.4563
   41CHL1  H22B 5498   0.372   1.660   8.860 -1.2847  1.4899 -0.2308
   41CHL1   C23 5499   0.281   1.509   8.744  0.7294 -0.4238  1.1256
   41CHL1  H23A 5500   0.374   1.454   8.718  2.3182  2.6887 -0.3037
   41CHL1  H23B 5501   0.197   1.436   8.751  0.1141 -0.1893 -2.2042
   41CHL1   C24 5502   0.222   1.600   8.627 -0.3905 -0.3727 -0.5006
   41CHL1  H24A 5503   0.139   1.668   8.653 -0.2001  0.6196 -2.3369
   41CHL1  H24B 5504   0.303   1.665   8.588  1.4211 -2.1581  0.1146
   41CHL1   C25 5505   0.145   1.526   8.517  0.5841 -0.1763 -0.2286
   41CHL1   H25 5506   0.191   1.430   8.488  0.4918 -0.1810 -0.3605
   41CHL1   C26 5507  -0.005   1.489   8.560 -0.0493 -0.3069 -0.0603
   41CHL1  H26A 5508  -0.049   1.437   8.472  0.1377  0.1345 -0.4146
   41CHL1  H26B 5509  -0.006   1.411   8.639 -0.7599  1.6669  2.0168
   41CHL1  H26C 5510  -0.063   1.580   8.586  1.1227  0.5974 -0.5237
   41CHL1   C27 5511   0.138   1.621   8.395 -0.2289 -0.9179  0.1910
   41CHL1  H27A 5512   0.107   1.722   8.429 -2.5399  0.1104 -4.1943
   41CHL1  H27B 5513   0.231   1.640   8.337 -0.8048  1.2581 -0.1350
   41CHL1  H27C 5514   0.058   1.587   8.326  0.5156 -2.1178 -0.1210
   42CHL1    C3 5515   0.436   0.219   9.900 -0.1786 -0.2491 -0.4481
   42CHL1    H3 5516   0.546   0.206   9.907 -0.0795  0.8775  0.3127
   42CHL1    O3 5517   0.384   0.199  10.031 -0.0853 -0.2145  0.0891
   42CHL1   H3' 5518   0.290   0.193  10.012 -0.1808  0.6573  0.2353
   42CHL1    C4 5519   0.406   0.368   9.853 -0.1248 -0.1355  0.0135
   42CHL1   H4A 5520   0.295   0.373   9.862 -0.2942 -3.5416  1.1360
   42CHL1   H4B 5521   0.449   0.429   9.935 -3.0178 -0.9183  2.3023
   42CHL1    C5 5522   0.459   0.390   9.712  0.0368  0.5705 -0.6632
   42CHL1    C6 5523   0.549   0.491   9.698  0.7291  0.0592 -0.5960
   42CHL1    H6 5524   0.579   0.547   9.788 -1.5642  1.8105 -0.8206
   42CHL1    C7 5525   0.601   0.539   9.565  0.2275  0.4042  0.2024
   42CHL1   H7A 5526   0.603   0.650   9.562  0.1214  0.3959 -0.7839
   42CHL1   H7B 5527   0.702   0.494   9.570  0.0718 -0.2028 -1.2833
   42CHL1    C8 5528   0.513   0.477   9.450 -0.0347  0.2351  0.7068
   42CHL1    H8 5529   0.417   0.530   9.435  0.1933 -0.1613 -3.0746
   42CHL1   C14 5530   0.593   0.495   9.320 -0.1925 -0.0347  0.3474
   42CHL1   H14 5531   0.694   0.452   9.335  0.5750  1.6748  0.2857
   42CHL1   C15 5532   0.627   0.643   9.282  0.2896 -0.1761  0.0131
   42CHL1  H15A 5533   0.538   0.710   9.281  0.1572 -0.3444 -0.9833
   42CHL1  H15B 5534   0.703   0.680   9.354 -0.3019 -0.3740  0.7509
   42CHL1   C16 5535   0.687   0.633   9.147 -0.7040 -0.0333 -0.3275
   42CHL1  H16A 5536   0.641   0.714   9.086 -1.5013  1.0740  1.6504
   42CHL1  H16B 5537   0.796   0.650   9.160 -0.8148  0.6068 -0.1936
   42CHL1   C17 5538   0.656   0.490   9.093  0.5333  0.3961  0.3095
   42CHL1   H17 5539   0.757   0.443   9.099  0.5875  0.5809  0.8651
   42CHL1   C13 5540   0.543   0.436   9.195  0.5794  0.9160  1.0670
   42CHL1   C18 5541   0.404   0.493   9.150 -0.1955  0.4610 -0.3327
   42CHL1  H18A 5542   0.407   0.596   9.109 -0.1415  0.0833 -1.3068
   42CHL1  H18B 5543   0.354   0.427   9.076 -1.3733  0.2795  0.5888
   42CHL1  H18C 5544   0.334   0.491   9.236  2.2015  0.1715  1.7080
   42CHL1   C12 5545   0.536   0.280   9.216 -0.0248 -0.2137 -0.7978
   42CHL1  H12A 5546   0.497   0.229   9.125 -0.0970 -1.0480 -0.3079
   42CHL1  H12B 5547   0.638   0.240   9.236 -0.1755 -0.3590 -0.3018
   42CHL1   C11 5548   0.442   0.248   9.341  0.0483 -0.3803 -0.1054
   42CHL1  H11A 5549   0.344   0.297   9.322 -1.2076 -1.7489  2.3089
   42CHL1  H11B 5550   0.436   0.138   9.356  0.8860 -0.4773 -0.3860
   42CHL1    C9 5551   0.499   0.323   9.473  0.2067 -0.3553  1.1318
   42CHL1    H9 5552   0.601   0.287   9.496  1.6965  3.2733  0.9855
   42CHL1   C10 5553   0.411   0.286   9.598 -0.4154 -0.3581 -0.6922
   42CHL1   C19 5554   0.258   0.296   9.571 -0.0799 -0.6977 -0.3012
   42CHL1  H19A 5555   0.219   0.216   9.504  0.1975 -1.1563  0.0835
   42CHL1  H19B 5556   0.203   0.283   9.667 -1.9056 -0.6850 -1.2978
   42CHL1  H19C 5557   0.228   0.394   9.527 -1.7313  0.0779  2.3541
   42CHL1    C1 5558   0.456   0.146   9.663  0.4572 -0.3298 -0.0809
   42CHL1   H1A 5559   0.434   0.062   9.593  0.8360 -1.4953  1.1671
   42CHL1   H1B 5560   0.567   0.141   9.667  0.5782  0.0535 -1.9943
   42CHL1    C2 5561   0.385   0.119   9.801 -0.0243  0.0047 -0.0638
   42CHL1   H2A 5562   0.391   0.022   9.854 -2.7131  0.0220  0.3660
   42CHL1   H2B 5563   0.275   0.125   9.796 -0.0265 -0.8545 -1.8061
   42CHL1   C20 5564   0.628   0.488   8.942 -0.2496 -0.1031 -0.0771
   42CHL1   H20 5565   0.537   0.551   8.933  1.2137  2.2632  0.6137
   42CHL1   C21 5566   0.601   0.345   8.891  0.0746 -0.0731  0.0490
   42CHL1  H21A 5567   0.680   0.271   8.918  2.9197  1.5810 -3.0010
   42CHL1  H21B 5568   0.602   0.336   8.781  0.5048 -1.1296  0.1288
   42CHL1  H21C 5569   0.508   0.312   8.943  0.7613 -1.9603  0.1693
   42CHL1   C22 5570   0.745   0.554   8.866 -0.0077  0.1732  0.1256
   42CHL1  H22A 5571   0.762   0.657   8.903  1.8314 -0.8459  2.4316
   42CHL1  H22B 5572   0.839   0.500   8.893  0.6934  1.2104 -0.1897
   42CHL1   C23 5573   0.722   0.563   8.715 -0.0971  0.5978  1.0393
   42CHL1  H23A 5574   0.718   0.460   8.675 -0.0543  0.8685  0.3163
   42CHL1  H23B 5575   0.624   0.615   8.719 -0.9529 -0.8514  0.0129
   42CHL1   C24 5576   0.844   0.641   8.640  0.4833  0.5807 -0.2627
   42CHL1  H24A 5577   0.871   0.733   8.697  1.8873  0.1520 -0.2193
   42CHL1  H24B 5578   0.936   0.579   8.638  0.4811  0.4907  1.5178
   42CHL1   C25 5579   0.800   0.680   8.494 -0.6783  0.1150 -0.2213
   42CHL1   H25 5580   0.888   0.720   8.440  0.0515 -1.0388  0.0770
   42CHL1   C26 5581   0.740   0.563   8.419 -0.2862 -0.1109  0.5506
   42CHL1  H26A 5582   0.722   0.593   8.313 -1.0028  0.1977  0.7549
   42CHL1  H26B 5583   0.813   0.479   8.415 -1.7959 -1.5153  1.3487
   42CHL1  H26C 5584   0.653   0.521   8.474  0.8590  0.5231  2.9397
   42CHL1   C27 5585   0.703   0.802   8.507  0.2051 -0.4698  0.4930
   42CHL1  H27A 5586   0.604   0.763   8.540  0.0181 -0.3515  0.0699
   42CHL1  H27B 5587   0.746   0.870   8.584 -0.0567  0.2157  0.0359
   42CHL1  H27C 5588   0.693   0.855   8.410 -1.5891 -0.4020  0.6937
   43CHL1    C3 5589   0.215   2.157   9.854  0.0345  0.2902 -0.1492
   43CHL1    H3 5590   0.310   2.215   9.858  0.0969  0.2120 -0.5309
   43CHL1    O3 5591   0.169   2.159   9.987  0.0676  0.3314  0.0315
   43CHL1   H3' 5592   0.230   2.103  10.034  0.4133  1.8473  1.4963
   43CHL1    C4 5593   0.116   2.221   9.759 -0.0568  0.5342  1.0962
   43CHL1   H4A 5594   0.029   2.152   9.756  0.5707 -0.2630  0.7688
   43CHL1   H4B 5595   0.087   2.321   9.798 -2.3949  1.0149 -1.5674
   43CHL1    C5 5596   0.181   2.213   9.620 -0.0509  0.0104 -0.2721
   43CHL1    C6 5597   0.200   2.323   9.548  0.6304 -0.1746  0.4657
   43CHL1    H6 5598   0.168   2.421   9.586 -1.3626 -0.2307 -0.9391
   43CHL1    C7 5599   0.241   2.325   9.402  0.8266  0.5410  0.6147
   43CHL1   H7A 5600   0.171   2.381   9.336  0.9944 -0.5155 -0.4871
   43CHL1   H7B 5601   0.332   2.386   9.383  0.6646  1.0771  1.4949
   43CHL1    C8 5602   0.252   2.183   9.337  0.0037 -0.4385 -0.0226
   43CHL1    H8 5603   0.152   2.155   9.297 -0.9226 -1.5350  2.8469
   43CHL1   C14 5604   0.343   2.182   9.212 -0.6428 -0.4806 -0.2490
   43CHL1   H14 5605   0.445   2.204   9.252 -1.0305  0.0351  0.4774
   43CHL1   C15 5606   0.310   2.278   9.105  0.1018 -0.3883  0.2104
   43CHL1  H15A 5607   0.200   2.293   9.091  0.3877  1.2432 -0.5053
   43CHL1  H15B 5608   0.348   2.380   9.126 -2.0529  0.8438 -1.4100
   43CHL1   C16 5609   0.390   2.230   8.983  0.1034  0.5052 -0.0997
   43CHL1  H16A 5610   0.337   2.216   8.886  1.0552 -1.4271 -0.3825
   43CHL1  H16B 5611   0.460   2.312   8.956 -0.7381  1.4109  0.4028
   43CHL1   C17 5612   0.459   2.095   9.026  0.0587 -0.6625 -0.7026
   43CHL1   H17 5613   0.558   2.111   9.074 -0.7205 -1.1902  1.1811
   43CHL1   C13 5614   0.370   2.042   9.143  0.4543  0.3184  0.4271
   43CHL1   C18 5615   0.244   1.977   9.093 -0.7273  0.3120 -0.2677
   43CHL1  H18A 5616   0.187   2.039   9.021 -1.3658 -1.4442 -1.3320
   43CHL1  H18B 5617   0.269   1.887   9.033  0.6149  0.2094  0.4062
   43CHL1  H18C 5618   0.180   1.942   9.177 -1.7672  0.9535 -0.7685
   43CHL1   C12 5619   0.430   1.955   9.250  0.2173  0.2186 -0.0521
   43CHL1  H12A 5620   0.451   1.853   9.213  0.6961  0.7375 -1.2724
   43CHL1  H12B 5621   0.527   2.004   9.274 -0.3806  2.2494 -1.4663
   43CHL1   C11 5622   0.346   1.938   9.379  0.6133 -0.6061  0.2780
   43CHL1  H11A 5623   0.250   1.886   9.363  0.6133 -1.0746  1.6565
   43CHL1  H11B 5624   0.392   1.867   9.451 -0.3037 -0.1175  1.3804
   43CHL1    C9 5625   0.301   2.080   9.445  0.0300  0.7820  1.1219
   43CHL1    H9 5626   0.399   2.124   9.473  0.4105 -0.1970  1.3839
   43CHL1   C10 5627   0.218   2.072   9.570  0.4473  0.2820 -0.4872
   43CHL1   C19 5628   0.088   1.993   9.542  0.0098 -0.5189 -0.0753
   43CHL1  H19A 5629   0.100   1.883   9.527 -1.9462 -0.7230 -0.3536
   43CHL1  H19B 5630   0.020   1.998   9.629  1.0955  0.3551  0.7488
   43CHL1  H19C 5631   0.030   2.046   9.464 -1.3270 -0.8168  0.6944
   43CHL1    C1 5632   0.303   2.000   9.680 -0.5610 -0.6089 -0.1931
   43CHL1   H1A 5633   0.311   1.891   9.658 -1.2512 -1.0724  1.6503
   43CHL1   H1B 5634   0.402   2.049   9.673 -1.1395  0.3392 -2.9355
   43CHL1    C2 5635   0.241   2.011   9.818  1.1435 -0.7656 -0.5981
   43CHL1   H2A 5636   0.301   1.956   9.895 -2.9744  0.7942  4.3044
   43CHL1   H2B 5637   0.143   1.960   9.809 -0.4666  2.0910 -0.2689
   43CHL1   C20 5638   0.486   2.010   8.904 -0.1319 -1.0069 -0.7341
   43CHL1   H20 5639   0.387   1.998   8.854 -1.1126  0.2925  0.7842
   43CHL1   C21 5640   0.545   1.875   8.947  1.4265 -0.2717  0.2418
   43CHL1  H21A 5641   0.580   1.823   8.856 -2.3902 -0.4316 -1.2994
   43CHL1  H21B 5642   0.467   1.816   8.999  2.5237 -2.2107 -0.2185
   43CHL1  H21C 5643   0.624   1.881   9.026  1.4668 -0.9379  0.2564
   43CHL1   C22 5644   0.573   2.083   8.802 -0.0081  0.4359  0.1639
   43CHL1  H22A 5645   0.596   2.004   8.727 -0.9510  1.0832 -0.8317
   43CHL1  H22B 5646   0.515   2.162   8.750  0.1968 -0.8680 -2.1722
   43CHL1   C23 5647   0.699   2.139   8.866  0.3686 -0.4509  1.0282
   43CHL1  H23A 5648   0.668   2.228   8.925 -1.0046 -1.0435  1.2301
   43CHL1  H23B 5649   0.742   2.062   8.933  0.2014 -0.6481  0.9094
   43CHL1   C24 5650   0.802   2.197   8.764  0.6233  0.5415 -0.2092
   43CHL1  H24A 5651   0.794   2.129   8.677  0.1325 -0.7514  0.8074
   43CHL1  H24B 5652   0.762   2.298   8.742 -3.1502 -0.6352  0.5820
   43CHL1   C25 5653   0.951   2.205   8.814 -0.4173 -0.0969  0.4225
   43CHL1   H25 5654   0.965   2.103   8.855 -1.3339 -0.1162  0.6988
   43CHL1   C26 5655   1.059   2.220   8.706 -0.3590  0.1418 -0.2071
   43CHL1  H26A 5656   1.158   2.194   8.747 -0.2266  0.6541 -0.1892
   43CHL1  H26B 5657   1.042   2.145   8.625  0.9080  0.3358 -0.6681
   43CHL1  H26C 5658   1.055   2.325   8.670 -1.6596 -0.4343 -1.9181
   43CHL1   C27 5659   0.971   2.316   8.925  0.0095 -0.1073 -0.6444
   43CHL1  H27A 5660   0.939   2.414   8.882 -0.3762  0.3477  0.6475
   43CHL1  H27B 5661   0.911   2.284   9.013  0.2035 -1.2362 -0.9094
   43CHL1  H27C 5662   1.075   2.332   8.961 -0.0296  1.7409 -1.2377
   44CHL1    C3 5663   0.515   4.336  10.124 -0.0643  0.3840 -0.7849
   44CHL1    H3 5664   0.404   4.330  10.117 -0.0151 -1.0278 -0.6305
   44CHL1    O3 5665   0.541   4.315  10.260 -0.2431 -0.0271 -0.0905
   44CHL1   H3' 5666   0.627   4.356  10.269 -0.8142  1.1767 -0.0061
   44CHL1    C4 5667   0.584   4.235  10.039  0.2756  0.6644 -0.9454
   44CHL1   H4A 5668   0.690   4.213  10.064 -1.0608 -3.7696  2.1075
   44CHL1   H4B 5669   0.540   4.136  10.065  0.4767  0.6565 -0.6310
   44CHL1    C5 5670   0.594   4.264   9.888 -0.9381  0.2214 -0.5350
   44CHL1    C6 5671   0.555   4.159   9.811 -0.4360  0.9603  0.0724
   44CHL1    H6 5672   0.528   4.065   9.861 -0.1195  0.3001 -0.9861
   44CHL1    C7 5673   0.562   4.163   9.659  0.0574 -0.1986  0.7638
   44CHL1   H7A 5674   0.610   4.074   9.613 -0.5922 -0.9141  1.4439
   44CHL1   H7B 5675   0.462   4.152   9.612  1.0558 -0.8067 -1.3099
   44CHL1    C8 5676   0.633   4.281   9.604 -0.0088 -0.1382  1.0125
   44CHL1    H8 5677   0.742   4.265   9.618  0.1053 -0.5893 -0.2544
   44CHL1   C14 5678   0.599   4.313   9.463 -0.1128 -0.0208  0.0875
   44CHL1   H14 5679   0.492   4.342   9.473 -0.2842 -0.8230  0.6692
   44CHL1   C15 5680   0.611   4.199   9.357  0.0590 -0.2264  0.3657
   44CHL1  H15A 5681   0.696   4.134   9.388  1.1952  1.0095 -0.0526
   44CHL1  H15B 5682   0.518   4.139   9.355 -1.3908  1.8328 -3.0256
   44CHL1   C16 5683   0.607   4.274   9.222 -0.7914 -0.0849 -0.5539
   44CHL1  H16A 5684   0.704   4.252   9.171  0.4915  1.9490  0.8299
   44CHL1  H16B 5685   0.523   4.238   9.160 -1.5823  0.7526  0.0123
   44CHL1   C17 5686   0.615   4.423   9.248 -0.1958  0.5020 -0.1728
   44CHL1   H17 5687   0.510   4.458   9.246 -0.7067 -0.9577 -0.5311
   44CHL1   C13 5688   0.665   4.436   9.392  0.1927 -0.6098 -0.1351
   44CHL1   C18 5689   0.825   4.422   9.399 -0.8615  0.2163  1.0544
   44CHL1  H18A 5690   0.858   4.420   9.505 -1.7187  3.3958  1.4849
   44CHL1  H18B 5691   0.853   4.332   9.338 -2.0067  0.1308  0.6316
   44CHL1  H18C 5692   0.876   4.509   9.352 -1.2800 -0.3092 -0.4259
   44CHL1   C12 5693   0.610   4.560   9.471 -0.1956  0.4454  0.5798
   44CHL1  H12A 5694   0.654   4.654   9.431  3.8680 -1.2650  0.5710
   44CHL1  H12B 5695   0.501   4.574   9.458 -0.3824 -0.0821  1.5174
   44CHL1   C11 5696   0.644   4.537   9.625 -0.3888  0.6480  0.1395
   44CHL1  H11A 5697   0.753   4.535   9.650 -0.4309 -0.1512  0.2879
   44CHL1  H11B 5698   0.621   4.624   9.689 -1.2240  0.5792 -0.0582
   44CHL1    C9 5699   0.589   4.408   9.686  0.4947 -0.1527 -0.3207
   44CHL1    H9 5700   0.478   4.403   9.692  0.5798 -1.9086  0.6434
   44CHL1   C10 5701   0.633   4.395   9.841 -0.6321  0.2209 -0.8115
   44CHL1   C19 5702   0.784   4.409   9.865  0.0600  0.7190  0.4178
   44CHL1  H19A 5703   0.809   4.387   9.970  1.3353  0.5509  0.0969
   44CHL1  H19B 5704   0.838   4.333   9.805 -2.0786 -0.1556 -0.5199
   44CHL1  H19C 5705   0.824   4.511   9.847 -2.4620  2.1840  2.4208
   44CHL1    C1 5706   0.561   4.498   9.935  0.3065 -0.3326  0.1948
   44CHL1   H1A 5707   0.597   4.600   9.911 -0.0978 -0.1622  0.3049
   44CHL1   H1B 5708   0.454   4.509   9.906  0.6058  1.6063 -0.2917
   44CHL1    C2 5709   0.560   4.475  10.089 -0.3725  0.4060  0.2271
   44CHL1   H2A 5710   0.513   4.564  10.137  1.6602  3.2819 -2.7339
   44CHL1   H2B 5711   0.661   4.497  10.129 -1.6794  5.1917  1.5003
   44CHL1   C20 5712   0.697   4.496   9.138 -0.6334 -0.7566 -0.3514
   44CHL1   H20 5713   0.799   4.453   9.139 -0.4681 -0.3693  0.0947
   44CHL1   C21 5714   0.717   4.653   9.165  1.2708  0.2460  0.3606
   44CHL1  H21A 5715   0.767   4.664   9.264  1.0092 -1.6337  0.7343
   44CHL1  H21B 5716   0.617   4.700   9.162  0.6269 -1.0934 -0.0512
   44CHL1  H21C 5717   0.782   4.692   9.084  0.7485 -1.4173 -0.9271
   44CHL1   C22 5718   0.628   4.468   9.004 -0.6678  0.3560  0.0557
   44CHL1  H22A 5719   0.619   4.358   8.990  1.0614 -0.2567  2.8525
   44CHL1  H22B 5720   0.525   4.509   9.000 -1.0160 -0.3850  1.0925
   44CHL1   C23 5721   0.709   4.524   8.886  0.6661  0.0168  0.3268
   44CHL1  H23A 5722   0.713   4.635   8.891  1.8577  0.0996 -1.5268
   44CHL1  H23B 5723   0.809   4.475   8.892  0.5362 -0.5120 -1.3044
   44CHL1   C24 5724   0.661   4.482   8.746  0.3313  0.1309 -0.1907
   44CHL1  H24A 5725   0.638   4.375   8.768  0.0716  0.5860  2.0033
   44CHL1  H24B 5726   0.574   4.538   8.707  0.1524  2.1472  2.8172
   44CHL1   C25 5727   0.786   4.503   8.653 -0.0027 -0.0558  0.1913
   44CHL1   H25 5728   0.868   4.446   8.700  0.4921 -0.1319 -0.7532
   44CHL1   C26 5729   0.767   4.442   8.516  0.5735  0.2797 -0.0985
   44CHL1  H26A 5730   0.845   4.478   8.447 -0.5909  1.5549 -0.7992
   44CHL1  H26B 5731   0.749   4.332   8.527  0.0389  0.4476  0.8840
   44CHL1  H26C 5732   0.680   4.483   8.461  0.7436  0.7355 -0.0250
   44CHL1   C27 5733   0.829   4.646   8.628 -0.2145 -0.2145 -0.3557
   44CHL1  H27A 5734   0.917   4.649   8.560 -0.7100  0.4798 -0.9912
   44CHL1  H27B 5735   0.751   4.701   8.571  0.6251  0.2973 -1.0355
   44CHL1  H27C 5736   0.847   4.702   8.722  0.9068  0.4177 -0.9165
   45CHL1    C3 5737   4.609   2.706  10.093  0.4538  0.0963  0.1388
   45CHL1    H3 5738   4.703   2.764  10.104  0.0031  0.6917  0.9528
   45CHL1    O3 5739   4.555   2.651  10.215  1.1249  0.1795  0.0663
   45CHL1   H3' 5740   4.559   2.721  10.281  0.5606 -1.2178  1.6443
   45CHL1    C4 5741   4.506   2.804  10.033  0.6101 -0.9728 -0.1794
   45CHL1   H4A 5742   4.405   2.757  10.039 -0.7184  1.6656 -0.4511
   45CHL1   H4B 5743   4.503   2.887  10.105  0.5181 -0.7763 -0.4077
   45CHL1    C5 5744   4.536   2.847   9.890 -0.2855 -0.0322  0.7322
   45CHL1    C6 5745   4.549   2.978   9.862  0.0920 -0.3519 -0.0888
   45CHL1    H6 5746   4.537   3.048   9.945  1.0114 -0.9223  0.5319
   45CHL1    C7 5747   4.592   3.031   9.723  0.8277 -0.2912  0.2897
   45CHL1   H7A 5748   4.520   3.110   9.691  1.2263 -0.7540 -1.9626
   45CHL1   H7B 5749   4.688   3.084   9.741  0.6666  0.1195 -0.0258
   45CHL1    C8 5750   4.594   2.925   9.611  0.1172  0.0079 -0.1485
   45CHL1    H8 5751   4.673   2.966   9.545  1.0740 -0.8332  0.4477
   45CHL1   C14 5752   4.458   2.935   9.525  0.0103 -0.2188 -0.2612
   45CHL1   H14 5753   4.361   2.925   9.579 -0.5703 -0.8551 -1.3818
   45CHL1   C15 5754   4.440   3.069   9.447 -0.1533 -0.1207  0.6036
   45CHL1  H15A 5755   4.333   3.096   9.436 -1.0845 -2.2387  3.2198
   45CHL1  H15B 5756   4.486   3.157   9.498  0.2954  0.3279 -0.5463
   45CHL1   C16 5757   4.490   3.048   9.304 -0.0748  0.2774 -1.4467
   45CHL1  H16A 5758   4.411   3.092   9.239 -1.3997  0.9991  0.5709
   45CHL1  H16B 5759   4.589   3.098   9.290  0.8513 -0.1779  2.4706
   45CHL1   C17 5760   4.520   2.897   9.296  0.2856  0.3265 -0.3100
   45CHL1   H17 5761   4.625   2.882   9.328  0.4449 -1.9476 -1.6939
   45CHL1   C13 5762   4.444   2.832   9.412  0.1039 -0.0193  0.3337
   45CHL1   C18 5763   4.291   2.811   9.373 -0.2645 -0.5443 -0.7954
   45CHL1  H18A 5764   4.245   2.745   9.449  0.4353 -0.3208 -0.1652
   45CHL1  H18B 5765   4.230   2.903   9.360 -0.0592 -0.3205 -0.1709
   45CHL1  H18C 5766   4.276   2.735   9.292  0.0224 -3.2302  1.5070
   45CHL1   C12 5767   4.503   2.694   9.446  0.5219  0.4977 -0.1655
   45CHL1  H12A 5768   4.422   2.640   9.500  0.2695  0.6524 -0.3825
   45CHL1  H12B 5769   4.522   2.633   9.355  1.1922 -2.3602  1.7602
   45CHL1   C11 5770   4.630   2.691   9.534 -0.2263 -0.1899 -0.0248
   45CHL1  H11A 5771   4.646   2.588   9.572  2.4041  0.5639  1.2009
   45CHL1  H11B 5772   4.720   2.701   9.469  1.7154 -0.2341  2.5001
   45CHL1    C9 5773   4.636   2.785   9.649  0.4265  0.1045 -0.7646
   45CHL1    H9 5774   4.745   2.793   9.670  0.4992 -0.0483 -1.0807
   45CHL1   C10 5775   4.570   2.736   9.786 -0.3603  0.0725  0.6236
   45CHL1   C19 5776   4.432   2.666   9.762  0.7352 -0.3483 -0.4153
   45CHL1  H19A 5777   4.358   2.736   9.717  1.0120  0.2930  0.1167
   45CHL1  H19B 5778   4.445   2.582   9.690 -0.2255  1.4021 -2.7450
   45CHL1  H19C 5779   4.383   2.635   9.857 -3.3264  0.2110 -2.1352
   45CHL1    C1 5780   4.662   2.628   9.850 -0.2944 -0.0766 -0.1352
   45CHL1   H1A 5781   4.654   2.530   9.799 -0.2984  0.3384 -0.9470
   45CHL1   H1B 5782   4.766   2.666   9.856 -0.4004  0.3283 -0.8008
   45CHL1    C2 5783   4.622   2.589   9.996 -0.2473 -0.4555  0.4623
   45CHL1   H2A 5784   4.697   2.516  10.034 -0.2882 -0.7249  0.0297
   45CHL1   H2B 5785   4.526   2.534  10.002 -1.2092  1.2789  1.6624
   45CHL1   C20 5786   4.510   2.843   9.153  0.1005 -0.0851 -0.1163
   45CHL1   H20 5787   4.496   2.733   9.162 -0.2733  0.0167  0.7459
   45CHL1   C21 5788   4.648   2.858   9.086  0.1861 -0.3847 -0.2979
   45CHL1  H21A 5789   4.723   2.805   9.148  2.8608 -0.0708 -3.0086
   45CHL1  H21B 5790   4.671   2.966   9.076  1.1901 -0.6256 -0.6986
   45CHL1  H21C 5791   4.654   2.815   8.984  2.0233  2.6636 -1.6362
   45CHL1   C22 5792   4.400   2.902   9.065 -0.0603  0.1686  0.5887
   45CHL1  H22A 5793   4.302   2.883   9.115 -1.4353  1.5196 -1.4557
   45CHL1  H22B 5794   4.416   3.007   9.034 -1.7835 -0.3707 -2.4726
   45CHL1   C23 5795   4.376   2.815   8.939 -0.1225 -0.5284  0.4380
   45CHL1  H23A 5796   4.463   2.833   8.872 -0.6259 -0.1822 -0.1326
   45CHL1  H23B 5797   4.384   2.708   8.967 -2.3681 -0.5691  1.1661
   45CHL1   C24 5798   4.235   2.826   8.873 -0.1114 -0.0138  0.1868
   45CHL1  H24A 5799   4.234   2.769   8.778  0.2581  0.0628  0.1375
   45CHL1  H24B 5800   4.149   2.790   8.934  0.4589 -0.4557  0.7457
   45CHL1   C25 5801   4.208   2.973   8.834 -0.7861  0.5744 -0.7223
   45CHL1   H25 5802   4.199   3.037   8.924 -1.9895 -1.2804  0.5265
   45CHL1   C26 5803   4.323   3.036   8.748  0.3580 -0.0132 -0.7949
   45CHL1  H26A 5804   4.304   3.145   8.734  0.2687  0.5002  2.5095
   45CHL1  H26B 5805   4.419   3.029   8.804  0.0774  0.4389 -0.2430
   45CHL1  H26C 5806   4.321   2.977   8.654 -1.0369  0.1168 -0.8700
   45CHL1   C27 5807   4.081   2.985   8.764  0.5836 -0.2236 -0.3744
   45CHL1  H27A 5808   3.991   2.958   8.824 -1.2568 -1.5122 -3.4250
   45CHL1  H27B 5809   4.060   3.091   8.735  0.1151  0.6119  2.6581
   45CHL1  H27C 5810   4.070   2.913   8.680  2.7521 -1.0058 -0.0483
   46CHL1    C3 5811   5.144   6.268  10.175  0.6875  0.0481  0.4956
   46CHL1    H3 5812   5.179   6.360  10.124  1.0195 -0.9549 -1.1868
   46CHL1    O3 5813   5.161   6.263  10.316 -0.1776 -0.1686 -0.4790
   46CHL1   H3' 5814   5.149   6.350  10.354 -0.1347 -0.1051 -0.6083
   46CHL1    C4 5815   4.992   6.264  10.136 -0.6799 -0.5247 -0.3812
   46CHL1   H4A 5816   4.953   6.174  10.189  2.0796 -1.1064  0.8549
   46CHL1   H4B 5817   4.955   6.360  10.177  1.9419 -0.0355  1.1024
   46CHL1    C5 5818   4.974   6.251   9.985  0.0497 -0.7957 -0.1821
   46CHL1    C6 5819   4.889   6.333   9.919 -0.7622 -0.5178 -0.2278
   46CHL1    H6 5820   4.840   6.416   9.973  1.1761  0.8546 -0.4948
   46CHL1    C7 5821   4.860   6.328   9.774  0.5702 -0.2070  0.2073
   46CHL1   H7A 5822   4.751   6.323   9.749  0.3159 -1.0173  1.4110
   46CHL1   H7B 5823   4.907   6.419   9.731  0.8256  0.1244  1.1687
   46CHL1    C8 5824   4.925   6.205   9.699  0.4605 -0.3529 -0.5590
   46CHL1    H8 5825   4.855   6.119   9.707  0.2437  0.0106  4.3838
   46CHL1   C14 5826   4.943   6.235   9.547  1.0879  0.0320 -0.6976
   46CHL1   H14 5827   5.010   6.323   9.536  2.5589 -0.9466  0.0144
   46CHL1   C15 5828   4.822   6.289   9.465 -0.2116 -0.7833  0.7664
   46CHL1  H15A 5829   4.730   6.232   9.489 -0.2503 -0.6428  0.9543
   46CHL1  H15B 5830   4.813   6.395   9.498 -1.3802 -1.0487  1.3504
   46CHL1   C16 5831   4.868   6.264   9.319  0.2502  1.0930 -0.3791
   46CHL1  H16A 5832   4.792   6.200   9.268  0.0313 -0.2485  1.5191
   46CHL1  H16B 5833   4.874   6.363   9.270 -1.5978  1.4603  0.0402
   46CHL1   C17 5834   5.009   6.188   9.326 -0.1306 -0.4112 -0.9368
   46CHL1   H17 5835   5.082   6.270   9.341 -1.4947  0.3779  2.2622
   46CHL1   C13 5836   5.004   6.119   9.469  0.1748 -0.2540  0.7270
   46CHL1   C18 5837   4.906   6.002   9.464 -0.2690  0.4307 -0.9078
   46CHL1  H18A 5838   4.909   5.960   9.566  2.3620  1.6359 -0.4153
   46CHL1  H18B 5839   4.802   6.034   9.440 -0.7641 -1.5826 -1.6999
   46CHL1  H18C 5840   4.933   5.929   9.384 -0.5346 -0.6558 -0.0354
   46CHL1   C12 5841   5.142   6.087   9.529 -0.1005 -0.6875  0.1146
   46CHL1  H12A 5842   5.200   6.001   9.488 -0.3517 -2.1186  2.5646
   46CHL1  H12B 5843   5.198   6.182   9.527 -1.2821  0.0917  1.8210
   46CHL1   C11 5844   5.128   6.056   9.679  0.6609 -0.0524 -0.4204
   46CHL1  H11A 5845   5.072   5.962   9.696 -2.1833  1.1893 -2.2692
   46CHL1  H11B 5846   5.229   6.029   9.718  0.3998  1.3296  1.3500
   46CHL1    C9 5847   5.057   6.170   9.763  0.1150  0.0716 -0.2785
   46CHL1    H9 5848   5.119   6.262   9.757  0.0552  0.0110 -3.5425
   46CHL1   C10 5849   5.051   6.136   9.918  0.0379  0.0562  0.1735
   46CHL1   C19 5850   4.976   6.007   9.952 -0.2486 -0.3190 -0.7173
   46CHL1  H19A 5851   5.010   5.912   9.905  0.1803 -2.3331  3.2265
   46CHL1  H19B 5852   4.984   5.992  10.061  0.4285  1.2868 -0.5136
   46CHL1  H19C 5853   4.870   6.019   9.922 -0.7074 -1.2200  0.4731
   46CHL1    C1 5854   5.196   6.132   9.967 -0.5463  0.0764 -0.2929
   46CHL1   H1A 5855   5.242   6.032   9.950 -1.8253 -0.3361 -1.5410
   46CHL1   H1B 5856   5.257   6.212   9.920  0.8351 -1.3454 -1.0515
   46CHL1    C2 5857   5.210   6.143  10.121 -0.3399  0.3107 -0.0832
   46CHL1   H2A 5858   5.314   6.142  10.158 -0.3115  2.6181  0.0209
   46CHL1   H2B 5859   5.162   6.057  10.173 -0.5945  0.4497 -0.0854
   46CHL1   C20 5860   5.038   6.101   9.200  0.0523 -0.6424 -0.0136
   46CHL1   H20 5861   4.982   6.005   9.200 -0.9425 -0.0782  0.1989
   46CHL1   C21 5862   5.189   6.056   9.211  0.2172 -0.2039 -0.4704
   46CHL1  H21A 5863   5.225   6.039   9.108 -0.2590  2.3996 -1.1290
   46CHL1  H21B 5864   5.208   5.967   9.276  0.0258 -0.3703 -0.6379
   46CHL1  H21C 5865   5.244   6.142   9.253 -0.4668  0.1250 -0.2236
   46CHL1   C22 5866   5.002   6.173   9.069 -0.1322 -0.1340 -0.2891
   46CHL1  H22A 5867   5.034   6.111   8.983 -1.8207 -0.8631 -0.4363
   46CHL1  H22B 5868   4.891   6.167   9.061 -0.1396  0.7444 -1.0081
   46CHL1   C23 5869   5.059   6.311   9.057  0.1472 -0.0479 -0.3740
   46CHL1  H23A 5870   5.055   6.362   9.156 -2.9194 -0.6974 -0.0737
   46CHL1  H23B 5871   5.164   6.305   9.020  0.5536 -3.7862  0.9539
   46CHL1   C24 5872   4.980   6.412   8.970 -0.0502 -0.7328  0.0281
   46CHL1  H24A 5873   4.878   6.418   9.012  0.3633  2.1412  0.8509
   46CHL1  H24B 5874   5.015   6.517   8.978  0.9181 -0.3880 -5.0837
   46CHL1   C25 5875   4.962   6.374   8.826 -0.2242  0.7261 -0.5161
   46CHL1   H25 5876   4.908   6.278   8.814  0.9522 -0.1086  0.5608
   46CHL1   C26 5877   4.887   6.484   8.752 -0.2177  0.4804 -0.1183
   46CHL1  H26A 5878   4.855   6.425   8.663  0.6084  0.6608 -0.5444
   46CHL1  H26B 5879   4.797   6.509   8.812 -1.1935 -0.4365 -1.1488
   46CHL1  H26C 5880   4.946   6.573   8.721  0.9968 -0.5286 -0.8071
   46CHL1   C27 5881   5.098   6.365   8.752 -0.1998 -0.5942  0.1329
   46CHL1  H27A 5882   5.136   6.265   8.781  2.2000  0.9431  2.7667
   46CHL1  H27B 5883   5.082   6.389   8.644 -0.7002  0.0632  0.3486
   46CHL1  H27C 5884   5.164   6.445   8.790  0.4014 -0.0514 -1.9098
   47CHL1    C3 5885   6.712   2.781   9.969 -0.6436 -0.6265  0.0278
   47CHL1    H3 5886   6.821   2.795   9.952 -0.8165 -1.2503 -1.9225
   47CHL1    O3 5887   6.669   2.844  10.088  0.3172  0.4442  0.1948
   47CHL1   H3' 5888   6.671   2.767  10.146  1.3482  0.8087  0.6634
   47CHL1    C4 5889   6.628   2.834   9.843 -0.6906  0.1949 -0.6306
   47CHL1   H4A 5890   6.521   2.837   9.873 -0.9584 -0.2126 -1.4977
   47CHL1   H4B 5891   6.656   2.940   9.826  0.1239 -0.1450 -1.5187
   47CHL1    C5 5892   6.640   2.756   9.718 -0.2642 -0.1009 -0.5524
   47CHL1    C6 5893   6.659   2.818   9.599  0.5739  0.3078  0.5533
   47CHL1    H6 5894   6.651   2.928   9.588  0.5924  0.5113  2.1890
   47CHL1    C7 5895   6.677   2.744   9.463 -0.8264 -0.2237  0.2595
   47CHL1   H7A 5896   6.633   2.794   9.374  1.1126 -0.1501 -0.7138
   47CHL1   H7B 5897   6.783   2.741   9.429 -1.2609 -1.6904 -1.1422
   47CHL1    C8 5898   6.629   2.596   9.462  0.0883  0.2595 -0.2568
   47CHL1    H8 5899   6.519   2.598   9.478  0.3419 -0.0949  1.8294
   47CHL1   C14 5900   6.687   2.510   9.346 -0.3618 -0.0928 -0.2465
   47CHL1   H14 5901   6.797   2.498   9.358 -0.2116  1.6503  0.3646
   47CHL1   C15 5902   6.673   2.561   9.207 -0.0173 -0.0231 -0.0162
   47CHL1  H15A 5903   6.571   2.604   9.200 -0.7868 -1.1844  2.7820
   47CHL1  H15B 5904   6.746   2.638   9.174 -1.3558  0.5102 -1.9392
   47CHL1   C16 5905   6.695   2.432   9.117 -0.8912 -0.1299  0.2614
   47CHL1  H16A 5906   6.621   2.426   9.035 -0.5606  0.0990 -0.0534
   47CHL1  H16B 5907   6.796   2.433   9.072 -0.5983 -2.3596  0.7868
   47CHL1   C17 5908   6.700   2.312   9.216 -0.1326  0.1586  0.2112
   47CHL1   H17 5909   6.807   2.291   9.241 -0.7460 -3.5596  0.2273
   47CHL1   C13 5910   6.638   2.365   9.345 -0.1965 -0.2799  0.0745
   47CHL1   C18 5911   6.483   2.356   9.335  0.4259  0.0840 -0.0093
   47CHL1  H18A 5912   6.433   2.405   9.422 -0.3970 -1.2546  0.3098
   47CHL1  H18B 5913   6.443   2.403   9.243 -1.1793 -0.1978  0.5015
   47CHL1  H18C 5914   6.451   2.250   9.338 -1.4968  0.5234 -2.2330
   47CHL1   C12 5915   6.676   2.300   9.476  0.0195  0.1104  0.7867
   47CHL1  H12A 5916   6.632   2.198   9.470  1.5363 -0.5721  0.9858
   47CHL1  H12B 5917   6.786   2.291   9.475  0.0275  0.1684  0.9856
   47CHL1   C11 5918   6.638   2.388   9.600  0.5160  0.8945 -0.1810
   47CHL1  H11A 5919   6.528   2.376   9.614  0.7154 -1.3989 -0.1257
   47CHL1  H11B 5920   6.683   2.329   9.683 -1.7751  0.2994  0.7210
   47CHL1    C9 5921   6.676   2.534   9.599  0.6332  0.3444 -0.5467
   47CHL1    H9 5922   6.787   2.538   9.597  0.7312  0.7107  2.2154
   47CHL1   C10 5923   6.633   2.606   9.734  0.2740 -0.8645 -0.2687
   47CHL1   C19 5924   6.490   2.563   9.780  0.4505 -0.5701  0.3995
   47CHL1  H19A 5925   6.407   2.573   9.706  1.1384 -0.2067 -0.3313
   47CHL1  H19B 5926   6.499   2.457   9.814  1.3182 -0.8853 -0.7766
   47CHL1  H19C 5927   6.466   2.612   9.877  0.4914 -1.8975  1.1119
   47CHL1    C1 5928   6.736   2.567   9.846 -0.4866  0.0381  0.3956
   47CHL1   H1A 5929   6.726   2.457   9.858 -3.4044 -0.0230 -1.6696
   47CHL1   H1B 5930   6.840   2.583   9.811 -0.7590 -1.9876 -1.5490
   47CHL1    C2 5931   6.708   2.629   9.982  0.5365 -0.4152 -0.3935
   47CHL1   H2A 5932   6.782   2.593  10.056 -2.8203 -1.9653  2.4941
   47CHL1   H2B 5933   6.608   2.597  10.019  0.6046  1.9863  2.1672
   47CHL1   C20 5934   6.648   2.183   9.152 -0.8901  0.2686  0.3152
   47CHL1   H20 5935   6.539   2.186   9.131 -1.0929  1.2140  1.3606
   47CHL1   C21 5936   6.680   2.055   9.238  0.1956  0.4927  0.1070
   47CHL1  H21A 5937   6.671   1.954   9.193 -3.5775  0.4246  0.7655
   47CHL1  H21B 5938   6.634   2.050   9.339  0.7425  0.7698  0.3740
   47CHL1  H21C 5939   6.790   2.060   9.256  0.3820 -2.1532  0.0943
   47CHL1   C22 5940   6.708   2.175   9.007  0.1534 -0.0884  0.1159
   47CHL1  H22A 5941   6.652   2.251   8.949  2.1878  0.2864 -1.4630
   47CHL1  H22B 5942   6.816   2.196   9.002 -0.2255  1.7310 -1.2040
   47CHL1   C23 5943   6.688   2.037   8.940 -0.5081  0.1614 -0.2042
   47CHL1  H23A 5944   6.754   1.961   8.988  0.0587  0.8606  0.1526
   47CHL1  H23B 5945   6.581   2.009   8.937 -1.0328  2.0335 -0.1035
   47CHL1   C24 5946   6.733   2.046   8.786 -0.3619  0.4203 -0.6345
   47CHL1  H24A 5947   6.649   2.102   8.738 -1.4523  0.5326  1.3112
   47CHL1  H24B 5948   6.819   2.116   8.778 -1.0728  1.3662 -0.2289
   47CHL1   C25 5949   6.750   1.917   8.711 -0.6185 -0.5730  0.1524
   47CHL1   H25 5950   6.835   1.863   8.757  2.1447  1.9650 -1.5439
   47CHL1   C26 5951   6.617   1.843   8.711  0.4010 -0.5839  0.0305
   47CHL1  H26A 5952   6.539   1.920   8.694 -1.4253 -2.3075  0.2206
   47CHL1  H26B 5953   6.590   1.808   8.813 -1.8091  2.0876  0.4806
   47CHL1  H26C 5954   6.603   1.765   8.633  0.4890 -0.9680  0.3923
   47CHL1   C27 5955   6.792   1.950   8.569 -0.2488 -0.5800  0.1335
   47CHL1  H27A 5956   6.901   1.952   8.547 -0.0498  2.2303  0.9490
   47CHL1  H27B 5957   6.741   1.877   8.503 -2.0511  0.2932  0.5066
   47CHL1  H27C 5958   6.751   2.046   8.530  0.2902  0.1617  1.3246
   48CHL1    C3 5959   2.472   2.083  10.117 -0.6523  0.1138 -0.5995
   48CHL1    H3 5960   2.362   2.076  10.125 -0.4634 -2.4822  0.7441
   48CHL1    O3 5961   2.528   2.062  10.246  0.5698 -0.0523  0.0120
   48CHL1   H3' 5962   2.487   2.125  10.306 -1.2913 -1.9419  0.8544
   48CHL1    C4 5963   2.508   1.958  10.029  0.6160  0.0672 -0.4964
   48CHL1   H4A 5964   2.608   1.927  10.067  0.5796  0.1362 -0.3432
   48CHL1   H4B 5965   2.441   1.874  10.054 -0.6597  1.6117  1.6353
   48CHL1    C5 5966   2.513   1.982   9.881 -0.9325  1.1038 -0.7679
   48CHL1    C6 5967   2.456   1.888   9.797  0.6867  0.2994 -0.4604
   48CHL1    H6 5968   2.416   1.798   9.847  0.7019  1.1072  1.0842
   48CHL1    C7 5969   2.450   1.899   9.648 -0.1459 -0.4319 -0.1798
   48CHL1   H7A 5970   2.482   1.804   9.599  1.8464 -0.8044  1.6720
   48CHL1   H7B 5971   2.348   1.926   9.614  0.2700  2.3559  0.5640
   48CHL1    C8 5972   2.542   2.016   9.597  0.5052  0.5399  0.6313
   48CHL1    H8 5973   2.645   1.974   9.599  0.0738 -0.6909 -0.8103
   48CHL1   C14 5974   2.505   2.057   9.449 -0.2531 -0.2960 -0.0267
   48CHL1   H14 5975   2.396   2.079   9.449 -0.5554 -1.3402 -2.9451
   48CHL1   C15 5976   2.509   1.947   9.336  0.3603 -0.1025  0.0270
   48CHL1  H15A 5977   2.606   1.896   9.321  0.2567 -0.9582  2.0067
   48CHL1  H15B 5978   2.432   1.871   9.360  0.2714  0.0253  0.1545
   48CHL1   C16 5979   2.466   2.027   9.210 -0.4610  0.7006 -0.1864
   48CHL1  H16A 5980   2.542   2.012   9.130 -0.3577  2.2758 -0.4278
   48CHL1  H16B 5981   2.360   2.016   9.179 -0.6128  1.5495 -0.0068
   48CHL1   C17 5982   2.491   2.179   9.250 -0.3587 -0.0797 -0.7460
   48CHL1   H17 5983   2.389   2.211   9.280  0.7393  1.6649  1.4251
   48CHL1   C13 5984   2.570   2.179   9.384 -0.2484 -0.2141  0.3084
   48CHL1   C18 5985   2.720   2.149   9.355 -0.0307  0.4853  0.2291
   48CHL1  H18A 5986   2.727   2.079   9.270  0.9258 -0.3400  0.9592
   48CHL1  H18B 5987   2.776   2.239   9.321  1.0770 -1.1209 -2.5412
   48CHL1  H18C 5988   2.767   2.097   9.441  1.6617 -1.2912 -1.6848
   48CHL1   C12 5989   2.543   2.293   9.484  0.5462  0.5616 -0.6111
   48CHL1  H12A 5990   2.595   2.382   9.442 -0.7734  0.7534 -1.9232
   48CHL1  H12B 5991   2.436   2.323   9.493  0.1772 -0.1196 -2.2974
   48CHL1   C11 5992   2.598   2.262   9.622 -0.0479 -0.4783 -0.1175
   48CHL1  H11A 5993   2.708   2.250   9.609  0.2550  1.5408  0.2546
   48CHL1  H11B 5994   2.578   2.348   9.690 -1.1982  0.4170 -1.5489
   48CHL1    C9 5995   2.530   2.141   9.682  0.3378  1.2903  0.5199
   48CHL1    H9 5996   2.422   2.162   9.692 -0.1221 -0.7045  0.1234
   48CHL1   C10 5997   2.574   2.110   9.829 -0.0813 -0.4338  0.6963
   48CHL1   C19 5998   2.731   2.104   9.838 -0.4817  0.3951  0.0128
   48CHL1  H19A 5999   2.765   2.207   9.814 -0.8349  0.7013  0.8261
   48CHL1  H19B 6000   2.778   2.088   9.937  1.7606  0.1715 -1.0116
   48CHL1  H19C 6001   2.779   2.035   9.764  1.0958 -2.9685  3.8118
   48CHL1    C1 6002   2.522   2.233   9.919 -0.1578  0.5076 -0.4578
   48CHL1   H1A 6003   2.580   2.323   9.891  1.4370 -0.5088 -0.5216
   48CHL1   H1B 6004   2.414   2.250   9.900 -0.0670  1.6403  0.0076
   48CHL1    C2 6005   2.540   2.214  10.066 -0.2171 -0.0615 -0.1170
   48CHL1   H2A 6006   2.516   2.305  10.124 -0.3925 -0.4061  0.3563
   48CHL1   H2B 6007   2.649   2.202  10.082 -0.0727 -0.9948 -1.5703
   48CHL1   C20 6008   2.527   2.265   9.124 -0.0345 -0.3977  0.9405
   48CHL1   H20 6009   2.629   2.233   9.093  0.6729  3.0660 -0.8100
   48CHL1   C21 6010   2.519   2.407   9.152 -0.9978 -0.6274 -1.0863
   48CHL1  H21A 6011   2.429   2.430   9.213  1.1662 -0.3400  2.3054
   48CHL1  H21B 6012   2.532   2.479   9.069 -2.4560  0.5305 -0.3538
   48CHL1  H21C 6013   2.592   2.438   9.230 -1.4195  1.3844 -1.4438
   48CHL1   C22 6014   2.421   2.243   9.012  0.3662 -0.1719  0.4801
   48CHL1  H22A 6015   2.424   2.135   8.988  0.5679 -0.6220  2.3583
   48CHL1  H22B 6016   2.318   2.272   9.042  0.5787  0.7636  0.3581
   48CHL1   C23 6017   2.449   2.332   8.887 -0.1832 -0.1972 -0.2092
   48CHL1  H23A 6018   2.403   2.432   8.904 -0.8004 -0.6080  0.6180
   48CHL1  H23B 6019   2.559   2.331   8.871 -0.0865 -0.4781  0.4214
   48CHL1   C24 6020   2.378   2.272   8.762 -0.1192 -0.1848 -0.1448
   48CHL1  H24A 6021   2.417   2.170   8.782 -1.3376 -0.9490 -1.5149
   48CHL1  H24B 6022   2.267   2.275   8.768 -0.2275  1.4025 -1.8591
   48CHL1   C25 6023   2.430   2.330   8.625 -0.0751  0.3328  0.8791
   48CHL1   H25 6024   2.541   2.327   8.634 -0.0789 -1.4865  0.6420
   48CHL1   C26 6025   2.384   2.230   8.516  0.1161  0.1036  0.2084
   48CHL1  H26A 6026   2.274   2.220   8.521  0.2658 -2.6439 -0.0548
   48CHL1  H26B 6027   2.418   2.263   8.415  0.8498 -0.1015  0.3756
   48CHL1  H26C 6028   2.440   2.134   8.528  2.5285  1.4000 -0.0115
   48CHL1   C27 6029   2.386   2.470   8.594  0.1865 -0.1982  0.2524
   48CHL1  H27A 6030   2.427   2.482   8.492 -1.0592 -3.4233 -0.7525
   48CHL1  H27B 6031   2.275   2.473   8.589  0.1471 -2.2098 -1.9434
   48CHL1  H27C 6032   2.439   2.546   8.656  1.5195 -1.0314  0.1867
   49CHL1    C3 6033   0.203   4.819  10.039  0.8036  0.0449  0.3799
   49CHL1    H3 6034   0.215   4.708  10.032 -1.1173 -0.3692  2.5972
   49CHL1    O3 6035   0.215   4.849  10.176 -0.4849 -0.0630  0.3177
   49CHL1   H3' 6036   0.182   4.939  10.185  1.9960  1.1070 -1.0130
   49CHL1    C4 6037   0.317   4.887   9.960  0.5016  0.0887  0.1249
   49CHL1   H4A 6038   0.317   4.997   9.976  0.5156  0.5824 -2.8002
   49CHL1   H4B 6039   0.410   4.851  10.010 -0.3079 -2.7740 -0.2397
   49CHL1    C5 6040   0.314   4.876   9.806  0.6887  0.7302 -0.7201
   49CHL1    C6 6041   0.423   4.838   9.743 -0.6523 -0.8503 -0.6157
   49CHL1    H6 6042   0.511   4.823   9.807 -1.8889  2.0065  1.9825
   49CHL1    C7 6043   0.422   4.820   9.593 -0.1148  0.0957 -0.0714
   49CHL1   H7A 6044   0.514   4.863   9.548 -1.0099  2.3273  0.0820
   49CHL1   H7B 6045   0.407   4.710   9.586 -2.5396  0.1215  2.5595
   49CHL1    C8 6046   0.299   4.889   9.519  0.2347  0.1048  0.0416
   49CHL1    H8 6047   0.320   4.998   9.520 -0.6180  0.2776 -0.2837
   49CHL1   C14 6048   0.284   4.836   9.379  0.5667 -0.6269  0.4084
   49CHL1   H14 6049   0.270   4.728   9.403  0.0526 -1.0667 -1.6679
   49CHL1   C15 6050   0.410   4.850   9.290 -0.5060 -0.1679 -0.0949
   49CHL1  H15A 6051   0.447   4.955   9.288  2.2096 -1.0797 -1.1060
   49CHL1  H15B 6052   0.483   4.774   9.323  0.8296  1.8856  1.9476
   49CHL1   C16 6053   0.349   4.822   9.151  0.2530  0.2561  0.4196
   49CHL1  H16A 6054   0.394   4.895   9.080 -0.9123 -0.8919 -1.6081
   49CHL1  H16B 6055   0.372   4.726   9.099  0.9033  0.9492 -0.6048
   49CHL1   C17 6056   0.189   4.817   9.167 -0.3279 -0.7666  0.3596
   49CHL1   H17 6057   0.159   4.712   9.185  1.0229 -1.4250 -0.9740
   49CHL1   C13 6058   0.167   4.889   9.298 -0.0061  0.2382 -0.3675
   49CHL1   C18 6059   0.170   5.043   9.282 -0.1288  0.3676  0.5472
   49CHL1  H18A 6060   0.188   5.104   9.373  1.4223 -0.4077  0.7775
   49CHL1  H18B 6061   0.257   5.075   9.221 -2.3600  3.1285 -1.4604
   49CHL1  H18C 6062   0.082   5.081   9.225  0.2298 -1.9710 -1.7445
   49CHL1   C12 6063   0.037   4.856   9.373 -0.4746  0.1075  0.1138
   49CHL1  H12A 6064  -0.058   4.882   9.322 -0.8248 -0.9944  0.1892
   49CHL1  H12B 6065   0.031   4.746   9.372  0.1239  0.0607 -1.9273
   49CHL1   C11 6066   0.036   4.906   9.522 -0.3386  0.0942  0.3813
   49CHL1  H11A 6067   0.021   5.016   9.508 -0.6760  0.3346  2.3665
   49CHL1  H11B 6068  -0.048   4.862   9.579  0.9978  0.1641  2.5318
   49CHL1    C9 6069   0.165   4.866   9.596  0.0670  0.3471  0.1742
   49CHL1    H9 6070   0.160   4.755   9.603 -0.7663  0.3953  0.4024
   49CHL1   C10 6071   0.178   4.912   9.745 -0.4091  0.4353 -0.5563
   49CHL1   C19 6072   0.162   5.063   9.744  0.9610  0.2260  0.4479
   49CHL1  H19A 6073   0.169   5.109   9.845 -1.8158  1.7674  0.0590
   49CHL1  H19B 6074   0.234   5.110   9.673  0.8493  2.0977  1.5214
   49CHL1  H19C 6075   0.058   5.082   9.709  1.5514 -0.6061 -1.9814
   49CHL1    C1 6076   0.063   4.845   9.823 -1.2272  0.2905  0.0810
   49CHL1   H1A 6077  -0.037   4.870   9.781 -1.3791  0.9549  0.8126
   49CHL1   H1B 6078   0.077   4.735   9.812  0.9661  0.7033 -1.9427
   49CHL1    C2 6079   0.065   4.859   9.977  0.0716  0.1412 -0.2697
   49CHL1   H2A 6080  -0.022   4.804  10.017  0.7663 -1.2151 -0.5466
   49CHL1   H2B 6081   0.045   4.962  10.013 -0.1537 -0.5118  1.5670
   49CHL1   C20 6082   0.100   4.873   9.051  0.0747 -0.1052 -0.9085
   49CHL1   H20 6083   0.029   4.952   9.083 -0.9795 -0.4043 -2.4410
   49CHL1   C21 6084   0.006   4.766   9.001 -0.1404 -0.6030 -0.7932
   49CHL1  H21A 6085  -0.069   4.811   8.932  0.4132  0.2214 -0.8709
   49CHL1  H21B 6086  -0.052   4.711   9.077  0.0518 -2.1637 -1.7285
   49CHL1  H21C 6087   0.072   4.699   8.942  0.2721  0.2000 -1.2683
   49CHL1   C22 6088   0.188   4.949   8.937 -0.0105  0.5305 -0.0216
   49CHL1  H22A 6089   0.268   5.012   8.981 -1.1987  0.7573  1.9224
   49CHL1  H22B 6090   0.238   4.878   8.868 -1.2550 -0.2592 -0.1466
   49CHL1   C23 6091   0.100   5.040   8.848 -0.0109  0.6702 -0.2156
   49CHL1  H23A 6092   0.014   4.981   8.811  1.0852 -1.5367  0.5915
   49CHL1  H23B 6093   0.062   5.120   8.916  1.0844  1.3533 -0.3907
   49CHL1   C24 6094   0.178   5.089   8.727  1.0625 -0.3132 -0.2378
   49CHL1  H24A 6095   0.278   5.134   8.743  0.2801  1.3768  0.1620
   49CHL1  H24B 6096   0.199   4.991   8.678  2.6665  0.1309 -0.4796
   49CHL1   C25 6097   0.117   5.182   8.621  0.5233  0.3621 -0.1104
   49CHL1   H25 6098   0.097   5.273   8.682  0.6687 -0.0368  0.5345
   49CHL1   C26 6099   0.220   5.226   8.513  0.0203  0.3889 -0.3122
   49CHL1  H26A 6100   0.168   5.304   8.453 -0.3457 -1.0358 -1.9164
   49CHL1  H26B 6101   0.316   5.269   8.549  2.0259 -3.1014 -1.0567
   49CHL1  H26C 6102   0.241   5.141   8.445 -0.3385  1.0012 -1.2056
   49CHL1   C27 6103  -0.014   5.133   8.560 -0.6246  0.6840  0.9704
   49CHL1  H27A 6104   0.004   5.041   8.501  1.0010  1.2109  0.5804
   49CHL1  H27B 6105  -0.089   5.112   8.639  1.1765  0.5485  2.7316
   49CHL1  H27C 6106  -0.060   5.208   8.493  2.1801  1.6628 -0.0265
   50CHL1    C3 6107   1.520   5.723  10.030  0.2571  0.2641  0.1351
   50CHL1    H3 6108   1.440   5.801  10.033 -2.4206 -2.2219 -1.5075
   50CHL1    O3 6109   1.571   5.702  10.162 -0.3742 -0.3364 -0.0291
   50CHL1   H3' 6110   1.495   5.704  10.220  0.5808  2.2245  1.2774
   50CHL1    C4 6111   1.469   5.588   9.981 -0.8997  0.1843 -0.0984
   50CHL1   H4A 6112   1.547   5.510   9.995 -2.8260 -2.0748 -1.3076
   50CHL1   H4B 6113   1.384   5.544  10.038 -1.2215 -0.5938 -1.1512
   50CHL1    C5 6114   1.416   5.591   9.843 -1.0123 -0.2582  0.6469
   50CHL1    C6 6115   1.288   5.564   9.809 -0.2030  0.1787 -0.1950
   50CHL1    H6 6116   1.217   5.531   9.886 -1.3701  1.9958 -0.4316
   50CHL1    C7 6117   1.241   5.560   9.666  0.4355  0.5160  0.2488
   50CHL1   H7A 6118   1.174   5.471   9.657 -0.1551  0.8229  1.3860
   50CHL1   H7B 6119   1.172   5.645   9.650  0.3674  0.4508  0.1926
   50CHL1    C8 6120   1.352   5.561   9.555  0.9015  0.3643  0.4947
   50CHL1    H8 6121   1.392   5.458   9.548  1.1545  0.4887  0.0425
   50CHL1   C14 6122   1.288   5.593   9.419 -0.1414  0.2951 -0.2439
   50CHL1   H14 6123   1.239   5.692   9.434 -3.6485 -1.0942 -1.5849
   50CHL1   C15 6124   1.170   5.504   9.360 -0.2990 -0.5451  0.0370
   50CHL1  H15A 6125   1.192   5.397   9.374 -2.7659 -1.1270 -0.1440
   50CHL1  H15B 6126   1.081   5.525   9.423  0.7124  3.1621  0.5201
   50CHL1   C16 6127   1.165   5.539   9.214  0.1391  0.0719 -0.2676
   50CHL1  H16A 6128   1.158   5.444   9.157 -0.9569  0.3717 -0.6466
   50CHL1  H16B 6129   1.075   5.596   9.183  1.7979  3.4630  0.6591
   50CHL1   C17 6130   1.295   5.622   9.190  0.0913  0.1674  0.2165
   50CHL1   H17 6131   1.274   5.729   9.210  1.8540  0.2518  1.8868
   50CHL1   C13 6132   1.388   5.592   9.305  1.3881  0.6475  0.0130
   50CHL1   C18 6133   1.445   5.453   9.282  0.1507  0.1808  0.3491
   50CHL1  H18A 6134   1.370   5.372   9.271  0.4931 -0.3248  1.6652
   50CHL1  H18B 6135   1.505   5.448   9.189  1.1589 -0.8659  1.0386
   50CHL1  H18C 6136   1.509   5.428   9.369 -0.0346 -0.0452  0.4212
   50CHL1   C12 6137   1.496   5.703   9.345 -0.0125  0.0892 -0.1680
   50CHL1  H12A 6138   1.574   5.721   9.269 -0.8184 -1.1342 -1.3263
   50CHL1  H12B 6139   1.439   5.799   9.350  0.1482  0.2094 -0.6323
   50CHL1   C11 6140   1.562   5.684   9.484 -0.5094 -0.1913 -0.2325
   50CHL1  H11A 6141   1.627   5.595   9.477 -2.6515 -1.7503 -1.8376
   50CHL1  H11B 6142   1.617   5.778   9.505 -1.3173  0.3860 -0.6340
   50CHL1    C9 6143   1.458   5.657   9.596 -0.0822  0.3597  0.3760
   50CHL1    H9 6144   1.403   5.753   9.597  0.3309  0.6219 -0.6570
   50CHL1   C10 6145   1.523   5.635   9.741  0.3587 -0.3006  0.3347
   50CHL1   C19 6146   1.627   5.522   9.724 -0.1077  0.6132  0.3391
   50CHL1  H19A 6147   1.588   5.445   9.654 -1.3874 -0.2805  1.9694
   50CHL1  H19B 6148   1.724   5.562   9.686 -1.1814  0.3914 -2.9592
   50CHL1  H19C 6149   1.658   5.470   9.818 -2.8520  1.1515  1.6214
   50CHL1    C1 6150   1.591   5.769   9.783 -0.3893 -0.6360 -0.2080
   50CHL1   H1A 6151   1.690   5.775   9.732  0.4181  0.1440  1.4053
   50CHL1   H1B 6152   1.519   5.850   9.759  0.9033  1.5810  2.7594
   50CHL1    C2 6153   1.628   5.775   9.933  0.5049 -0.0290 -1.0138
   50CHL1   H2A 6154   1.649   5.880   9.964 -1.9066 -0.2430  1.8061
   50CHL1   H2B 6155   1.719   5.716   9.957  0.2207 -0.8133 -1.8020
   50CHL1   C20 6156   1.347   5.607   9.048 -0.1631 -0.5228  0.4333
   50CHL1   H20 6157   1.364   5.498   9.030 -0.6233 -0.9390  2.3251
   50CHL1   C21 6158   1.475   5.692   9.018 -0.3442  0.9633 -0.1048
   50CHL1  H21A 6159   1.567   5.653   9.068  0.7996 -0.5070 -3.0807
   50CHL1  H21B 6160   1.458   5.795   9.056  0.3553 -0.6911  5.7007
   50CHL1  H21C 6161   1.499   5.695   8.910 -1.5914 -1.0260 -0.4878
   50CHL1   C22 6162   1.237   5.655   8.943 -0.8850 -0.2850  0.5090
   50CHL1  H22A 6163   1.147   5.591   8.953 -0.3490 -0.9301  1.3621
   50CHL1  H22B 6164   1.214   5.762   8.964 -1.7488 -0.7768  2.2278
   50CHL1   C23 6165   1.272   5.661   8.801  0.4043  0.3899  0.5115
   50CHL1  H23A 6166   1.339   5.744   8.768 -2.0412  1.4419 -2.2459
   50CHL1  H23B 6167   1.317   5.570   8.754 -1.0432  0.9061 -2.0731
   50CHL1   C24 6168   1.148   5.696   8.713 -0.3510 -0.1875 -0.8882
   50CHL1  H24A 6169   1.104   5.595   8.699  0.9762 -1.1021  1.0188
   50CHL1  H24B 6170   1.074   5.763   8.763 -1.0672 -0.6778 -1.2772
   50CHL1   C25 6171   1.194   5.740   8.572  0.4745  0.1238  0.0484
   50CHL1   H25 6172   1.274   5.672   8.536 -1.3661 -2.4335  0.5157
   50CHL1   C26 6173   1.079   5.721   8.468  0.6943 -0.6070 -0.2232
   50CHL1  H26A 6174   0.992   5.778   8.506  0.8692 -1.7294  2.0336
   50CHL1  H26B 6175   1.105   5.759   8.367  0.6805 -0.9023 -0.3379
   50CHL1  H26C 6176   1.050   5.614   8.476  0.2366 -0.3448  3.5271
   50CHL1   C27 6177   1.243   5.883   8.574 -0.6623  0.2617 -0.3081
   50CHL1  H27A 6178   1.156   5.952   8.574 -1.2995 -0.5143 -1.4075
   50CHL1  H27B 6179   1.311   5.908   8.659 -1.0582 -1.8855  0.7092
   50CHL1  H27C 6180   1.298   5.903   8.479  0.3232  0.6120  0.3173
   51CHL1    C3 6181   0.140   4.194  10.023 -0.4141  0.5277  0.3756
   51CHL1    H3 6182   0.249   4.217  10.016  0.1091 -1.1690  2.0928
   51CHL1    O3 6183   0.118   4.189  10.165 -0.4648  0.0974 -0.3099
   51CHL1   H3' 6184   0.028   4.157  10.171 -0.0261 -1.0693  0.5141
   51CHL1    C4 6185   0.056   4.303   9.962 -0.0815 -0.3417  0.3915
   51CHL1   H4A 6186  -0.051   4.289   9.988  0.3223 -0.4917  2.1691
   51CHL1   H4B 6187   0.088   4.397  10.012  0.9744 -0.1442 -0.6197
   51CHL1    C5 6188   0.080   4.321   9.814  0.1963  0.3769 -0.1772
   51CHL1    C6 6189   0.126   4.436   9.759 -0.3993 -0.1844 -0.4667
   51CHL1    H6 6190   0.128   4.527   9.820 -1.0427 -0.8606  0.6043
   51CHL1    C7 6191   0.161   4.450   9.611 -0.1950 -0.0546  0.5089
   51CHL1   H7A 6192   0.140   4.556   9.586 -3.2027 -0.4812  0.9182
   51CHL1   H7B 6193   0.271   4.441   9.598 -0.5919 -2.8815 -1.9727
   51CHL1    C8 6194   0.107   4.329   9.532 -0.7097  0.1552 -0.6020
   51CHL1    H8 6195  -0.002   4.345   9.515 -0.2955  2.2518 -1.7289
   51CHL1   C14 6196   0.175   4.322   9.394 -0.1551 -0.1104  0.7459
   51CHL1   H14 6197   0.280   4.291   9.410 -0.4708 -1.6825 -0.0058
   51CHL1   C15 6198   0.188   4.459   9.315 -0.6652  0.6668 -0.0347
   51CHL1  H15A 6199   0.095   4.521   9.315 -0.2697  1.2947 -1.7707
   51CHL1  H15B 6200   0.272   4.515   9.362 -1.2277  0.3814  1.3775
   51CHL1   C16 6201   0.226   4.420   9.174  0.1845 -0.0673  0.7462
   51CHL1  H16A 6202   0.146   4.467   9.112  1.4559  1.6560  0.3328
   51CHL1  H16B 6203   0.326   4.455   9.139 -0.4304 -0.4537 -1.5779
   51CHL1   C17 6204   0.218   4.264   9.170 -0.8666 -0.0113  0.0926
   51CHL1   H17 6205   0.316   4.227   9.206 -0.1448 -0.3982 -2.0830
   51CHL1   C13 6206   0.127   4.222   9.289  0.6623 -0.8943 -0.5004
   51CHL1   C18 6207  -0.017   4.244   9.243 -0.1309 -0.0224  0.1261
   51CHL1  H18A 6208  -0.081   4.262   9.331 -0.3033 -1.1996  0.2654
   51CHL1  H18B 6209  -0.032   4.340   9.190 -2.0743  0.3272  1.2673
   51CHL1  H18C 6210  -0.055   4.163   9.177  0.1753  0.5130 -0.7301
   51CHL1   C12 6211   0.150   4.091   9.361  0.6169 -0.0092  1.3889
   51CHL1  H12A 6212   0.118   4.007   9.296 -0.1308  1.8689 -0.7788
   51CHL1  H12B 6213   0.259   4.076   9.375  1.2375  0.8180 -1.8522
   51CHL1   C11 6214   0.085   4.085   9.502  0.1639  0.0394  0.0255
   51CHL1  H11A 6215  -0.023   4.079   9.477  0.2480  1.5519 -0.8091
   51CHL1  H11B 6216   0.119   3.990   9.548 -0.1898 -0.0329  0.1471
   51CHL1    C9 6217   0.130   4.194   9.600  0.4050 -0.0689 -0.2558
   51CHL1    H9 6218   0.239   4.184   9.615  0.6508 -1.3347 -2.5487
   51CHL1   C10 6219   0.062   4.184   9.733  0.6220 -0.1928 -0.6071
   51CHL1   C19 6220  -0.092   4.166   9.724  0.2503  0.0749  0.5706
   51CHL1  H19A 6221  -0.136   4.182   9.824  0.0607 -1.1415  0.7034
   51CHL1  H19B 6222  -0.138   4.248   9.665  0.3216 -0.7987 -0.7530
   51CHL1  H19C 6223  -0.121   4.078   9.663 -1.3126  0.6412  0.4565
   51CHL1    C1 6224   0.121   4.065   9.805 -0.0748  0.4363  0.4464
   51CHL1   H1A 6225   0.079   3.973   9.760  1.3672  0.5765 -1.2931
   51CHL1   H1B 6226   0.229   4.060   9.781 -0.0538  0.6440  0.4940
   51CHL1    C2 6227   0.119   4.053   9.961 -0.6424 -0.7589 -0.0711
   51CHL1   H2A 6228   0.196   3.979   9.991 -0.3521 -1.1916 -1.7853
   51CHL1   H2B 6229   0.019   4.015   9.992 -0.1642 -1.3353  0.8174
   51CHL1   C20 6230   0.199   4.207   9.030 -0.4353 -0.0056  0.7927
   51CHL1   H20 6231   0.091   4.226   9.012  0.0480  3.4993  0.9420
   51CHL1   C21 6232   0.225   4.060   9.029  0.5491 -0.1499 -0.0002
   51CHL1  H21A 6233   0.203   4.017   8.929  1.6255 -2.6119  0.7412
   51CHL1  H21B 6234   0.167   4.010   9.109  1.4389  0.5275  1.1081
   51CHL1  H21C 6235   0.334   4.053   9.051  1.0108  4.1480 -0.1032
   51CHL1   C22 6236   0.289   4.276   8.924 -0.3497 -0.5630  0.6204
   51CHL1  H22A 6237   0.261   4.382   8.909 -1.0234 -0.8452 -0.1534
   51CHL1  H22B 6238   0.393   4.262   8.960 -0.8446 -0.9020  1.9921
   51CHL1   C23 6239   0.262   4.218   8.776 -0.3280 -0.0220 -0.2400
   51CHL1  H23A 6240   0.273   4.107   8.776  0.9123  0.0874 -0.4901
   51CHL1  H23B 6241   0.160   4.253   8.751  0.0097  0.9646 -0.2877
   51CHL1   C24 6242   0.361   4.280   8.676 -0.3600 -0.1111  0.0431
   51CHL1  H24A 6243   0.358   4.391   8.677  0.3794 -0.0465  2.6147
   51CHL1  H24B 6244   0.464   4.262   8.714 -0.6688  0.7240  1.3249
   51CHL1   C25 6245   0.349   4.232   8.528  0.0051 -0.1903  0.4128
   51CHL1   H25 6246   0.238   4.232   8.513 -0.6625 -0.5689  4.2914
   51CHL1   C26 6247   0.427   4.325   8.433  0.2931 -0.0491  0.6380
   51CHL1  H26A 6248   0.533   4.292   8.432  1.1818  2.4806  2.6569
   51CHL1  H26B 6249   0.374   4.313   8.336  1.6800 -1.6801  0.0368
   51CHL1  H26C 6250   0.419   4.431   8.463  1.3928  0.3863 -0.5000
   51CHL1   C27 6251   0.378   4.083   8.503  0.0396  0.6208 -0.2175
   51CHL1  H27A 6252   0.355   4.056   8.398  0.1482 -0.9837  0.1562
   51CHL1  H27B 6253   0.487   4.068   8.513  0.1059 -0.4733 -2.1389
   51CHL1  H27C 6254   0.322   4.018   8.573 -0.6512  0.6554 -0.7319
   52CHL1    C3 6255   0.550   6.412   9.927 -0.2189  0.7683  0.1607
   52CHL1    H3 6256   0.447   6.403   9.884  0.2084 -2.1114 -0.4494
   52CHL1    O3 6257   0.558   6.370  10.058 -0.2060 -0.3172 -0.8297
   52CHL1   H3' 6258   0.507   6.427  10.116  1.3608  0.1355  0.1575
   52CHL1    C4 6259   0.629   6.315   9.842 -0.4988  0.1771 -0.5301
   52CHL1   H4A 6260   0.736   6.315   9.873 -0.5568  0.2690 -0.3264
   52CHL1   H4B 6261   0.584   6.215   9.855  2.2207 -1.3391 -1.8371
   52CHL1    C5 6262   0.611   6.352   9.692 -0.2570 -0.3878  0.4748
   52CHL1    C6 6263   0.553   6.272   9.608 -0.4355  0.2659 -0.3728
   52CHL1    H6 6264   0.519   6.179   9.657 -1.3330  1.6774  1.8061
   52CHL1    C7 6265   0.539   6.298   9.458  0.1518 -0.1467 -0.0711
   52CHL1   H7A 6266   0.582   6.204   9.417 -1.2629 -0.7954 -0.1384
   52CHL1   H7B 6267   0.433   6.286   9.428 -0.0623 -0.7305  0.8638
   52CHL1    C8 6268   0.619   6.421   9.405  0.2610 -0.2152 -0.2806
   52CHL1    H8 6269   0.722   6.381   9.400  1.9285  3.4349  1.2360
   52CHL1   C14 6270   0.568   6.464   9.275  0.1843  0.0323  0.1198
   52CHL1   H14 6271   0.464   6.499   9.294 -0.1032  0.5470 -2.1756
   52CHL1   C15 6272   0.555   6.357   9.166  0.1769  0.0183  0.4562
   52CHL1  H15A 6273   0.640   6.286   9.157 -1.2839 -1.7548  0.0650
   52CHL1  H15B 6274   0.460   6.300   9.174  0.9175 -1.2123  0.9418
   52CHL1   C16 6275   0.556   6.439   9.032  0.1508  0.0415  0.3323
   52CHL1  H16A 6276   0.640   6.409   8.965  1.4420  0.2640  1.8123
   52CHL1  H16B 6277   0.465   6.414   8.973 -0.0559  0.9113  0.2718
   52CHL1   C17 6278   0.570   6.588   9.076  0.7505  0.0785  0.7804
   52CHL1   H17 6279   0.472   6.634   9.099  1.4563  2.1381 -0.1101
   52CHL1   C13 6280   0.640   6.586   9.216 -0.5156  0.7599  0.2267
   52CHL1   C18 6281   0.789   6.547   9.182 -0.0392 -1.1005  1.2147
   52CHL1  H18A 6282   0.849   6.517   9.270 -0.1484 -2.4682  0.8529
   52CHL1  H18B 6283   0.808   6.467   9.106  2.3534 -1.5731  2.2130
   52CHL1  H18C 6284   0.840   6.636   9.139 -0.0940 -1.1907  0.9591
   52CHL1   C12 6285   0.626   6.709   9.319  0.1898 -0.5291  0.4511
   52CHL1  H12A 6286   0.682   6.796   9.277 -1.0694 -0.2250 -0.6667
   52CHL1  H12B 6287   0.519   6.739   9.318 -0.5060 -2.7746 -1.1621
   52CHL1   C11 6288   0.685   6.676   9.461  0.2975  0.1616  0.2732
   52CHL1  H11A 6289   0.792   6.660   9.440  0.0445  0.0985 -1.0738
   52CHL1  H11B 6290   0.680   6.759   9.535 -0.2682 -1.3280  1.9802
   52CHL1    C9 6291   0.620   6.539   9.512 -0.3594 -0.6427 -0.0366
   52CHL1    H9 6292   0.512   6.566   9.516 -0.3474 -0.7002  1.2975
   52CHL1   C10 6293   0.655   6.498   9.654 -0.9423 -0.0428  0.1093
   52CHL1   C19 6294   0.811   6.509   9.667 -0.1381  0.2861 -0.1784
   52CHL1  H19A 6295   0.866   6.436   9.605 -0.4275 -0.5533  0.5416
   52CHL1  H19B 6296   0.847   6.610   9.636  0.9512 -0.1835 -0.4580
   52CHL1  H19C 6297   0.854   6.488   9.767  2.1880 -0.8989 -1.3600
   52CHL1    C1 6298   0.591   6.589   9.761 -0.9602 -0.3154 -0.5730
   52CHL1   H1A 6299   0.652   6.682   9.756 -1.9828  0.4978  1.1715
   52CHL1   H1B 6300   0.489   6.621   9.732 -0.7234  0.6239 -0.4143
   52CHL1    C2 6301   0.604   6.548   9.913  0.1064 -0.3035  0.1968
   52CHL1   H2A 6302   0.549   6.619   9.978  0.9001  0.7988 -0.3127
   52CHL1   H2B 6303   0.712   6.548   9.938  0.4339  0.3657 -1.0836
   52CHL1   C20 6304   0.622   6.672   8.958  0.0277 -0.2847  0.5864
   52CHL1   H20 6305   0.712   6.627   8.909 -0.3156  0.1460 -0.4692
   52CHL1   C21 6306   0.669   6.813   9.004 -0.7154 -0.1634  0.8188
   52CHL1  H21A 6307   0.746   6.814   9.084 -1.4991  0.6686  1.5952
   52CHL1  H21B 6308   0.578   6.866   9.039 -0.7874  0.7122 -0.6088
   52CHL1  H21C 6309   0.711   6.862   8.914 -0.2788 -0.7058  0.7183
   52CHL1   C22 6310   0.521   6.674   8.840 -0.5398  0.3083  0.3059
   52CHL1  H22A 6311   0.502   6.571   8.805  1.8570 -0.1503  0.1996
   52CHL1  H22B 6312   0.424   6.719   8.871  0.4097  2.8704 -0.2021
   52CHL1   C23 6313   0.562   6.758   8.718 -0.0425 -0.7547 -0.2112
   52CHL1  H23A 6314   0.561   6.867   8.742 -0.5630 -0.7659 -0.1790
   52CHL1  H23B 6315   0.664   6.726   8.689  0.8687  0.2824  1.6433
   52CHL1   C24 6316   0.466   6.739   8.598 -0.0338 -0.5033 -0.2860
   52CHL1  H24A 6317   0.461   6.633   8.565 -2.4692  0.2287 -2.5770
   52CHL1  H24B 6318   0.369   6.787   8.622  0.9299  1.1213  0.6016
   52CHL1   C25 6319   0.497   6.825   8.472  0.7007 -0.6117 -0.1650
   52CHL1   H25 6320   0.608   6.825   8.466  0.6859  1.2540 -1.3036
   52CHL1   C26 6321   0.441   6.766   8.350 -0.7479  0.2400  1.1972
   52CHL1  H26A 6322   0.498   6.671   8.345 -1.6981 -0.3819  1.8667
   52CHL1  H26B 6323   0.333   6.740   8.357 -0.2080 -1.8229  3.0524
   52CHL1  H26C 6324   0.457   6.820   8.255  1.8706 -3.3965 -0.6422
   52CHL1   C27 6325   0.452   6.968   8.480  0.3821  0.3172 -0.0776
   52CHL1  H27A 6326   0.342   6.981   8.472  0.1974 -1.8369 -2.3892
   52CHL1  H27B 6327   0.486   7.017   8.574 -0.2098 -1.6604  1.2443
   52CHL1  H27C 6328   0.498   7.022   8.395 -0.0053  0.0883 -0.4387
   53CHL1    C3 6329   1.019   0.612   9.855  0.5618 -0.2675  0.6473
   53CHL1    H3 6330   1.073   0.515   9.860  1.6516  0.1438 -1.7262
   53CHL1    O3 6331   0.964   0.648   9.984  0.1978 -0.1266 -0.1260
   53CHL1   H3' 6332   0.934   0.739   9.976  0.4163 -0.0426  0.0140
   53CHL1    C4 6333   1.125   0.709   9.807 -0.2452  0.4733 -0.2725
   53CHL1   H4A 6334   1.088   0.811   9.829 -0.2684  0.4710 -0.3017
   53CHL1   H4B 6335   1.200   0.697   9.888 -0.0999  2.7326 -0.0166
   53CHL1    C5 6336   1.177   0.689   9.668 -0.3297 -0.5132 -0.3486
   53CHL1    C6 6337   1.307   0.695   9.641  0.1763  0.1476 -0.4077
   53CHL1    H6 6338   1.378   0.706   9.725  1.3299 -0.4965 -1.2713
   53CHL1    C7 6339   1.366   0.694   9.503 -0.3983 -0.4561  0.0196
   53CHL1   H7A 6340   1.451   0.765   9.493 -0.7712 -0.0174 -0.0558
   53CHL1   H7B 6341   1.405   0.593   9.476  1.5183  0.9481 -3.0933
   53CHL1    C8 6342   1.265   0.729   9.392  0.7189 -0.0228 -0.0552
   53CHL1    H8 6343   1.237   0.837   9.401  1.6239  0.2988 -0.9189
   53CHL1   C14 6344   1.314   0.704   9.252 -0.5835 -0.3909  0.4694
   53CHL1   H14 6345   1.324   0.593   9.255  1.5153 -0.2393  0.2871
   53CHL1   C15 6346   1.463   0.748   9.212 -0.2595 -0.1275 -0.0006
   53CHL1  H15A 6347   1.485   0.850   9.250  0.1744  0.7681 -2.4398
   53CHL1  H15B 6348   1.541   0.674   9.239  0.2814  0.6239  0.5583
   53CHL1   C16 6349   1.447   0.752   9.062 -0.6573 -0.1541  0.5436
   53CHL1  H16A 6350   1.474   0.853   9.022  0.6269 -0.2283  1.1775
   53CHL1  H16B 6351   1.515   0.678   9.016 -0.6090 -1.0450  1.9773
   53CHL1   C17 6352   1.298   0.724   9.005 -0.3514  0.0329 -0.4670
   53CHL1   H17 6353   1.295   0.615   8.983  0.8638 -0.3851  1.2270
   53CHL1   C13 6354   1.213   0.745   9.133  0.9379 -0.0622 -0.8137
   53CHL1   C18 6355   1.187   0.906   9.148  0.3713  0.4680  0.1081
   53CHL1  H18A 6356   1.134   0.926   9.244 -2.6204 -0.6506 -1.1857
   53CHL1  H18B 6357   1.284   0.961   9.148 -0.4406  1.9762 -0.7298
   53CHL1  H18C 6358   1.110   0.940   9.075  1.9950 -0.4676 -2.1555
   53CHL1   C12 6359   1.095   0.658   9.155 -0.3065  0.6861 -0.4898
   53CHL1  H12A 6360   1.012   0.678   9.084  1.3894  2.9718 -1.9478
   53CHL1  H12B 6361   1.121   0.554   9.124 -1.6438 -0.2158  1.2322
   53CHL1   C11 6362   1.036   0.676   9.301 -0.4540  0.3317 -0.4417
   53CHL1  H11A 6363   1.005   0.782   9.303 -0.0794  0.4651 -1.2717
   53CHL1  H11B 6364   0.954   0.603   9.317 -1.1609  0.7551 -1.9556
   53CHL1    C9 6365   1.142   0.645   9.415 -0.5948 -0.2519  0.2639
   53CHL1    H9 6366   1.160   0.535   9.419 -0.2336 -0.1827  0.6133
   53CHL1   C10 6367   1.075   0.681   9.559 -0.3144  0.2021  0.2688
   53CHL1   C19 6368   0.999   0.813   9.554  0.5169  0.2686  0.3338
   53CHL1  H19A 6369   0.971   0.841   9.658  1.5437 -0.3360  0.7874
   53CHL1  H19B 6370   1.058   0.893   9.504  1.5575 -0.2966  0.6205
   53CHL1  H19C 6371   0.905   0.797   9.498  1.6055 -2.0092 -0.9673
   53CHL1    C1 6372   0.975   0.569   9.603 -0.1639 -0.1184 -0.1557
   53CHL1   H1A 6373   0.887   0.575   9.536 -0.4901 -0.5629  0.2289
   53CHL1   H1B 6374   1.026   0.471   9.614 -2.0001 -0.8149  3.4472
   53CHL1    C2 6375   0.910   0.594   9.748 -0.3810  0.3254 -0.2964
   53CHL1   H2A 6376   0.848   0.508   9.782  0.4895 -1.2446 -2.4465
   53CHL1   H2B 6377   0.843   0.681   9.732  0.5657  1.1532  0.1452
   53CHL1   C20 6378   1.268   0.802   8.872 -0.0433 -0.6938  0.2810
   53CHL1   H20 6379   1.278   0.910   8.894 -1.7977 -0.8895  2.4596
   53CHL1   C21 6380   1.115   0.788   8.833 -0.0268  0.4586  0.2200
   53CHL1  H21A 6381   1.099   0.692   8.780 -1.2895  0.3555  0.7416
   53CHL1  H21B 6382   1.093   0.864   8.756  0.2758 -0.0891 -0.4139
   53CHL1  H21C 6383   1.040   0.799   8.914 -4.1309 -0.3577 -3.1387
   53CHL1   C22 6384   1.355   0.746   8.764  0.0335  0.8036 -0.0066
   53CHL1  H22A 6385   1.460   0.735   8.800 -0.7142  0.7320  2.3310
   53CHL1  H22B 6386   1.322   0.644   8.736 -0.3197  1.3336 -1.6259
   53CHL1   C23 6387   1.365   0.840   8.637 -0.3039  0.2080  0.3269
   53CHL1  H23A 6388   1.259   0.868   8.618 -0.8676 -1.0293  1.4796
   53CHL1  H23B 6389   1.415   0.934   8.669 -1.1368  0.3923  1.1440
   53CHL1   C24 6390   1.434   0.768   8.518  0.3158 -0.5287  0.1232
   53CHL1  H24A 6391   1.500   0.690   8.564  0.2731 -0.6389 -0.0026
   53CHL1  H24B 6392   1.367   0.704   8.457  0.9104  1.3301 -2.6458
   53CHL1   C25 6393   1.518   0.857   8.423  0.8728 -0.0290  0.5891
   53CHL1   H25 6394   1.588   0.915   8.486  0.2402 -0.7957  2.0635
   53CHL1   C26 6395   1.588   0.761   8.327 -0.0900 -0.1352  0.0119
   53CHL1  H26A 6396   1.656   0.821   8.262  0.7856 -0.0392  0.9845
   53CHL1  H26B 6397   1.649   0.690   8.388  0.4795  0.6584  0.3881
   53CHL1  H26C 6398   1.514   0.714   8.260 -2.7397  1.5137  1.6233
   53CHL1   C27 6399   1.431   0.952   8.347  0.2102 -0.4225  1.0072
   53CHL1  H27A 6400   1.499   1.018   8.289  0.8574  0.0215  2.2285
   53CHL1  H27B 6401   1.346   0.908   8.291  0.8766 -0.8857  0.3392
   53CHL1  H27C 6402   1.383   1.011   8.428  4.3159  0.2467  3.2447
   54CHL1    C3 6403   1.479   1.750  10.123 -0.3756  0.0569 -0.3863
   54CHL1    H3 6404   1.376   1.784  10.103  0.0314  2.2064  0.8534
   54CHL1    O3 6405   1.497   1.724  10.255 -0.4308 -0.7234 -0.2070
   54CHL1   H3' 6406   1.592   1.741  10.264 -0.9623  2.8943  0.2211
   54CHL1    C4 6407   1.509   1.620  10.039  0.4762 -0.0598  0.5714
   54CHL1   H4A 6408   1.615   1.587  10.046  0.3652 -0.5478 -0.0070
   54CHL1   H4B 6409   1.455   1.535  10.087  0.8600 -0.0128  1.1047
   54CHL1    C5 6410   1.489   1.637   9.888 -1.1900 -0.1382  0.6061
   54CHL1    C6 6411   1.402   1.562   9.823  0.4932  0.1040 -0.5148
   54CHL1    H6 6412   1.344   1.481   9.869  0.6551 -0.2235 -0.8935
   54CHL1    C7 6413   1.369   1.578   9.678 -0.5050 -0.5222  0.7065
   54CHL1   H7A 6414   1.371   1.481   9.623  2.3196  0.2263 -0.6769
   54CHL1   H7B 6415   1.268   1.624   9.670  0.1506  1.1313  1.4011
   54CHL1    C8 6416   1.476   1.668   9.610 -0.0886  0.6778 -0.6067
   54CHL1    H8 6417   1.570   1.610   9.602 -0.1763  0.5867 -0.9773
   54CHL1   C14 6418   1.422   1.707   9.472  0.0601 -0.3772 -0.1634
   54CHL1   H14 6419   1.329   1.762   9.495  0.1952 -0.2610  0.1227
   54CHL1   C15 6420   1.366   1.603   9.369 -0.8486  0.0244  0.0356
   54CHL1  H15A 6421   1.440   1.521   9.361 -1.0723 -0.3788  1.6361
   54CHL1  H15B 6422   1.275   1.550   9.404 -0.9135  0.2293  0.1828
   54CHL1   C16 6423   1.363   1.681   9.240 -1.1810 -0.4125 -0.8251
   54CHL1  H16A 6424   1.411   1.630   9.154 -1.0028 -0.6244 -0.6009
   54CHL1  H16B 6425   1.259   1.687   9.200  0.4853  2.7250 -5.6938
   54CHL1   C17 6426   1.436   1.819   9.261 -0.0741 -0.0620 -0.5437
   54CHL1   H17 6427   1.354   1.885   9.296 -2.3514 -1.8296 -2.2145
   54CHL1   C13 6428   1.511   1.801   9.395  0.1757 -0.0771  0.5213
   54CHL1   C18 6429   1.648   1.735   9.369 -0.1131 -0.0568  0.4568
   54CHL1  H18A 6430   1.644   1.656   9.290 -0.2745 -0.9592  1.3399
   54CHL1  H18B 6431   1.709   1.814   9.322 -0.7610  1.4534  2.0396
   54CHL1  H18C 6432   1.706   1.695   9.455 -1.4883  0.6041  1.7522
   54CHL1   C12 6433   1.533   1.925   9.479 -0.5496  0.0899 -0.5944
   54CHL1  H12A 6434   1.592   2.009   9.434  1.0035  0.0776  1.2698
   54CHL1  H12B 6435   1.434   1.973   9.495 -0.1984  1.2209 -1.5911
   54CHL1   C11 6436   1.607   1.889   9.610  0.6156 -0.8430 -0.6375
   54CHL1  H11A 6437   1.707   1.848   9.585  1.0039 -0.8131  0.7495
   54CHL1  H11B 6438   1.619   1.979   9.674 -0.1563 -0.9858 -0.2809
   54CHL1    C9 6439   1.513   1.794   9.695 -0.7464  0.3265  0.1279
   54CHL1    H9 6440   1.419   1.853   9.703  0.3908  2.4801 -1.4149
   54CHL1   C10 6441   1.564   1.759   9.831  0.0075 -0.3789  0.2350
   54CHL1   C19 6442   1.713   1.730   9.809  0.1240  0.3748  1.0609
   54CHL1  H19A 6443   1.761   1.826   9.782  0.5866 -0.5434 -1.6508
   54CHL1  H19B 6444   1.748   1.692   9.908 -0.7773  1.1136  1.6731
   54CHL1  H19C 6445   1.735   1.655   9.730  0.3066 -0.1116  1.5580
   54CHL1    C1 6446   1.550   1.881   9.922  0.5406 -0.2674 -0.1191
   54CHL1   H1A 6447   1.617   1.964   9.889  0.8288 -1.2379 -2.0472
   54CHL1   H1B 6448   1.451   1.932   9.916  1.4590  1.5252 -1.0915
   54CHL1    C2 6449   1.583   1.856  10.070 -0.0220 -0.3144  0.1282
   54CHL1   H2A 6450   1.583   1.945  10.137 -0.4370 -1.5654  1.8581
   54CHL1   H2B 6451   1.690   1.828  10.077  0.3940 -0.5234 -4.3371
   54CHL1   C20 6452   1.500   1.871   9.131  0.4532 -0.1283 -0.5803
   54CHL1   H20 6453   1.581   1.799   9.106  0.4518 -0.4327  0.2789
   54CHL1   C21 6454   1.557   2.013   9.154  0.2412  0.3812 -0.0024
   54CHL1  H21A 6455   1.474   2.086   9.165 -2.9226 -2.6402 -1.6159
   54CHL1  H21B 6456   1.620   2.037   9.065  1.7897 -0.5603  0.7872
   54CHL1  H21C 6457   1.622   2.019   9.244 -0.6637 -0.8462  0.7722
   54CHL1   C22 6458   1.386   1.866   9.020  0.5378 -0.4966  0.0024
   54CHL1  H22A 6459   1.354   1.763   8.994  2.5509 -0.7550 -1.7417
   54CHL1  H22B 6460   1.289   1.911   9.052 -0.9547 -2.9390 -0.8197
   54CHL1   C23 6461   1.436   1.917   8.886  0.1239  0.5893 -0.3283
   54CHL1  H23A 6462   1.481   2.019   8.891 -0.8615  0.9825  0.7589
   54CHL1  H23B 6463   1.520   1.848   8.863  0.6137  0.2476  2.2006
   54CHL1   C24 6464   1.331   1.907   8.781  0.7037 -0.1293 -0.4351
   54CHL1  H24A 6465   1.258   1.824   8.797 -0.6330  0.9363 -0.7836
   54CHL1  H24B 6466   1.283   2.007   8.793 -0.6482 -0.9953  2.1798
   54CHL1   C25 6467   1.392   1.894   8.636 -0.1328 -0.9980 -0.3477
   54CHL1   H25 6468   1.461   1.808   8.643 -1.0407 -1.7498 -0.4536
   54CHL1   C26 6469   1.276   1.872   8.531 -0.8487 -0.1642  0.5356
   54CHL1  H26A 6470   1.318   1.850   8.430 -0.4017 -0.8609  0.8613
   54CHL1  H26B 6471   1.216   1.784   8.563 -1.6261  0.7726  1.6801
   54CHL1  H26C 6472   1.207   1.958   8.530 -1.7521 -0.8754  0.1138
   54CHL1   C27 6473   1.476   2.012   8.590  0.6824 -0.2921  0.1242
   54CHL1  H27A 6474   1.404   2.096   8.583 -2.5836 -2.7807  1.5132
   54CHL1  H27B 6475   1.550   2.024   8.672 -1.2334 -1.3999  2.0920
   54CHL1  H27C 6476   1.535   1.998   8.497  2.7975  1.4455  1.0953
   55CHL1    C3 6477   1.529   1.159  10.230  0.2831  0.2586  0.1703
   55CHL1    H3 6478   1.447   1.229  10.201  2.1910  2.1684 -0.9526
   55CHL1    O3 6479   1.515   1.126  10.369 -0.2970 -0.7509  0.9184
   55CHL1   H3' 6480   1.465   1.199  10.405 -0.0900  0.2758 -0.7986
   55CHL1    C4 6481   1.522   1.039  10.129  0.3218 -1.3872 -0.1606
   55CHL1   H4A 6482   1.602   0.968  10.158  0.9665 -0.2207  0.9953
   55CHL1   H4B 6483   1.423   0.991  10.148  1.3871 -3.5678  0.1710
   55CHL1    C5 6484   1.540   1.080   9.988 -0.2020 -0.9630  0.7236
   55CHL1    C6 6485   1.452   1.034   9.900 -0.1830 -0.0976 -0.3065
   55CHL1    H6 6486   1.377   0.973   9.952 -0.1938  2.0872  2.5091
   55CHL1    C7 6487   1.448   1.065   9.757  1.0231 -0.1889  1.0897
   55CHL1   H7A 6488   1.415   0.973   9.704 -1.6855  0.5726  1.2939
   55CHL1   H7B 6489   1.376   1.145   9.730 -0.0235 -1.3643  0.2445
   55CHL1    C8 6490   1.591   1.108   9.710 -0.3496 -0.4938 -0.3352
   55CHL1    H8 6491   1.661   1.024   9.727 -1.9782 -2.0661 -1.1191
   55CHL1   C14 6492   1.596   1.163   9.568 -0.5725 -0.3748 -0.3542
   55CHL1   H14 6493   1.519   1.243   9.564 -1.1509 -0.2430  5.4891
   55CHL1   C15 6494   1.552   1.063   9.462  0.1651 -0.4434  0.3796
   55CHL1  H15A 6495   1.607   0.969   9.479  1.5489 -0.1400 -1.9325
   55CHL1  H15B 6496   1.443   1.043   9.471  0.1523 -0.0341  1.2618
   55CHL1   C16 6497   1.583   1.133   9.333  0.1356 -0.1909 -0.0091
   55CHL1  H16A 6498   1.613   1.065   9.251  1.4204 -0.6119  0.7736
   55CHL1  H16B 6499   1.490   1.177   9.291  1.5745  0.3711 -2.8595
   55CHL1   C17 6500   1.686   1.243   9.371  0.6508  0.1815  1.5908
   55CHL1   H17 6501   1.631   1.339   9.378  1.6180  0.6613  3.0978
   55CHL1   C13 6502   1.726   1.213   9.515  0.7619  0.0570  0.5094
   55CHL1   C18 6503   1.846   1.114   9.525  0.5686  0.5890  0.0657
   55CHL1  H18A 6504   1.835   1.048   9.614  2.8870  0.2754  0.1759
   55CHL1  H18B 6505   1.829   1.043   9.442  1.5982 -3.1271  2.7764
   55CHL1  H18C 6506   1.947   1.159   9.512  0.2712  1.0099 -0.8377
   55CHL1   C12 6507   1.753   1.335   9.600 -0.4479 -0.1972  0.2678
   55CHL1  H12A 6508   1.844   1.392   9.573 -0.3179 -0.8379 -0.7204
   55CHL1  H12B 6509   1.671   1.410   9.593  1.2431  1.7158  0.3700
   55CHL1   C11 6510   1.759   1.297   9.750 -0.0121 -0.3827 -0.6992
   55CHL1  H11A 6511   1.854   1.242   9.764  0.8916  0.6664 -2.4013
   55CHL1  H11B 6512   1.761   1.393   9.806 -0.3046  0.8359 -2.6758
   55CHL1    C9 6513   1.632   1.222   9.806 -0.4700  0.6883  0.7203
   55CHL1    H9 6514   1.548   1.295   9.805 -1.2391  0.3669 -5.7018
   55CHL1   C10 6515   1.649   1.172   9.956 -0.9192 -1.3669 -0.1387
   55CHL1   C19 6516   1.775   1.084   9.972 -0.0688  0.1596  0.5756
   55CHL1  H19A 6517   1.771   0.992   9.909 -2.0085  0.7183 -0.2092
   55CHL1  H19B 6518   1.871   1.132   9.945 -0.2792  1.6469  2.2638
   55CHL1  H19C 6519   1.787   1.058  10.079  0.1751 -0.7071  0.3457
   55CHL1    C1 6520   1.664   1.285  10.065  0.4262  0.2385 -0.1318
   55CHL1   H1A 6521   1.759   1.337  10.042  0.8307 -0.4532 -0.0556
   55CHL1   H1B 6522   1.580   1.356  10.049  2.2955  2.5435 -0.2888
   55CHL1    C2 6523   1.654   1.236  10.209  0.3057 -0.3859 -0.4804
   55CHL1   H2A 6524   1.653   1.316  10.287 -0.9798 -0.7604 -0.0715
   55CHL1   H2B 6525   1.745   1.174  10.223  1.4772  0.7774 -2.4910
   55CHL1   C20 6526   1.797   1.268   9.261  0.1560 -0.1826 -0.6663
   55CHL1   H20 6527   1.847   1.170   9.244  0.7323 -0.2491  1.2092
   55CHL1   C21 6528   1.902   1.372   9.309 -0.8189  0.6558 -0.3437
   55CHL1  H21A 6529   1.963   1.404   9.221 -1.6863  1.8725 -0.5282
   55CHL1  H21B 6530   1.960   1.323   9.389 -1.2368  0.9950  0.1749
   55CHL1  H21C 6531   1.846   1.460   9.349 -1.6981  0.0483 -0.2107
   55CHL1   C22 6532   1.743   1.304   9.128 -0.1283  0.9613  0.7747
   55CHL1  H22A 6533   1.654   1.241   9.111  1.2968 -0.6076 -1.4244
   55CHL1  H22B 6534   1.714   1.411   9.119 -2.9896  0.2223  0.4626
   55CHL1   C23 6535   1.828   1.246   9.006 -0.2205  0.4130  0.6396
   55CHL1  H23A 6536   1.936   1.264   9.022  1.0902 -3.4563 -2.3931
   55CHL1  H23B 6537   1.825   1.135   9.000  3.0411  0.2303  0.5972
   55CHL1   C24 6538   1.782   1.308   8.875  0.9332 -0.1618 -0.7259
   55CHL1  H24A 6539   1.672   1.315   8.867  1.0176  2.4650 -0.5297
   55CHL1  H24B 6540   1.824   1.410   8.884 -1.5518  0.8334  0.5564
   55CHL1   C25 6541   1.837   1.245   8.749  0.5968  0.3176  0.9820
   55CHL1   H25 6542   1.803   1.139   8.759 -0.4654  0.1262 -2.8745
   55CHL1   C26 6543   1.767   1.303   8.625 -0.0421  1.0810 -0.0512
   55CHL1  H26A 6544   1.804   1.251   8.534 -0.1190  3.0281 -1.2439
   55CHL1  H26B 6545   1.662   1.268   8.629  0.5150 -0.7936 -0.6660
   55CHL1  H26C 6546   1.781   1.413   8.626  3.3164  0.7621 -0.8341
   55CHL1   C27 6547   1.991   1.251   8.731 -0.1937 -0.5379 -0.2403
   55CHL1  H27A 6548   2.018   1.358   8.721 -0.7910 -0.4443 -0.9767
   55CHL1  H27B 6549   2.046   1.209   8.818  0.8572 -0.1249 -0.7022
   55CHL1  H27C 6550   2.023   1.194   8.641 -0.6771  1.2508 -1.5996
   56CHL1    C3 6551   1.104   5.806  10.064  0.1613  0.0466 -0.7683
   56CHL1    H3 6552   1.186   5.734  10.045 -0.4552 -1.0047  0.3993
   56CHL1    O3 6553   1.076   5.829  10.202 -0.4858 -0.0234 -0.8481
   56CHL1   H3' 6554   0.999   5.778  10.229 -0.7218 -0.5384 -2.4058
   56CHL1    C4 6555   1.159   5.942  10.016  0.0707  0.2934  0.4987
   56CHL1   H4A 6556   1.098   6.025  10.057 -0.4805  0.5855 -0.8506
   56CHL1   H4B 6557   1.259   5.958  10.063  0.8840 -1.6263 -0.4658
   56CHL1    C5 6558   1.164   5.958   9.864 -0.7788  0.0386  0.3384
   56CHL1    C6 6559   1.272   6.007   9.803 -0.3171  0.1282 -0.1591
   56CHL1    H6 6560   1.357   6.036   9.868 -1.4946  1.0337  1.0284
   56CHL1    C7 6561   1.271   6.055   9.659  0.4042  0.1044 -0.1465
   56CHL1   H7A 6562   1.305   6.161   9.657 -1.2718  0.6629 -1.4117
   56CHL1   H7B 6563   1.345   5.994   9.603 -0.0689  1.8691 -2.8334
   56CHL1    C8 6564   1.131   6.040   9.586  0.5363 -0.0789  0.4058
   56CHL1    H8 6565   1.070   6.131   9.603  1.6977  0.4628  1.8823
   56CHL1   C14 6566   1.148   6.027   9.431 -0.9155 -0.6022 -0.1074
   56CHL1   H14 6567   1.194   5.927   9.421 -0.2737 -0.2437 -0.8330
   56CHL1   C15 6568   1.244   6.129   9.366  0.1316  0.1115 -0.3721
   56CHL1  H15A 6569   1.214   6.232   9.394 -0.5360 -0.4833  1.1755
   56CHL1  H15B 6570   1.350   6.121   9.395  0.0980  0.0772 -0.2618
   56CHL1   C16 6571   1.229   6.102   9.213  0.8225 -0.4252  0.0304
   56CHL1  H16A 6572   1.224   6.200   9.160 -0.9610 -0.7820 -0.5242
   56CHL1  H16B 6573   1.318   6.041   9.187  0.6572 -1.0256  0.8238
   56CHL1   C17 6574   1.091   6.022   9.208 -0.4156  0.6391  0.5739
   56CHL1   H17 6575   1.113   5.916   9.183  3.3425  1.1357  1.0672
   56CHL1   C13 6576   1.028   6.021   9.346 -0.3247 -0.3621 -0.3112
   56CHL1   C18 6577   0.930   6.141   9.361 -0.5541 -0.4851 -0.4831
   56CHL1  H18A 6578   0.984   6.237   9.345  0.3311 -1.0495 -0.9408
   56CHL1  H18B 6579   0.841   6.136   9.295  1.5231 -1.2126 -3.4474
   56CHL1  H18C 6580   0.888   6.144   9.464 -0.1337  1.1173 -0.3256
   56CHL1   C12 6581   0.951   5.896   9.396 -0.0800  0.6660  0.4334
   56CHL1  H12A 6582   0.848   5.895   9.355 -0.3366  2.4255  0.9394
   56CHL1  H12B 6583   0.997   5.799   9.369 -0.7189  0.4292  0.1692
   56CHL1   C11 6584   0.929   5.891   9.558 -0.2827 -0.0305  0.3114
   56CHL1  H11A 6585   0.856   5.973   9.578  0.4819  0.9895 -0.9233
   56CHL1  H11B 6586   0.869   5.803   9.590 -0.9072 -0.1650 -1.1646
   56CHL1    C9 6587   1.060   5.915   9.634  0.5186  0.3217 -0.2915
   56CHL1    H9 6588   1.133   5.832   9.625  0.0708 -0.1633  0.3774
   56CHL1   C10 6589   1.033   5.923   9.790  0.5626  0.2074 -0.6534
   56CHL1   C19 6590   0.920   6.019   9.819 -0.1327  0.2784 -0.1607
   56CHL1  H19A 6591   0.939   6.122   9.780  0.9461  0.7076  1.3922
   56CHL1  H19B 6592   0.816   5.997   9.786 -0.5897  1.8158  0.1248
   56CHL1  H19C 6593   0.910   6.055   9.923  0.3089  0.8684 -0.3152
   56CHL1    C1 6594   0.987   5.781   9.844  0.1395  0.5050 -0.7336
   56CHL1   H1A 6595   0.892   5.747   9.800  0.5247 -0.8460 -0.5804
   56CHL1   H1B 6596   1.052   5.695   9.816 -3.2866 -2.2570 -0.8495
   56CHL1    C2 6597   0.974   5.782   9.997 -0.0713  0.7107  0.4830
   56CHL1   H2A 6598   0.933   5.686  10.036  0.8014 -0.2621 -0.8624
   56CHL1   H2B 6599   0.912   5.865  10.036 -0.8144 -0.1652  1.2109
   56CHL1   C20 6600   1.005   6.074   9.091 -1.1834  0.4477  0.0525
   56CHL1   H20 6601   0.979   6.181   9.107 -2.4839  0.2201 -0.4533
   56CHL1   C21 6602   0.879   5.986   9.087 -0.3234 -0.4847  0.5424
   56CHL1  H21A 6603   0.796   6.055   9.114  0.5144  1.5449 -1.6955
   56CHL1  H21B 6604   0.877   5.886   9.135 -0.8339 -0.4130  0.6739
   56CHL1  H21C 6605   0.858   5.956   8.982 -1.1860 -1.6610  1.0298
   56CHL1   C22 6606   1.081   6.053   8.960 -0.0053 -0.4680 -0.0098
   56CHL1  H22A 6607   1.180   6.101   8.971 -1.2396  2.2577  0.0927
   56CHL1  H22B 6608   1.101   5.945   8.944  2.6050  0.0134 -0.3553
   56CHL1   C23 6609   1.018   6.122   8.833 -0.0550 -0.2387  0.8542
   56CHL1  H23A 6610   1.076   6.086   8.745  1.0044  0.5945  1.1934
   56CHL1  H23B 6611   0.914   6.084   8.819  0.3826 -0.9506 -0.6392
   56CHL1   C24 6612   1.027   6.273   8.815 -0.2531 -0.7965  0.3891
   56CHL1  H24A 6613   1.019   6.334   8.907 -1.3392  1.4382 -1.1004
   56CHL1  H24B 6614   1.125   6.298   8.769  0.6581  0.4222  2.8155
   56CHL1   C25 6615   0.914   6.319   8.725  0.3351 -0.0181  0.6732
   56CHL1   H25 6616   0.824   6.272   8.770 -0.1252  0.4175  0.2158
   56CHL1   C26 6617   0.887   6.472   8.729  0.6353  0.6480 -0.1298
   56CHL1  H26A 6618   0.976   6.532   8.701 -0.4702  2.8208  0.7824
   56CHL1  H26B 6619   0.797   6.487   8.667 -0.8625 -2.6706  0.9728
   56CHL1  H26C 6620   0.848   6.496   8.830 -1.1607 -1.4628 -0.2388
   56CHL1   C27 6621   0.923   6.264   8.581  0.4299  0.1564 -0.1631
   56CHL1  H27A 6622   1.021   6.291   8.536  0.7501 -0.0098  0.4192
   56CHL1  H27B 6623   0.918   6.153   8.575 -0.7529  0.2343 -1.0446
   56CHL1  H27C 6624   0.845   6.310   8.518 -0.2136  2.0135  1.8793
   57CHL1    C3 6625   0.675   2.433  10.147  0.1375  0.0640  0.4679
   57CHL1    H3 6626   0.566   2.445  10.129  0.4657  2.1454 -0.4873
   57CHL1    O3 6627   0.708   2.400  10.280 -0.3746 -0.0682 -0.0694
   57CHL1   H3' 6628   0.682   2.477  10.331  0.7779  0.4759 -0.2749
   57CHL1    C4 6629   0.727   2.322  10.055 -0.0472 -0.0591 -0.2896
   57CHL1   H4A 6630   0.834   2.299  10.071  0.4135  1.3464 -1.2407
   57CHL1   H4B 6631   0.678   2.227  10.086 -0.9160  0.4899  0.0582
   57CHL1    C5 6632   0.716   2.353   9.902  0.1598 -0.5738 -0.4320
   57CHL1    C6 6633   0.663   2.267   9.813 -0.5545 -0.6410 -0.3401
   57CHL1    H6 6634   0.633   2.166   9.845  0.6284 -1.2649 -1.1042
   57CHL1    C7 6635   0.641   2.296   9.664 -0.4045 -0.6515  0.2264
   57CHL1   H7A 6636   0.648   2.207   9.598 -0.8501  0.6290 -1.6307
   57CHL1   H7B 6637   0.536   2.333   9.657  0.4606  1.7337 -1.5942
   57CHL1    C8 6638   0.733   2.414   9.623  0.1366  0.2564 -0.2008
   57CHL1    H8 6639   0.833   2.367   9.615  1.2928  2.0610  2.4320
   57CHL1   C14 6640   0.692   2.465   9.493 -0.1666  0.0248 -0.1943
   57CHL1   H14 6641   0.590   2.509   9.501 -0.0675 -0.0379  2.7025
   57CHL1   C15 6642   0.662   2.360   9.381  0.3984  0.3287  0.5231
   57CHL1  H15A 6643   0.745   2.289   9.364  2.1405  2.4970 -0.4363
   57CHL1  H15B 6644   0.570   2.301   9.404  0.1732  1.4908  2.9639
   57CHL1   C16 6645   0.653   2.455   9.255 -0.0051  0.2339  0.9217
   57CHL1  H16A 6646   0.726   2.411   9.184  0.7399  0.1149  1.7402
   57CHL1  H16B 6647   0.552   2.457   9.209  0.3486  0.0257  0.1137
   57CHL1   C17 6648   0.699   2.596   9.290 -0.1153 -0.2025  0.1781
   57CHL1   H17 6649   0.602   2.649   9.299  0.1318  0.4879 -1.0687
   57CHL1   C13 6650   0.772   2.574   9.427 -0.5490 -0.0441 -0.1399
   57CHL1   C18 6651   0.908   2.521   9.408  0.6422  0.0887  0.8915
   57CHL1  H18A 6652   0.908   2.421   9.359  1.8903 -1.3940  3.6843
   57CHL1  H18B 6653   0.967   2.588   9.343  0.4844  0.0604  0.7182
   57CHL1  H18C 6654   0.963   2.512   9.504  1.3137 -1.0664  0.4156
   57CHL1   C12 6655   0.765   2.697   9.519  0.6767 -0.7989  0.3913
   57CHL1  H12A 6656   0.845   2.768   9.489  1.3017 -1.0757  1.3715
   57CHL1  H12B 6657   0.670   2.754   9.520  0.9886 -0.2626 -0.1627
   57CHL1   C11 6658   0.790   2.653   9.657  0.2110 -0.0201  0.2008
   57CHL1  H11A 6659   0.901   2.648   9.656  0.3351 -1.6714 -4.8123
   57CHL1  H11B 6660   0.767   2.740   9.723  1.4954  0.0926  0.5231
   57CHL1    C9 6661   0.723   2.526   9.719  0.0181 -0.9467  0.4083
   57CHL1    H9 6662   0.615   2.550   9.716  0.4131  0.9197 -0.4327
   57CHL1   C10 6663   0.766   2.494   9.862 -0.0661 -0.2329 -0.4564
   57CHL1   C19 6664   0.921   2.500   9.876  0.3649 -0.0020  0.2281
   57CHL1  H19A 6665   0.953   2.450   9.782  0.7984 -0.3387  0.5576
   57CHL1  H19B 6666   0.946   2.608   9.884 -2.6246  0.7023  1.5433
   57CHL1  H19C 6667   0.959   2.433   9.955  1.7328  0.5611  0.0726
   57CHL1    C1 6668   0.709   2.605   9.957 -0.2393  1.0057 -0.1637
   57CHL1   H1A 6669   0.759   2.697   9.921  1.0188  0.3843 -0.0670
   57CHL1   H1B 6670   0.600   2.608   9.935 -0.4473 -1.6356  0.1210
   57CHL1    C2 6671   0.725   2.577  10.113 -0.8822  0.1501 -0.3660
   57CHL1   H2A 6672   0.668   2.666  10.147 -0.1238  1.1048 -1.5287
   57CHL1   H2B 6673   0.828   2.592  10.150 -0.6420 -1.1152 -0.4529
   57CHL1   C20 6674   0.764   2.675   9.174 -0.2903  0.3425 -0.0092
   57CHL1   H20 6675   0.867   2.638   9.158 -0.6510 -0.1984 -1.2081
   57CHL1   C21 6676   0.782   2.825   9.218 -0.4745 -0.7274 -0.2183
   57CHL1  H21A 6677   0.687   2.876   9.244 -1.0578 -0.5821 -2.4298
   57CHL1  H21B 6678   0.826   2.877   9.130 -2.8346  1.1282 -0.4060
   57CHL1  H21C 6679   0.853   2.846   9.301  0.0307  0.4114 -0.9181
   57CHL1   C22 6680   0.678   2.648   9.042 -0.1073  0.1932  0.2066
   57CHL1  H22A 6681   0.681   2.541   9.011 -0.8757  0.4377 -0.7616
   57CHL1  H22B 6682   0.571   2.655   9.072 -0.5901 -0.1515 -1.3651
   57CHL1   C23 6683   0.707   2.748   8.921  0.1401 -0.3097 -0.1688
   57CHL1  H23A 6684   0.676   2.850   8.951  2.1887 -0.0037  1.1612
   57CHL1  H23B 6685   0.818   2.751   8.919  0.1515  3.2684 -0.7853
   57CHL1   C24 6686   0.647   2.707   8.790  0.1105 -0.9456  0.2643
   57CHL1  H24A 6687   0.671   2.783   8.712 -2.1571  0.5151  0.9073
   57CHL1  H24B 6688   0.698   2.612   8.763  0.8977 -0.2978 -0.5864
   57CHL1   C25 6689   0.496   2.687   8.775 -0.4015 -0.0674 -0.5435
   57CHL1   H25 6690   0.456   2.626   8.859  1.5082 -0.0195  0.4756
   57CHL1   C26 6691   0.428   2.821   8.786 -0.1094 -0.5582  0.1433
   57CHL1  H26A 6692   0.443   2.868   8.886 -0.3647  2.0199 -0.9350
   57CHL1  H26B 6693   0.453   2.900   8.711  3.0850 -0.7911  0.8227
   57CHL1  H26C 6694   0.319   2.809   8.767 -0.5099  1.8208  0.6009
   57CHL1   C27 6695   0.470   2.622   8.644  0.2638  0.1362  0.1562
   57CHL1  H27A 6696   0.364   2.591   8.632  1.0036 -2.4574 -0.2587
   57CHL1  H27B 6697   0.483   2.695   8.562 -0.5623  0.2292  0.0995
   57CHL1  H27C 6698   0.524   2.527   8.624 -0.6094 -0.4018  0.3177
   58CHL1    C3 6699   4.912   5.556  10.261  0.1094 -0.3999 -0.5343
   58CHL1    H3 6700   5.001   5.491  10.253  0.6985 -0.1249  2.4037
   58CHL1    O3 6701   4.898   5.608  10.389 -0.2666 -0.0182  1.0676
   58CHL1   H3' 6702   4.945   5.691  10.379  0.4363 -0.3111  1.8672
   58CHL1    C4 6703   4.954   5.666  10.163 -0.3922  0.5872 -0.9550
   58CHL1   H4A 6704   4.878   5.747  10.163 -0.0343  0.9280 -1.5579
   58CHL1   H4B 6705   5.042   5.719  10.206 -1.1076  0.8947  0.1880
   58CHL1    C5 6706   4.967   5.623  10.018 -0.3072 -0.5400  0.8004
   58CHL1    C6 6707   5.083   5.637   9.959 -0.1037 -0.3811  1.2705
   58CHL1    H6 6708   5.164   5.694  10.007  1.2009 -0.3056 -0.8792
   58CHL1    C7 6709   5.090   5.605   9.815 -0.1851  0.2357 -0.1808
   58CHL1   H7A 6710   5.131   5.691   9.759  1.1789 -1.6671 -2.2687
   58CHL1   H7B 6711   5.154   5.517   9.791 -2.2345 -1.5611  0.5680
   58CHL1    C8 6712   4.954   5.587   9.747 -0.5640  0.2018  0.2756
   58CHL1    H8 6713   4.907   5.687   9.743 -0.5655  0.1653 -0.8994
   58CHL1   C14 6714   4.972   5.523   9.606  0.5478 -0.0052 -0.5418
   58CHL1   H14 6715   5.026   5.427   9.626  1.0550  0.5361  0.8485
   58CHL1   C15 6716   5.070   5.601   9.513  0.3370  0.7856 -0.2108
   58CHL1  H15A 6717   5.050   5.710   9.521 -0.5039  0.5230  2.2109
   58CHL1  H15B 6718   5.175   5.592   9.547 -1.1732  0.7691  5.5638
   58CHL1   C16 6719   5.033   5.550   9.371 -0.7387  0.6123  0.1952
   58CHL1  H16A 6720   5.002   5.640   9.314 -0.2777  0.2828 -0.5814
   58CHL1  H16B 6721   5.115   5.495   9.320 -2.0427 -1.9316  0.6921
   58CHL1   C17 6722   4.915   5.451   9.397  0.4967  0.4448 -0.5199
   58CHL1   H17 6723   4.968   5.357   9.423 -0.4265  0.8271  3.5422
   58CHL1   C13 6724   4.852   5.494   9.535 -0.1487  0.5179  0.1211
   58CHL1   C18 6725   4.771   5.629   9.505 -0.7266 -0.1028 -0.3696
   58CHL1  H18A 6726   4.827   5.702   9.444 -1.2770  1.3286  0.7760
   58CHL1  H18B 6727   4.675   5.601   9.458 -1.1119  2.3244 -1.1468
   58CHL1  H18C 6728   4.752   5.682   9.601  0.0652 -2.1393  1.0024
   58CHL1   C12 6729   4.769   5.391   9.615 -0.0444 -0.9955  0.7449
   58CHL1  H12A 6730   4.672   5.367   9.566  0.2264 -2.3999  0.8653
   58CHL1  H12B 6731   4.823   5.295   9.628  0.7976 -0.3680  2.0414
   58CHL1   C11 6732   4.732   5.456   9.751 -0.0415  0.2648 -0.4962
   58CHL1  H11A 6733   4.658   5.537   9.734  0.7953  1.6970  2.1118
   58CHL1  H11B 6734   4.682   5.386   9.820  1.2707  0.7571  1.0073
   58CHL1    C9 6735   4.865   5.496   9.830  0.2028 -0.2483 -0.4495
   58CHL1    H9 6736   4.921   5.402   9.851 -1.1859 -0.9855  0.0974
   58CHL1   C10 6737   4.842   5.549   9.968  0.2493 -0.3955 -0.0691
   58CHL1   C19 6738   4.725   5.651   9.960 -0.2352 -0.6345 -0.1605
   58CHL1  H19A 6739   4.745   5.737   9.892 -0.2871  0.8531  1.6323
   58CHL1  H19B 6740   4.628   5.597   9.950 -1.0014  0.0457  2.8420
   58CHL1  H19C 6741   4.709   5.701  10.057 -0.7402 -1.8620  0.4179
   58CHL1    C1 6742   4.813   5.431  10.072 -0.6712 -0.3441  0.0482
   58CHL1   H1A 6743   4.725   5.370  10.042 -1.4616 -0.7285  2.8470
   58CHL1   H1B 6744   4.891   5.353  10.063 -2.1285 -1.6865 -1.7268
   58CHL1    C2 6745   4.794   5.486  10.210  0.6805  0.2243 -0.5794
   58CHL1   H2A 6746   4.768   5.403  10.278 -1.0431  1.0778 -0.1325
   58CHL1   H2B 6747   4.708   5.556  10.214 -0.4243 -0.9544 -2.3712
   58CHL1   C20 6748   4.821   5.445   9.273  0.3864  1.2108  0.1963
   58CHL1   H20 6749   4.771   5.544   9.265 -2.0975  0.1769  1.6763
   58CHL1   C21 6750   4.710   5.339   9.299  0.0403 -0.0758  0.3907
   58CHL1  H21A 6751   4.757   5.248   9.342 -0.3844 -0.9126 -0.8473
   58CHL1  H21B 6752   4.663   5.316   9.201  0.8075  2.7057 -0.7183
   58CHL1  H21C 6753   4.618   5.370   9.353 -1.2399 -1.8693 -0.6390
   58CHL1   C22 6754   4.886   5.411   9.143  0.3709  1.1078 -0.1386
   58CHL1  H22A 6755   4.981   5.465   9.124  1.0219  0.1359  0.2852
   58CHL1  H22B 6756   4.917   5.305   9.155  1.3120  1.4132  0.1908
   58CHL1   C23 6757   4.808   5.439   9.011  0.1043  0.2204 -0.3285
   58CHL1  H23A 6758   4.721   5.369   9.007 -0.9504  1.5223 -1.0969
   58CHL1  H23B 6759   4.756   5.537   9.013 -1.7615 -0.7335  0.4932
   58CHL1   C24 6760   4.894   5.418   8.887 -0.5313 -0.0991 -0.0899
   58CHL1  H24A 6761   4.963   5.505   8.884 -1.0795  0.3151 -1.2214
   58CHL1  H24B 6762   4.947   5.322   8.902  0.2185  0.1021 -1.3481
   58CHL1   C25 6763   4.815   5.405   8.753 -0.2005  0.2366  0.3946
   58CHL1   H25 6764   4.747   5.320   8.774 -1.0719  0.4503 -1.3726
   58CHL1   C26 6765   4.724   5.531   8.725  0.6859 -0.2823  0.5965
   58CHL1  H26A 6766   4.683   5.535   8.622 -2.5237  1.5479  1.8043
   58CHL1  H26B 6767   4.651   5.536   8.809  2.4496 -0.3279  2.2067
   58CHL1  H26C 6768   4.782   5.626   8.729 -1.2215  0.9546 -0.1137
   58CHL1   C27 6769   4.896   5.375   8.630 -0.1284  0.9375 -0.7648
   58CHL1  H27A 6770   4.954   5.466   8.605  1.2237 -0.1390 -1.6807
   58CHL1  H27B 6771   4.966   5.291   8.650 -2.4307 -0.6529  1.2720
   58CHL1  H27C 6772   4.832   5.345   8.545  0.3217 -1.7464 -0.2668
   59CHL1    C3 6773   4.000   6.759  10.343  0.6388 -0.3259 -0.0629
   59CHL1    H3 6774   4.103   6.723  10.325  0.3879  0.0989 -2.8426
   59CHL1    O3 6775   3.977   6.754  10.482  0.2276  0.6769 -0.5613
   59CHL1   H3' 6776   3.891   6.713  10.494  0.8824 -0.5769  0.0385
   59CHL1    C4 6777   3.989   6.904  10.285 -0.0039 -0.7195 -0.1968
   59CHL1   H4A 6778   3.897   6.962  10.310  0.7903  0.7170 -0.4906
   59CHL1   H4B 6779   4.077   6.953  10.333  2.2591 -2.1365 -2.6448
   59CHL1    C5 6780   4.020   6.901  10.136 -0.4124  0.5646  0.1276
   59CHL1    C6 6781   4.112   6.983  10.084  0.4430 -0.8318  0.2667
   59CHL1    H6 6782   4.154   7.059  10.151 -0.6489  0.9051 -0.9485
   59CHL1    C7 6783   4.141   7.009   9.940 -0.4842  0.2575 -0.0300
   59CHL1   H7A 6784   4.153   7.118   9.918  0.0613  1.0188  3.5511
   59CHL1   H7B 6785   4.246   6.975   9.927  0.2652  2.1674  0.6599
   59CHL1    C8 6786   4.040   6.936   9.851 -0.5397 -0.0524  0.6015
   59CHL1    H8 6787   3.946   6.995   9.846  0.9413  2.3742 -0.3255
   59CHL1   C14 6788   4.098   6.923   9.709  0.6373  0.7262 -0.4424
   59CHL1   H14 6789   4.192   6.866   9.725  0.6859  1.0619  0.5051
   59CHL1   C15 6790   4.133   7.058   9.647  0.0740  0.1286 -0.1385
   59CHL1  H15A 6791   4.061   7.132   9.687  0.1714  0.5110 -0.6698
   59CHL1  H15B 6792   4.231   7.105   9.669 -0.8388  1.9508  0.2806
   59CHL1   C16 6793   4.109   7.034   9.497 -0.7573 -0.2257  0.5010
   59CHL1  H16A 6794   4.023   7.087   9.450  1.7216  1.5122 -2.4135
   59CHL1  H16B 6795   4.197   7.056   9.433 -0.2267 -1.8414  0.6182
   59CHL1   C17 6796   4.080   6.882   9.482  0.7335 -0.2929  0.3433
   59CHL1   H17 6797   4.179   6.830   9.488  0.0971 -1.5440  0.4188
   59CHL1   C13 6798   4.003   6.846   9.616 -0.5161 -0.1210  0.0911
   59CHL1   C18 6799   3.861   6.898   9.611  0.4827 -1.5005  0.3907
   59CHL1  H18A 6800   3.804   6.901   9.706 -1.2798 -2.2750 -0.5842
   59CHL1  H18B 6801   3.865   7.004   9.579  1.0033 -2.0544 -1.5726
   59CHL1  H18C 6802   3.806   6.837   9.535  0.8918  0.1839 -1.3532
   59CHL1   C12 6803   3.990   6.695   9.664  0.5773 -0.6661 -0.2004
   59CHL1  H12A 6804   3.919   6.632   9.606 -1.0986  0.2119  0.8213
   59CHL1  H12B 6805   4.094   6.657   9.650  1.3804  0.8127  1.4804
   59CHL1   C11 6806   3.939   6.692   9.812  0.3206 -0.1570 -0.0180
   59CHL1  H11A 6807   3.830   6.712   9.808  0.7203  2.0463 -2.7155
   59CHL1  H11B 6808   3.945   6.588   9.850  2.2133 -0.0129  0.1896
   59CHL1    C9 6809   4.008   6.795   9.911  0.8330 -0.4393  1.0361
   59CHL1    H9 6810   4.109   6.753   9.926  1.2961 -0.7592 -2.2017
   59CHL1   C10 6811   3.938   6.803  10.048 -0.1043 -0.0653 -0.3605
   59CHL1   C19 6812   3.796   6.856  10.044  0.0504  0.3304  0.1777
   59CHL1  H19A 6813   3.750   6.834  10.143  1.3848 -0.9090  0.5677
   59CHL1  H19B 6814   3.782   6.962  10.016  0.3124  0.4016  0.3090
   59CHL1  H19C 6815   3.741   6.790   9.973  0.1357 -2.2581  2.3523
   59CHL1    C1 6816   3.936   6.667  10.122 -0.5925  0.4847 -0.3036
   59CHL1   H1A 6817   3.860   6.601  10.075 -2.1586  2.3686 -0.5516
   59CHL1   H1B 6818   4.035   6.617  10.114  0.5952  2.6174  0.4437
   59CHL1    C2 6819   3.901   6.668  10.272  0.2517 -0.7500  0.4252
   59CHL1   H2A 6820   3.914   6.571  10.326 -2.4118 -1.3623  0.0770
   59CHL1   H2B 6821   3.797   6.703  10.290  1.6715  2.0739  4.8405
   59CHL1   C20 6822   4.017   6.832   9.349  0.2642  0.5128 -0.3474
   59CHL1   H20 6823   3.911   6.863   9.335  1.1703  3.3404 -1.9176
   59CHL1   C21 6824   4.038   6.676   9.348  0.5781 -0.1522 -0.4531
   59CHL1  H21A 6825   4.126   6.642   9.407  0.3672  0.7051  0.3925
   59CHL1  H21B 6826   4.040   6.639   9.244 -0.0351  1.1074 -0.9293
   59CHL1  H21C 6827   3.958   6.629   9.409 -1.8924  0.9732 -2.6640
   59CHL1   C22 6828   4.085   6.886   9.223  0.0420  0.3248 -0.0317
   59CHL1  H22A 6829   4.045   6.848   9.126  0.6408  2.9885 -1.3962
   59CHL1  H22B 6830   4.063   6.994   9.230 -3.0798 -0.2985  1.8528
   59CHL1   C23 6831   4.238   6.855   9.220  0.7570  0.4864  0.1099
   59CHL1  H23A 6832   4.285   6.877   9.318  1.1277 -1.7978  0.4997
   59CHL1  H23B 6833   4.258   6.749   9.196 -1.0854  0.1370 -0.0083
   59CHL1   C24 6834   4.315   6.950   9.124  0.0930  0.9969  0.8243
   59CHL1  H24A 6835   4.266   7.048   9.144 -0.3772  0.7039  1.1174
   59CHL1  H24B 6836   4.423   6.960   9.148 -0.2633 -0.4188  3.3428
   59CHL1   C25 6837   4.285   6.915   8.974 -0.8610  0.2484 -0.7880
   59CHL1   H25 6838   4.180   6.949   8.958 -1.1276  0.5372  1.2285
   59CHL1   C26 6839   4.372   6.997   8.881  0.0038 -0.4873 -0.2996
   59CHL1  H26A 6840   4.384   7.101   8.917 -0.9157  0.3306 -2.1865
   59CHL1  H26B 6841   4.476   6.957   8.870  0.5586  0.5972  0.7942
   59CHL1  H26C 6842   4.322   7.002   8.782  0.9485  0.6345 -0.7507
   59CHL1   C27 6843   4.322   6.770   8.956 -0.6320 -0.1018 -0.1042
   59CHL1  H27A 6844   4.334   6.746   8.848  0.6733 -0.1041  0.0277
   59CHL1  H27B 6845   4.419   6.746   9.004 -0.2761 -1.0993 -1.2852
   59CHL1  H27C 6846   4.240   6.702   8.988 -0.3825 -0.7481 -0.7899
   60CHL1    C3 6847   4.606   5.003  10.235 -0.4064  0.2272 -0.3804
   60CHL1    H3 6848   4.643   4.898  10.229 -0.0044  0.3466 -0.0495
   60CHL1    O3 6849   4.621   5.051  10.367 -0.3779 -1.1091  0.1754
   60CHL1   H3' 6850   4.536   5.075  10.404 -1.2344 -2.6149 -0.7015
   60CHL1    C4 6851   4.682   5.089  10.135  0.0356  0.2338 -1.0063
   60CHL1   H4A 6852   4.635   5.189  10.149 -0.7096 -0.2922  0.5292
   60CHL1   H4B 6853   4.786   5.096  10.173  0.3738 -3.2509 -0.9486
   60CHL1    C5 6854   4.668   5.040   9.994  0.1383 -0.7896  0.2216
   60CHL1    C6 6855   4.782   5.018   9.925  0.5094  0.5648  0.2535
   60CHL1    H6 6856   4.877   5.015   9.981  0.3701 -2.0672  0.5013
   60CHL1    C7 6857   4.776   4.980   9.782 -0.5872  1.0074 -0.2266
   60CHL1   H7A 6858   4.855   5.030   9.721 -0.4478  2.1581  0.8619
   60CHL1   H7B 6859   4.791   4.870   9.783 -1.4824  0.8734  1.8182
   60CHL1    C8 6860   4.640   5.008   9.713 -0.6678 -0.1148  0.0655
   60CHL1    H8 6861   4.636   5.118   9.696  1.4683 -0.2535 -1.7187
   60CHL1   C14 6862   4.644   4.935   9.582 -0.2215 -0.0316  0.4092
   60CHL1   H14 6863   4.648   4.828   9.613  0.3308 -0.3187 -0.6000
   60CHL1   C15 6864   4.760   4.949   9.486 -0.1121  0.0904  0.3167
   60CHL1  H15A 6865   4.767   5.053   9.447 -1.0236  0.8236  2.0193
   60CHL1  H15B 6866   4.861   4.908   9.509  0.1124 -0.7645 -1.9544
   60CHL1   C16 6867   4.718   4.851   9.381  0.2538  0.1920  0.3643
   60CHL1  H16A 6868   4.759   4.895   9.287  0.3675  0.3598  0.4927
   60CHL1  H16B 6869   4.754   4.746   9.386 -3.7963 -1.4194 -0.5560
   60CHL1   C17 6870   4.561   4.844   9.381  0.3827  0.6728 -0.8886
   60CHL1   H17 6871   4.539   4.736   9.400  0.1565  0.7299 -0.8249
   60CHL1   C13 6872   4.519   4.934   9.496  0.5665  0.2543 -0.0883
   60CHL1   C18 6873   4.490   5.078   9.454  0.1263 -0.5533  0.8216
   60CHL1  H18A 6874   4.486   5.149   9.539 -1.8934  1.3770 -0.7885
   60CHL1  H18B 6875   4.568   5.108   9.381 -0.8675 -1.6680 -0.7675
   60CHL1  H18C 6876   4.398   5.101   9.397  0.7143  1.7974  0.7287
   60CHL1   C12 6877   4.410   4.876   9.593  0.0984 -0.1804 -0.2749
   60CHL1  H12A 6878   4.315   4.867   9.536 -0.2763 -0.0624  0.3296
   60CHL1  H12B 6879   4.438   4.772   9.622 -2.1155 -0.5663  0.6721
   60CHL1   C11 6880   4.390   4.959   9.725 -0.4651  1.1041  0.3057
   60CHL1  H11A 6881   4.345   5.059   9.705 -0.8805  0.7373 -0.6600
   60CHL1  H11B 6882   4.311   4.915   9.789 -0.9790  1.3897 -0.1227
   60CHL1    C9 6883   4.526   4.962   9.803  0.3948  1.0761  0.6674
   60CHL1    H9 6884   4.547   4.858   9.834  1.1435  1.0382  0.0545
   60CHL1   C10 6885   4.525   5.032   9.946  0.2344 -0.3328  0.2559
   60CHL1   C19 6886   4.464   5.171   9.914 -0.0416 -0.1567 -0.1011
   60CHL1  H19A 6887   4.357   5.166   9.884  0.3668 -0.9934 -1.5573
   60CHL1  H19B 6888   4.470   5.243   9.998  0.6138 -0.8236  0.4364
   60CHL1  H19C 6889   4.524   5.219   9.834  0.7887  3.5117  2.5091
   60CHL1    C1 6890   4.440   4.953  10.041 -0.5761 -0.3194  0.2657
   60CHL1   H1A 6891   4.333   4.947  10.013 -1.5228 -1.7253  3.6110
   60CHL1   H1B 6892   4.464   4.845  10.042 -2.6933 -0.8866  3.1386
   60CHL1    C2 6893   4.458   4.998  10.191  0.1709 -0.1042  0.4426
   60CHL1   H2A 6894   4.401   4.923  10.250 -0.0607 -1.1964 -1.1067
   60CHL1   H2B 6895   4.418   5.099  10.210  0.9760  0.8043 -2.2399
   60CHL1   C20 6896   4.497   4.878   9.246  0.4552  0.6012  0.2608
   60CHL1   H20 6897   4.546   4.977   9.229  2.4315 -0.3089  0.2969
   60CHL1   C21 6898   4.343   4.874   9.247 -1.0972 -0.5272  0.6665
   60CHL1  H21A 6899   4.301   4.897   9.146 -0.3877 -0.2429  0.4265
   60CHL1  H21B 6900   4.299   4.939   9.326  1.3744  1.6275  0.4033
   60CHL1  H21C 6901   4.307   4.771   9.265 -1.6444 -0.3767  0.4766
   60CHL1   C22 6902   4.535   4.783   9.121  0.0960 -0.0844 -0.1246
   60CHL1  H22A 6903   4.644   4.786   9.099 -0.1955  2.7781 -1.6808
   60CHL1  H22B 6904   4.516   4.675   9.134  0.0019  0.0008  0.5062
   60CHL1   C23 6905   4.511   4.849   8.980 -0.4010 -0.1141 -0.0147
   60CHL1  H23A 6906   4.400   4.857   8.973 -0.4408 -0.1816  0.4893
   60CHL1  H23B 6907   4.553   4.952   8.979  1.9202 -1.0046 -0.0951
   60CHL1   C24 6908   4.566   4.778   8.853  0.0568 -0.4048 -0.5558
   60CHL1  H24A 6909   4.527   4.675   8.838  0.9214 -0.4215 -3.1627
   60CHL1  H24B 6910   4.516   4.828   8.767 -1.6101 -1.9560 -0.5454
   60CHL1   C25 6911   4.717   4.762   8.833 -0.4394 -0.9768  0.7535
   60CHL1   H25 6912   4.749   4.698   8.917  0.8555 -1.9865 -0.4692
   60CHL1   C26 6913   4.746   4.696   8.695  0.3637 -0.2339 -0.4319
   60CHL1  H26A 6914   4.716   4.590   8.708 -1.7433  0.6546  3.9226
   60CHL1  H26B 6915   4.687   4.742   8.614 -1.3333 -0.8284  0.4170
   60CHL1  H26C 6916   4.856   4.706   8.682  0.3567 -0.9286 -1.0935
   60CHL1   C27 6917   4.783   4.899   8.834  0.5556 -0.2023  0.3840
   60CHL1  H27A 6918   4.759   4.955   8.741  0.3404 -2.1361 -0.7735
   60CHL1  H27B 6919   4.748   4.952   8.925 -0.0982 -0.1457  0.1057
   60CHL1  H27C 6920   4.894   4.894   8.830  0.8242  2.3067  2.5018
   61CHL1    C3 6921   2.600   4.688  10.235  0.2509 -0.1541 -0.6257
   61CHL1    H3 6922   2.693   4.746  10.254 -0.2390  0.1992  0.8497
   61CHL1    O3 6923   2.544   4.667  10.363 -0.0164 -0.2474  0.1588
   61CHL1   H3' 6924   2.457   4.629  10.353 -1.0960  1.6972  1.5210
   61CHL1    C4 6925   2.504   4.757  10.132 -0.9012  0.0474  0.0706
   61CHL1   H4A 6926   2.411   4.695  10.131  0.2515 -1.7360 -0.8172
   61CHL1   H4B 6927   2.472   4.852  10.180  0.8618  0.9708 -0.4932
   61CHL1    C5 6928   2.564   4.780   9.994 -0.6452 -0.8929  0.0493
   61CHL1    C6 6929   2.583   4.899   9.935  0.1781  0.4880 -0.2013
   61CHL1    H6 6930   2.535   4.986   9.982  0.8060  1.3918 -1.1827
   61CHL1    C7 6931   2.643   4.912   9.803 -0.2060 -0.2896  0.0272
   61CHL1   H7A 6932   2.570   4.974   9.746  1.0602 -1.0241 -2.5191
   61CHL1   H7B 6933   2.734   4.976   9.800 -0.1015 -0.3666  1.1181
   61CHL1    C8 6934   2.658   4.781   9.721  0.0446 -0.0332 -0.1621
   61CHL1    H8 6935   2.552   4.755   9.699  0.5628 -1.9051 -0.6939
   61CHL1   C14 6936   2.730   4.783   9.589 -1.2902 -0.0274 -0.2856
   61CHL1   H14 6937   2.834   4.810   9.618 -1.8737 -0.0094  1.9189
   61CHL1   C15 6938   2.693   4.891   9.491 -0.4548  0.1785 -0.3549
   61CHL1  H15A 6939   2.582   4.895   9.482 -0.6944 -1.3167  1.3396
   61CHL1  H15B 6940   2.730   4.993   9.512  0.5707 -0.1500 -0.5040
   61CHL1   C16 6941   2.764   4.850   9.365 -0.1738 -0.0256 -0.2114
   61CHL1  H16A 6942   2.705   4.871   9.274 -0.7234 -1.4559 -0.2192
   61CHL1  H16B 6943   2.862   4.902   9.352 -0.1066 -0.4786 -1.6919
   61CHL1   C17 6944   2.809   4.699   9.379 -0.3873 -0.5453 -0.0160
   61CHL1   H17 6945   2.915   4.715   9.411 -0.0679  2.1663 -2.0596
   61CHL1   C13 6946   2.731   4.657   9.502  0.1482 -0.6016  0.2078
   61CHL1   C18 6947   2.591   4.613   9.472  0.0893  0.6902 -0.2839
   61CHL1  H18A 6948   2.535   4.684   9.407 -1.6443 -2.4678 -2.5588
   61CHL1  H18B 6949   2.591   4.511   9.427 -0.2389  1.1410 -1.3418
   61CHL1  H18C 6950   2.536   4.609   9.568  0.9091  0.2939  0.1790
   61CHL1   C12 6951   2.806   4.547   9.585  0.7313  0.7108 -0.0838
   61CHL1  H12A 6952   2.794   4.446   9.539  2.1644  1.8567 -3.2869
   61CHL1  H12B 6953   2.913   4.573   9.600  1.2157 -1.4294  0.6224
   61CHL1   C11 6954   2.739   4.532   9.722  0.1075  0.6145  0.1231
   61CHL1  H11A 6955   2.650   4.470   9.697  0.6817 -1.3350  2.5886
   61CHL1  H11B 6956   2.807   4.466   9.779 -1.1461  0.0328  1.0103
   61CHL1    C9 6957   2.713   4.665   9.806  0.5794  0.5113  0.0779
   61CHL1    H9 6958   2.810   4.692   9.853  0.4049 -0.0811  0.8079
   61CHL1   C10 6959   2.617   4.645   9.933 -0.3044  0.1107 -0.3224
   61CHL1   C19 6960   2.487   4.559   9.893 -0.0990 -0.8063 -0.2320
   61CHL1  H19A 6961   2.420   4.601   9.815 -1.5907 -0.2553  1.2875
   61CHL1  H19B 6962   2.518   4.457   9.862  2.1908 -0.6095  1.1311
   61CHL1  H19C 6963   2.424   4.552   9.985 -2.4488  3.9278 -1.1584
   61CHL1    C1 6964   2.698   4.569  10.040 -0.3228  0.0155 -0.4361
   61CHL1   H1A 6965   2.727   4.466  10.009 -1.6791 -0.0632 -1.5233
   61CHL1   H1B 6966   2.791   4.626  10.057  1.1564 -2.3147 -0.2187
   61CHL1    C2 6967   2.630   4.552  10.176 -0.6018 -0.3945 -0.1935
   61CHL1   H2A 6968   2.705   4.496  10.236 -2.0134 -1.2168  0.8411
   61CHL1   H2B 6969   2.547   4.478  10.175  0.0338 -1.1212 -0.4619
   61CHL1   C20 6970   2.807   4.621   9.248  0.5590  0.1310  0.2624
   61CHL1   H20 6971   2.705   4.577   9.234  0.3886  1.1652 -2.2622
   61CHL1   C21 6972   2.888   4.492   9.270 -0.4425  0.3070 -0.0898
   61CHL1  H21A 6973   2.839   4.421   9.340 -1.9658  0.0448 -1.3665
   61CHL1  H21B 6974   2.988   4.528   9.302 -0.0494 -0.6283 -0.2394
   61CHL1  H21C 6975   2.897   4.451   9.168  0.1463  1.1430 -0.3849
   61CHL1   C22 6976   2.855   4.702   9.128 -0.1251 -0.0158  0.6650
   61CHL1  H22A 6977   2.861   4.645   9.033  0.0354 -0.0183  0.6773
   61CHL1  H22B 6978   2.793   4.793   9.110  2.4561  2.3729  2.9597
   61CHL1   C23 6979   2.999   4.747   9.146 -0.4245 -0.1945 -0.8198
   61CHL1  H23A 6980   3.011   4.788   9.248  2.3812 -2.2789 -0.2080
   61CHL1  H23B 6981   3.071   4.663   9.144 -1.8618 -1.7247  3.1088
   61CHL1   C24 6982   3.040   4.858   9.041 -0.0372  0.3235 -0.3014
   61CHL1  H24A 6983   3.034   4.813   8.940  0.0494 -2.6887  0.9181
   61CHL1  H24B 6984   2.961   4.936   9.048 -0.8506 -0.4606 -0.5678
   61CHL1   C25 6985   3.180   4.921   9.057 -0.0260  1.0305  0.8464
   61CHL1   H25 6986   3.254   4.838   9.064 -1.4542 -0.3233  0.5579
   61CHL1   C26 6987   3.218   5.014   8.945  0.3336 -0.3891  0.0078
   61CHL1  H26A 6988   3.155   5.106   8.949 -1.1461 -1.3825  0.6321
   61CHL1  H26B 6989   3.324   5.039   8.924 -0.8315  3.4279 -2.3396
   61CHL1  H26C 6990   3.201   4.965   8.847  0.2786  1.7331 -1.0892
   61CHL1   C27 6991   3.191   5.002   9.188  1.5004 -0.2120 -0.0819
   61CHL1  H27A 6992   3.288   5.056   9.186  0.4986  1.8178  2.0158
   61CHL1  H27B 6993   3.109   5.076   9.188  0.6203 -1.1586  0.1330
   61CHL1  H27C 6994   3.177   4.934   9.275  0.9367  1.6308  1.3125
   62CHL1    C3 6995   1.134   1.947  10.092  0.3292 -0.7265 -0.0338
   62CHL1    H3 6996   1.242   1.956  10.070  0.3336  0.0870  0.2919
   62CHL1    O3 6997   1.108   1.975  10.230 -0.1990  0.3266 -0.3689
   62CHL1   H3' 6998   1.188   2.003  10.276 -0.6838 -0.5130  1.0664
   62CHL1    C4 6999   1.061   2.062  10.013  1.1287 -0.0915 -0.3723
   62CHL1   H4A 7000   0.958   2.054  10.055  0.9736 -0.7925 -0.8553
   62CHL1   H4B 7001   1.098   2.158  10.054 -0.1821 -0.5120  2.0112
   62CHL1    C5 7002   1.059   2.046   9.860  0.5055  0.3866 -0.2033
   62CHL1    C6 7003   1.104   2.135   9.772 -0.6183 -0.2672 -0.4135
   62CHL1    H6 7004   1.143   2.230   9.811 -0.3311 -0.3075 -0.6007
   62CHL1    C7 7005   1.093   2.116   9.625  0.1909  0.1396 -0.4605
   62CHL1   H7A 7006   1.057   2.215   9.590 -3.4773 -0.3727  1.3539
   62CHL1   H7B 7007   1.197   2.093   9.597 -0.0051 -2.4335  0.5839
   62CHL1    C8 7008   1.004   1.995   9.585 -0.0165 -0.4445  0.3596
   62CHL1    H8 7009   0.896   2.020   9.600  0.5143  1.6737  0.9267
   62CHL1   C14 7010   1.039   1.962   9.435  0.1098  0.0807 -1.0924
   62CHL1   H14 7011   1.149   1.945   9.431  0.3219  1.0516  0.0472
   62CHL1   C15 7012   1.025   2.080   9.339  0.4051 -0.0032  0.4358
   62CHL1  H15A 7013   0.938   2.146   9.360  0.0425 -0.7898  1.4384
   62CHL1  H15B 7014   1.120   2.140   9.343  0.1399  0.3882  3.8155
   62CHL1   C16 7015   1.015   2.009   9.199 -0.1025 -0.0041  0.2910
   62CHL1  H16A 7016   0.923   2.024   9.138  0.1769 -1.5181 -0.5460
   62CHL1  H16B 7017   1.101   2.035   9.135  0.3935 -0.7252  0.6508
   62CHL1   C17 7018   1.023   1.859   9.228 -0.0810  0.9328 -0.5027
   62CHL1   H17 7019   1.133   1.846   9.236 -0.2675 -0.4062  0.3295
   62CHL1   C13 7020   0.964   1.841   9.376 -0.4396  0.1773 -0.9284
   62CHL1   C18 7021   0.812   1.868   9.381  0.1175 -0.5926  0.0631
   62CHL1  H18A 7022   0.754   1.786   9.333  0.8111 -0.9662 -0.1546
   62CHL1  H18B 7023   0.779   1.877   9.486 -1.1613  0.7817 -0.4248
   62CHL1  H18C 7024   0.795   1.969   9.337  2.5135  0.5262  1.5104
   62CHL1   C12 7025   1.017   1.720   9.460 -0.0773  0.9361 -0.2038
   62CHL1  H12A 7026   0.969   1.625   9.430  2.1927 -0.2032 -0.4197
   62CHL1  H12B 7027   1.125   1.702   9.441  0.1871  1.6947  0.5220
   62CHL1   C11 7028   0.999   1.743   9.613 -0.1173  0.1867 -0.3427
   62CHL1  H11A 7029   0.890   1.747   9.631 -0.1885 -0.6920 -0.5663
   62CHL1  H11B 7030   1.038   1.652   9.664 -0.5931 -1.0523 -2.0974
   62CHL1    C9 7031   1.054   1.877   9.669  0.2952 -0.8022 -0.2809
   62CHL1    H9 7032   1.165   1.871   9.663  0.4101 -0.5051  1.2316
   62CHL1   C10 7033   1.019   1.903   9.816  0.2115 -0.3525  0.6191
   62CHL1   C19 7034   0.860   1.915   9.833 -0.4471  0.0645 -0.3165
   62CHL1  H19A 7035   0.830   2.000   9.769 -1.4380 -1.4159 -1.9224
   62CHL1  H19B 7036   0.805   1.823   9.803 -3.6763  1.0410  2.0401
   62CHL1  H19C 7037   0.831   1.938   9.938  0.4453 -0.5693  0.0842
   62CHL1    C1 7038   1.082   1.787   9.895  0.2700 -0.7002 -0.8793
   62CHL1   H1A 7039   1.019   1.699   9.870 -2.4717  1.5702 -2.6783
   62CHL1   H1B 7040   1.190   1.782   9.870  1.2571  3.4960  1.5338
   62CHL1    C2 7041   1.079   1.810  10.050 -0.0827  0.1936 -0.0009
   62CHL1   H2A 7042   1.137   1.730  10.100  1.2975  0.0902 -1.6948
   62CHL1   H2B 7043   0.970   1.819  10.070 -0.1055  1.7122 -0.6545
   62CHL1   C20 7044   0.955   1.768   9.121 -0.6479  0.1448 -0.3215
   62CHL1   H20 7045   0.847   1.792   9.133 -1.0427 -2.4539  2.8600
   62CHL1   C21 7046   0.970   1.614   9.156 -0.2004 -0.6586 -0.9506
   62CHL1  H21A 7047   1.072   1.591   9.193 -0.1355  2.5957  1.3017
   62CHL1  H21B 7048   0.939   1.548   9.072  1.5394 -1.0163 -1.3491
   62CHL1  H21C 7049   0.892   1.580   9.228 -0.4904 -0.3222 -1.0990
   62CHL1   C22 7050   1.005   1.786   8.977 -0.7533 -0.0067 -0.0452
   62CHL1  H22A 7051   0.995   1.895   8.963 -0.2136  0.0243 -0.2036
   62CHL1  H22B 7052   1.112   1.759   8.960 -0.9318 -0.7591 -0.0129
   62CHL1   C23 7053   0.920   1.721   8.869  0.3953  0.0782  0.8112
   62CHL1  H23A 7054   0.898   1.616   8.898 -3.0099  0.9167  1.7833
   62CHL1  H23B 7055   0.829   1.785   8.878  0.3225  0.3690 -1.2956
   62CHL1   C24 7056   0.985   1.731   8.727 -0.0984  0.4558  0.5665
   62CHL1  H24A 7057   1.022   1.834   8.711 -1.2496  1.0426  1.5500
   62CHL1  H24B 7058   1.068   1.657   8.730 -0.1669  0.3235 -0.4998
   62CHL1   C25 7059   0.890   1.700   8.609  0.1588 -0.1091 -0.3311
   62CHL1   H25 7060   0.949   1.718   8.517 -1.4362  0.5235 -1.2729
   62CHL1   C26 7061   0.858   1.551   8.623  0.3393  0.1998  0.3096
   62CHL1  H26A 7062   0.776   1.524   8.554 -2.1983  1.6393  2.5743
   62CHL1  H26B 7063   0.954   1.500   8.602  0.2008  0.0296  0.0887
   62CHL1  H26C 7064   0.826   1.527   8.727 -1.1395 -3.6760 -0.8685
   62CHL1   C27 7065   0.755   1.786   8.604  0.9392 -0.0920  0.0681
   62CHL1  H27A 7066   0.702   1.781   8.702 -0.6728 -1.1631 -0.8141
   62CHL1  H27B 7067   0.775   1.894   8.590  2.2846 -0.6293 -2.9168
   62CHL1  H27C 7068   0.675   1.750   8.536  0.3300  0.7327  0.3409
   63CHL1    C3 7069   3.447   2.280  10.183 -0.2506  0.2892 -0.5484
   63CHL1    H3 7070   3.460   2.389  10.164  0.5164  0.4225  0.6481
   63CHL1    O3 7071   3.461   2.250  10.324  0.3004  0.4833  0.6711
   63CHL1   H3' 7072   3.422   2.164  10.336  3.1078 -1.0593 -0.3547
   63CHL1    C4 7073   3.306   2.236  10.146 -0.9810  0.4127  0.0341
   63CHL1   H4A 7074   3.309   2.127  10.166 -2.2668  0.6317  1.5719
   63CHL1   H4B 7075   3.232   2.285  10.213 -1.2550  0.6025 -0.4036
   63CHL1    C5 7076   3.286   2.251   9.992 -0.8728 -0.6838 -0.2818
   63CHL1    C6 7077   3.175   2.319   9.956  0.2567 -0.2492 -0.1147
   63CHL1    H6 7078   3.102   2.350  10.033  1.3255  2.1810  0.0056
   63CHL1    C7 7079   3.140   2.350   9.810 -0.4087 -0.6175 -0.4972
   63CHL1   H7A 7080   3.034   2.329   9.788 -0.9153 -1.0971  2.1013
   63CHL1   H7B 7081   3.145   2.458   9.785 -0.4130 -0.7137 -0.9257
   63CHL1    C8 7082   3.228   2.266   9.713  0.5041  0.2601 -0.9243
   63CHL1    H8 7083   3.182   2.165   9.712 -1.5688  1.1168  1.0008
   63CHL1   C14 7084   3.228   2.330   9.572 -0.1108  0.4418  0.1438
   63CHL1   H14 7085   3.273   2.431   9.587 -2.3484  1.4308  0.5457
   63CHL1   C15 7086   3.090   2.353   9.507  0.6775 -0.4870 -0.5295
   63CHL1  H15A 7087   3.033   2.259   9.520 -0.6502  0.0640 -2.0794
   63CHL1  H15B 7088   3.045   2.439   9.563  1.3304  0.2131 -1.0526
   63CHL1   C16 7089   3.113   2.386   9.357 -0.0887 -0.2167 -0.5177
   63CHL1  H16A 7090   3.059   2.311   9.296 -0.2635 -1.5562  1.2168
   63CHL1  H16B 7091   3.092   2.489   9.319 -1.0434 -0.2399 -0.0958
   63CHL1   C17 7092   3.262   2.341   9.336 -1.0617 -0.3875 -0.0467
   63CHL1   H17 7093   3.332   2.426   9.343  0.7314 -1.9393  2.1890
   63CHL1   C13 7094   3.310   2.261   9.468  0.4210  0.5293  0.3883
   63CHL1   C18 7095   3.258   2.109   9.450 -0.3729  0.6575  0.1498
   63CHL1  H18A 7096   3.335   2.076   9.376 -0.5358  1.8782 -0.5946
   63CHL1  H18B 7097   3.267   2.045   9.540  0.4087  2.3470  1.3232
   63CHL1  H18C 7098   3.158   2.109   9.403  0.4839 -0.6037 -1.8093
   63CHL1   C12 7099   3.453   2.270   9.513  0.6315  0.0463 -0.0152
   63CHL1  H12A 7100   3.517   2.215   9.441  0.2459 -1.3248  0.6465
   63CHL1  H12B 7101   3.496   2.372   9.509  0.5792  0.1303  1.1443
   63CHL1   C11 7102   3.473   2.207   9.648  0.2184 -0.2998 -0.0978
   63CHL1  H11A 7103   3.453   2.098   9.646 -0.2491 -0.2404  0.8129
   63CHL1  H11B 7104   3.579   2.209   9.682  0.3298 -1.4336 -0.3244
   63CHL1    C9 7105   3.380   2.266   9.758 -0.4853  0.7249  0.4454
   63CHL1    H9 7106   3.408   2.373   9.766  0.6208  0.4485  0.4651
   63CHL1   C10 7107   3.397   2.200   9.896  0.5397  0.6168  0.4942
   63CHL1   C19 7108   3.380   2.051   9.889 -0.0820  0.2476  0.2458
   63CHL1  H19A 7109   3.357   2.000   9.985  2.2216 -1.6580 -0.0994
   63CHL1  H19B 7110   3.279   2.040   9.844  0.2913 -0.4511 -0.4646
   63CHL1  H19C 7111   3.460   1.998   9.832 -1.6944  0.0455 -1.9585
   63CHL1    C1 7112   3.535   2.250   9.956 -0.2659  0.2108 -0.4050
   63CHL1   H1A 7113   3.610   2.207   9.886  0.6134  3.2309 -1.4720
   63CHL1   H1B 7114   3.538   2.359   9.936 -2.7391  0.5188  0.5198
   63CHL1    C2 7115   3.559   2.214  10.102  0.0122 -0.1767 -0.6332
   63CHL1   H2A 7116   3.660   2.242  10.140 -1.0661  1.0834  1.4928
   63CHL1   H2B 7117   3.545   2.104  10.110 -0.5478 -0.0934 -0.4236
   63CHL1   C20 7118   3.291   2.282   9.197 -0.2232  0.9886  0.0102
   63CHL1   H20 7119   3.235   2.186   9.185  0.2588  0.8596 -1.4177
   63CHL1   C21 7120   3.440   2.257   9.185 -0.1224 -0.7150  0.4839
   63CHL1  H21A 7121   3.468   2.178   9.257 -0.1453  0.1142  1.4325
   63CHL1  H21B 7122   3.497   2.352   9.199 -1.7038  0.7779 -2.3095
   63CHL1  H21C 7123   3.452   2.214   9.083 -0.3337 -0.8104  0.4979
   63CHL1   C22 7124   3.236   2.369   9.074 -0.8698  0.1534 -0.1876
   63CHL1  H22A 7125   3.135   2.413   9.091 -1.0001  1.0896 -2.9177
   63CHL1  H22B 7126   3.302   2.456   9.056 -1.7796  0.9982  0.4457
   63CHL1   C23 7127   3.232   2.291   8.939  0.5848  0.0992 -1.0784
   63CHL1  H23A 7128   3.333   2.284   8.895  0.7734  0.7989 -0.7726
   63CHL1  H23B 7129   3.191   2.191   8.965 -0.7153  0.9416  0.3012
   63CHL1   C24 7130   3.127   2.349   8.842 -1.0184  0.5475 -0.8697
   63CHL1  H24A 7131   3.024   2.336   8.883 -1.4550 -2.8744 -2.7176
   63CHL1  H24B 7132   3.148   2.458   8.843  0.0208  0.4015  1.3960
   63CHL1   C25 7133   3.146   2.298   8.702 -0.1932  0.7701  0.5975
   63CHL1   H25 7134   3.173   2.191   8.702 -1.7866  0.3403  0.8610
   63CHL1   C26 7135   3.022   2.322   8.616  0.2580 -0.0598 -0.0432
   63CHL1  H26A 7136   2.930   2.274   8.657  0.2415 -1.0367 -1.1763
   63CHL1  H26B 7137   3.006   2.431   8.597  0.6554  0.2689  1.4259
   63CHL1  H26C 7138   3.037   2.272   8.518  1.8376 -1.6488  0.9668
   63CHL1   C27 7139   3.269   2.366   8.641 -0.2874  0.1753  0.0936
   63CHL1  H27A 7140   3.272   2.474   8.664 -1.7966  0.3835 -0.5841
   63CHL1  H27B 7141   3.362   2.316   8.678  0.4231  1.1274 -0.3493
   63CHL1  H27C 7142   3.282   2.352   8.531  1.3373 -2.4310  0.5255
   64CHL1    C3 7143   3.852   2.482  10.086 -0.1045  0.0058  0.4058
   64CHL1    H3 7144   3.750   2.445  10.062 -0.0500  0.3645 -0.3946
   64CHL1    O3 7145   3.896   2.442  10.218 -0.5583  0.0935 -0.1236
   64CHL1   H3' 7146   3.987   2.473  10.219 -0.2320 -0.8335  1.2565
   64CHL1    C4 7147   3.945   2.416   9.980 -0.0330 -0.0141  0.5302
   64CHL1   H4A 7148   4.046   2.452  10.008  1.6488 -4.2037  0.4973
   64CHL1   H4B 7149   3.951   2.307  10.000  1.1902 -0.2669 -1.0601
   64CHL1    C5 7150   3.902   2.462   9.842 -0.1240 -0.0354  0.1327
   64CHL1    C6 7151   3.867   2.379   9.739 -0.2544  0.0698  0.5473
   64CHL1    H6 7152   3.872   2.270   9.753  0.2414  0.2625  2.0528
   64CHL1    C7 7153   3.822   2.419   9.602 -0.0786  0.7098  1.0159
   64CHL1   H7A 7154   3.864   2.346   9.529 -1.3884  0.9223  0.0011
   64CHL1   H7B 7155   3.713   2.428   9.580  0.4473  3.0573 -1.0920
   64CHL1    C8 7156   3.866   2.563   9.572 -0.5412  0.1998 -0.2275
   64CHL1    H8 7157   3.977   2.564   9.567 -0.5878  0.8784 -3.1188
   64CHL1   C14 7158   3.798   2.616   9.443  0.0875 -0.0759 -0.0705
   64CHL1   H14 7159   3.688   2.608   9.458 -0.7802  4.1867 -2.5502
   64CHL1   C15 7160   3.812   2.523   9.320 -0.3025 -0.1833  0.2393
   64CHL1  H15A 7161   3.913   2.476   9.316 -0.9317 -1.6468  0.8102
   64CHL1  H15B 7162   3.734   2.445   9.334 -1.5150  0.9413 -0.0149
   64CHL1   C16 7163   3.765   2.615   9.209 -0.1464  0.1400  0.4762
   64CHL1  H16A 7164   3.850   2.625   9.138  0.0109  2.6752  0.9221
   64CHL1  H16B 7165   3.679   2.576   9.150 -0.1183 -0.0534  0.5640
   64CHL1   C17 7166   3.736   2.763   9.274  0.6055  0.5207  0.4652
   64CHL1   H17 7167   3.628   2.763   9.299  0.0549  4.4947 -1.1200
   64CHL1   C13 7168   3.815   2.763   9.404 -0.0845 -0.1387  0.0798
   64CHL1   C18 7169   3.969   2.773   9.378 -0.4949 -0.5657  0.3045
   64CHL1  H18A 7170   4.016   2.709   9.300  1.9095 -0.1062  1.2863
   64CHL1  H18B 7171   3.998   2.876   9.345 -1.5185 -0.5180 -0.5194
   64CHL1  H18C 7172   4.035   2.755   9.465  1.6700 -1.7961 -1.4932
   64CHL1   C12 7173   3.777   2.852   9.520  0.0316 -0.4201 -0.1471
   64CHL1  H12A 7174   3.792   2.958   9.490  0.9001 -0.2530  0.8272
   64CHL1  H12B 7175   3.667   2.841   9.531  0.0120  0.2810  0.4716
   64CHL1   C11 7176   3.843   2.807   9.661  0.0929 -0.4691 -0.4704
   64CHL1  H11A 7177   3.951   2.832   9.664  0.3705 -1.7347  1.3919
   64CHL1  H11B 7178   3.804   2.874   9.741  2.7973  1.3594 -0.5262
   64CHL1    C9 7179   3.828   2.655   9.695  0.2531 -0.1604 -0.0460
   64CHL1    H9 7180   3.721   2.634   9.717  0.4532 -2.7198 -1.0807
   64CHL1   C10 7181   3.897   2.617   9.824 -0.5960  0.1001 -0.2136
   64CHL1   C19 7182   4.043   2.666   9.818 -0.4645 -0.7166  0.0611
   64CHL1  H19A 7183   4.060   2.776   9.816 -1.5653 -0.5336  0.4028
   64CHL1  H19B 7184   4.108   2.638   9.904  0.2714  0.3368 -0.1324
   64CHL1  H19C 7185   4.087   2.624   9.725 -1.6627 -1.9551  0.0341
   64CHL1    C1 7186   3.828   2.686   9.948  1.0444  0.1845  0.0161
   64CHL1   H1A 7187   3.847   2.795   9.952  2.3662 -0.0597  0.9192
   64CHL1   H1B 7188   3.718   2.674   9.932  0.7650 -0.9171  2.3061
   64CHL1    C2 7189   3.872   2.635  10.081 -0.0481 -0.2556 -0.2061
   64CHL1   H2A 7190   3.814   2.699  10.150 -0.2869  2.5530 -2.7795
   64CHL1   H2B 7191   3.977   2.660  10.107  0.7061 -1.5769 -1.7461
   64CHL1   C20 7192   3.749   2.885   9.177 -0.0120 -0.0733  0.1421
   64CHL1   H20 7193   3.854   2.918   9.169 -0.9048  2.4879 -2.5212
   64CHL1   C21 7194   3.662   3.001   9.222  0.5362 -0.4516 -0.0876
   64CHL1  H21A 7195   3.688   3.016   9.329  0.1075  2.2739 -0.2943
   64CHL1  H21B 7196   3.553   2.983   9.207  0.2095  2.5287 -2.0309
   64CHL1  H21C 7197   3.699   3.088   9.164 -0.0862 -0.0464  0.1174
   64CHL1   C22 7198   3.703   2.850   9.035 -0.4489 -0.1471  0.1522
   64CHL1  H22A 7199   3.782   2.784   8.995 -0.3276 -1.1335  1.9099
   64CHL1  H22B 7200   3.609   2.791   9.027  1.1754 -3.0424  0.8245
   64CHL1   C23 7201   3.701   2.967   8.935  0.4667 -0.1694  0.4692
   64CHL1  H23A 7202   3.614   3.031   8.961  0.6311 -0.5830  2.0909
   64CHL1  H23B 7203   3.792   3.031   8.936  0.3427  0.0238 -0.1389
   64CHL1   C24 7204   3.653   2.924   8.795 -0.1205  0.4813 -0.0048
   64CHL1  H24A 7205   3.711   2.834   8.767 -0.5657 -0.6902  2.5549
   64CHL1  H24B 7206   3.547   2.891   8.784 -0.1752  0.5396  0.3168
   64CHL1   C25 7207   3.677   3.027   8.691 -1.1427 -0.5278 -0.2723
   64CHL1   H25 7208   3.770   3.084   8.710 -1.2748 -0.3673 -0.1103
   64CHL1   C26 7209   3.665   2.975   8.548  0.2349 -0.0106 -0.4254
   64CHL1  H26A 7210   3.586   2.898   8.542  0.3445 -0.0910 -0.8636
   64CHL1  H26B 7211   3.640   3.060   8.481  2.8327  0.3305 -1.0799
   64CHL1  H26C 7212   3.764   2.931   8.526  0.3419 -0.0168  0.0470
   64CHL1   C27 7213   3.580   3.144   8.705 -0.0670  0.0970 -0.4623
   64CHL1  H27A 7214   3.597   3.222   8.627 -0.5127  0.2663 -0.3903
   64CHL1  H27B 7215   3.471   3.125   8.694 -0.3552  1.6320 -0.4792
   64CHL1  H27C 7216   3.588   3.201   8.800 -2.0716  1.6359 -1.1303
   65CHL1    C3 7217   5.777   3.864  10.229  0.1573 -0.3339 -0.3218
   65CHL1    H3 7218   5.667   3.855  10.216  0.1294 -1.2549  0.4449
   65CHL1    O3 7219   5.805   3.869  10.369 -0.2508 -0.1680 -0.0014
   65CHL1   H3' 7220   5.897   3.897  10.371 -0.2295 -0.2674  0.9393
   65CHL1    C4 7221   5.848   3.747  10.155 -0.3528 -0.4888  0.2078
   65CHL1   H4A 7222   5.957   3.760  10.175 -0.4795  0.4624  0.3482
   65CHL1   H4B 7223   5.813   3.656  10.208 -0.2530 -0.3568  0.5051
   65CHL1    C5 7224   5.822   3.749  10.005  0.1999  0.0409 -0.7729
   65CHL1    C6 7225   5.771   3.643   9.939  0.5388  0.6571 -0.5319
   65CHL1    H6 7226   5.764   3.545   9.987 -0.0767  1.2479  0.6269
   65CHL1    C7 7227   5.744   3.642   9.789  0.3246 -0.1465  0.5755
   65CHL1   H7A 7228   5.768   3.550   9.732  0.7235 -1.0092  2.0563
   65CHL1   H7B 7229   5.633   3.642   9.786  0.2233  2.5313  1.4430
   65CHL1    C8 7230   5.797   3.763   9.710  0.0818 -0.5544 -0.7751
   65CHL1    H8 7231   5.907   3.757   9.698  0.5061  1.2154  1.5214
   65CHL1   C14 7232   5.727   3.783   9.574  0.0908  0.3970  0.0023
   65CHL1   H14 7233   5.620   3.801   9.594  0.2695  0.5193  0.8523
   65CHL1   C15 7234   5.723   3.666   9.470 -0.5105 -0.5778 -1.0525
   65CHL1  H15A 7235   5.822   3.618   9.454 -0.4454 -0.5999 -0.5887
   65CHL1  H15B 7236   5.650   3.587   9.498 -0.1097 -1.1819 -1.6755
   65CHL1   C16 7237   5.679   3.733   9.341 -0.0246 -0.0628  0.8938
   65CHL1  H16A 7238   5.739   3.694   9.256 -0.1849 -0.2500  0.8636
   65CHL1  H16B 7239   5.580   3.684   9.330  0.3732 -1.4034  2.7017
   65CHL1   C17 7240   5.681   3.891   9.363 -0.4681  0.4990  0.2739
   65CHL1   H17 7241   5.577   3.920   9.389 -2.0302 -1.9403 -2.6367
   65CHL1   C13 7242   5.773   3.908   9.492 -0.6628 -0.6739 -0.3206
   65CHL1   C18 7243   5.923   3.910   9.443 -0.2821  0.1551  0.4740
   65CHL1  H18A 7244   5.946   3.845   9.356  3.0022  0.5219  0.9146
   65CHL1  H18B 7245   5.953   4.016   9.428  0.3778  0.1796  1.7930
   65CHL1  H18C 7246   5.993   3.870   9.520  1.0291  2.8349  0.7968
   65CHL1   C12 7247   5.745   4.034   9.577  0.3292  0.0030 -0.4691
   65CHL1  H12A 7248   5.777   4.132   9.535  2.1330  0.8417  2.5710
   65CHL1  H12B 7249   5.637   4.044   9.603  0.1178 -0.8310 -0.9857
   65CHL1   C11 7250   5.817   4.015   9.715 -0.3767 -0.4397 -0.3352
   65CHL1  H11A 7251   5.926   4.017   9.693 -0.3005  0.5033  0.0778
   65CHL1  H11B 7252   5.808   4.106   9.778  2.1427 -0.9143  0.8259
   65CHL1    C9 7253   5.775   3.889   9.792 -0.3904  0.5666 -0.0917
   65CHL1    H9 7254   5.665   3.899   9.800 -0.2454  1.8421  0.7686
   65CHL1   C10 7255   5.843   3.893   9.934  0.3124  0.6804 -0.7166
   65CHL1   C19 7256   5.998   3.908   9.925  0.2802 -0.1957  0.0810
   65CHL1  H19A 7257   6.033   3.847   9.839 -2.0239 -0.2852 -0.8834
   65CHL1  H19B 7258   6.025   4.015   9.917  1.1030 -0.3478  0.7427
   65CHL1  H19C 7259   6.040   3.877  10.023  1.5364 -0.1932 -0.4389
   65CHL1    C1 7260   5.789   4.006  10.016 -0.0049 -0.3508 -0.6243
   65CHL1   H1A 7261   5.810   4.111   9.986  0.3919 -0.0849  0.5262
   65CHL1   H1B 7262   5.678   4.004  10.008  0.0965 -0.3359 -2.3850
   65CHL1    C2 7263   5.823   4.003  10.165  0.9004 -0.3357  0.7605
   65CHL1   H2A 7264   5.773   4.090  10.213  1.2473  1.3302 -1.6966
   65CHL1   H2B 7265   5.933   4.009  10.179  1.5880  1.8999 -3.8194
   65CHL1   C20 7266   5.714   3.963   9.230  0.3385 -0.1198  0.1211
   65CHL1   H20 7267   5.820   3.940   9.207  0.4885 -1.9303  2.2828
   65CHL1   C21 7268   5.709   4.115   9.255  0.0124 -1.0696  0.3033
   65CHL1  H21A 7269   5.691   4.177   9.165 -0.3211  0.3755  1.3322
   65CHL1  H21B 7270   5.802   4.148   9.306 -0.1143 -1.2200  0.6412
   65CHL1  H21C 7271   5.622   4.136   9.322  0.4603  2.7493 -0.1192
   65CHL1   C22 7272   5.624   3.921   9.110  0.3649 -0.1079 -0.0442
   65CHL1  H22A 7273   5.664   3.974   9.021  0.5779 -1.3050 -0.6922
   65CHL1  H22B 7274   5.634   3.811   9.097  0.8506 -0.2086  1.0494
   65CHL1   C23 7275   5.473   3.957   9.124 -0.3016 -0.3302 -0.0811
   65CHL1  H23A 7276   5.446   3.882   9.202  1.5614 -0.1164  0.8343
   65CHL1  H23B 7277   5.454   4.057   9.167  1.8281 -0.3467  1.0576
   65CHL1   C24 7278   5.390   3.923   8.999  0.1485 -0.1506  0.0499
   65CHL1  H24A 7279   5.403   3.817   8.968 -0.6164  0.1032 -1.2332
   65CHL1  H24B 7280   5.285   3.928   9.034  0.9562 -0.3644  2.7371
   65CHL1   C25 7281   5.408   4.021   8.876 -0.6950 -0.0149  0.3476
   65CHL1   H25 7282   5.503   3.996   8.825  0.2860  1.2567  1.4520
   65CHL1   C26 7283   5.298   4.010   8.769 -0.5649  0.0865 -0.3190
   65CHL1  H26A 7284   5.315   3.913   8.717 -2.6621  0.5572 -1.9596
   65CHL1  H26B 7285   5.201   4.029   8.820 -0.0820  3.7230 -0.4969
   65CHL1  H26C 7286   5.327   4.087   8.695  0.8184 -0.4060 -0.3155
   65CHL1   C27 7287   5.405   4.167   8.916 -0.2665  0.1232  0.7399
   65CHL1  H27A 7288   5.388   4.245   8.839  2.8978  1.4535  1.2203
   65CHL1  H27B 7289   5.328   4.176   8.995  0.8288 -1.4641  2.0800
   65CHL1  H27C 7290   5.505   4.193   8.959  1.1455 -0.3541 -2.0460
   66CHL1    C3 7291   3.476   3.195  10.325 -0.1784  0.1945 -0.3351
   66CHL1    H3 7292   3.406   3.281  10.324 -0.7343 -0.2294  0.8759
   66CHL1    O3 7293   3.470   3.136  10.450 -0.6235 -0.3095  0.1860
   66CHL1   H3' 7294   3.516   3.052  10.454 -1.3209 -0.8126 -1.5064
   66CHL1    C4 7295   3.432   3.092  10.220 -0.1121  0.3449  0.5358
   66CHL1   H4A 7296   3.492   2.998  10.229 -1.1606 -0.3937  0.0708
   66CHL1   H4B 7297   3.332   3.049  10.243  0.4061 -1.9264 -1.0288
   66CHL1    C5 7298   3.432   3.154  10.083 -0.0118  0.2925 -0.0614
   66CHL1    C6 7299   3.313   3.171  10.022  0.5818  0.6487  0.6074
   66CHL1    H6 7300   3.220   3.141  10.073 -1.7638 -0.0115 -3.6265
   66CHL1    C7 7301   3.303   3.221   9.878 -0.2672 -0.1627 -0.1387
   66CHL1   H7A 7302   3.250   3.147   9.815  2.5373 -1.6096 -0.9857
   66CHL1   H7B 7303   3.270   3.327   9.885  3.1300  1.0304 -0.2817
   66CHL1    C8 7304   3.437   3.235   9.801  0.1997 -0.3472  0.5336
   66CHL1    H8 7305   3.467   3.136   9.762 -0.0286 -0.6992  1.2411
   66CHL1   C14 7306   3.424   3.332   9.681 -0.5117 -0.2606  0.7175
   66CHL1   H14 7307   3.399   3.429   9.729  0.6699  0.0807  0.6632
   66CHL1   C15 7308   3.308   3.306   9.592  0.2172  0.1651  0.5241
   66CHL1  H15A 7309   3.291   3.198   9.570  1.3166  0.2331 -0.8341
   66CHL1  H15B 7310   3.211   3.340   9.634 -0.7028 -0.2953 -1.1235
   66CHL1   C16 7311   3.340   3.390   9.472 -0.6404  0.9029 -0.2425
   66CHL1  H16A 7312   3.344   3.330   9.379 -0.1133 -1.1913  1.0578
   66CHL1  H16B 7313   3.268   3.472   9.448 -2.1627 -0.5078 -0.6897
   66CHL1   C17 7314   3.476   3.461   9.498 -0.2693  0.7766  0.0242
   66CHL1   H17 7315   3.445   3.546   9.563  1.0011 -0.0043  1.7531
   66CHL1   C13 7316   3.550   3.369   9.602 -0.1088 -0.3756  0.3165
   66CHL1   C18 7317   3.595   3.236   9.531  0.0830 -0.8815  0.3088
   66CHL1  H18A 7318   3.607   3.165   9.616  0.8535  0.9664  1.8260
   66CHL1  H18B 7319   3.522   3.199   9.456  1.7988  0.3884 -2.1184
   66CHL1  H18C 7320   3.690   3.266   9.483 -0.7769  1.8071  0.1389
   66CHL1   C12 7321   3.647   3.430   9.704 -0.8404 -0.3358  0.8214
   66CHL1  H12A 7322   3.745   3.449   9.656 -0.8636 -0.0533  0.8872
   66CHL1  H12B 7323   3.605   3.530   9.727 -0.5553  0.2592 -1.0906
   66CHL1   C11 7324   3.676   3.335   9.822 -0.8544 -0.1729  0.2795
   66CHL1  H11A 7325   3.725   3.247   9.776 -0.3677  0.5307 -0.5933
   66CHL1  H11B 7326   3.753   3.365   9.897 -1.6653  2.2575  0.2463
   66CHL1    C9 7327   3.541   3.290   9.892 -0.5375 -0.1935  0.6591
   66CHL1    H9 7328   3.503   3.390   9.919  0.6771  1.0374 -1.8304
   66CHL1   C10 7329   3.567   3.202  10.023  0.2723 -0.4171  0.1419
   66CHL1   C19 7330   3.663   3.082   9.992  0.4692 -0.4325 -0.7389
   66CHL1  H19A 7331   3.761   3.112   9.948  0.4281 -0.9463 -1.1894
   66CHL1  H19B 7332   3.684   3.030  10.088 -0.8096  1.0361  0.3818
   66CHL1  H19C 7333   3.598   3.020   9.927 -1.7839 -0.2114  1.1545
   66CHL1    C1 7334   3.625   3.294  10.140  0.2945  0.6724 -0.7689
   66CHL1   H1A 7335   3.733   3.305  10.117  0.0976 -0.5511 -2.4312
   66CHL1   H1B 7336   3.570   3.391  10.131 -0.2090  0.6102  1.1085
   66CHL1    C2 7337   3.607   3.243  10.292 -0.6867 -0.0126  0.7267
   66CHL1   H2A 7338   3.651   3.307  10.371  1.1681 -0.5051  0.1439
   66CHL1   H2B 7339   3.678   3.158  10.290  0.9911  1.2738 -2.5585
   66CHL1   C20 7340   3.545   3.515   9.374 -0.3629 -0.2061 -0.2296
   66CHL1   H20 7341   3.587   3.429   9.317  1.3787 -0.5133  1.4348
   66CHL1   C21 7342   3.676   3.591   9.416  0.2218  0.2397  0.8949
   66CHL1  H21A 7343   3.764   3.528   9.441 -0.3919 -0.6049  1.0033
   66CHL1  H21B 7344   3.663   3.658   9.503  2.4138 -0.9620  2.2609
   66CHL1  H21C 7345   3.714   3.665   9.342  1.5163 -0.6800  0.5994
   66CHL1   C22 7346   3.454   3.615   9.297  0.4902 -0.3060  0.2172
   66CHL1  H22A 7347   3.360   3.558   9.282  0.3413 -0.4648  1.6340
   66CHL1  H22B 7348   3.449   3.701   9.368 -0.2395  1.2874 -1.6501
   66CHL1   C23 7349   3.502   3.656   9.152 -0.1951 -0.4855 -0.4727
   66CHL1  H23A 7350   3.603   3.701   9.156 -0.3836  0.0229 -1.1673
   66CHL1  H23B 7351   3.498   3.559   9.097 -0.2624 -0.2162 -0.9468
   66CHL1   C24 7352   3.410   3.738   9.064  0.3924  0.3923 -0.2016
   66CHL1  H24A 7353   3.317   3.679   9.050 -0.1278  0.9141  0.9255
   66CHL1  H24B 7354   3.382   3.833   9.114  1.6511  0.2439  0.8383
   66CHL1   C25 7355   3.450   3.768   8.921  0.0513 -0.2550  0.8386
   66CHL1   H25 7356   3.505   3.681   8.879 -0.2786 -0.1413  0.1590
   66CHL1   C26 7357   3.336   3.798   8.828  0.6290 -0.4541  0.8468
   66CHL1  H26A 7358   3.379   3.839   8.735  0.2381 -0.3732  0.7013
   66CHL1  H26B 7359   3.283   3.705   8.797 -0.2310  0.0308  0.8222
   66CHL1  H26C 7360   3.269   3.875   8.872  0.7287 -0.8769  1.7621
   66CHL1   C27 7361   3.552   3.883   8.908 -0.6689 -0.1400  0.4965
   66CHL1  H27A 7362   3.510   3.984   8.924  1.3554  1.0933 -1.3015
   66CHL1  H27B 7363   3.624   3.847   8.985  0.1793 -0.3514 -0.3629
   66CHL1  H27C 7364   3.604   3.886   8.809  0.6085 -0.2697  1.1344
   67CHL1    C3 7365   0.503   3.473  10.149  0.1891 -0.1071  0.2399
   67CHL1    H3 7366   0.520   3.371  10.108 -1.2263 -0.0097 -0.6766
   67CHL1    O3 7367   0.505   3.466  10.288 -0.1416 -0.0547 -0.0402
   67CHL1   H3' 7368   0.462   3.541  10.329  1.1105 -0.0991  1.4616
   67CHL1    C4 7369   0.619   3.568  10.110 -0.0886  0.6674  0.4064
   67CHL1   H4A 7370   0.605   3.666  10.161 -0.0128  1.9174 -1.8533
   67CHL1   H4B 7371   0.710   3.527  10.158 -2.5643 -2.2653  3.0106
   67CHL1    C5 7372   0.633   3.579   9.961 -0.1640 -1.0449  0.4567
   67CHL1    C6 7373   0.744   3.539   9.900  0.9644  0.0625 -0.6930
   67CHL1    H6 7374   0.828   3.492   9.951 -0.3130 -2.3047 -0.6565
   67CHL1    C7 7375   0.761   3.558   9.751  0.5471  0.1353 -0.1157
   67CHL1   H7A 7376   0.855   3.611   9.726 -0.0616  1.0577 -0.4772
   67CHL1   H7B 7377   0.768   3.464   9.691  0.5758  0.0903 -0.0424
   67CHL1    C8 7378   0.642   3.627   9.672 -0.3589  0.0433 -0.5496
   67CHL1    H8 7379   0.660   3.737   9.678  0.0388 -0.0129 -0.6804
   67CHL1   C14 7380   0.645   3.587   9.529  0.1825  0.2578  0.3010
   67CHL1   H14 7381   0.620   3.480   9.517  1.5926  0.0727 -1.2786
   67CHL1   C15 7382   0.772   3.607   9.448 -0.6108 -0.0547  0.0616
   67CHL1  H15A 7383   0.815   3.709   9.456  2.6232 -1.0224 -2.4978
   67CHL1  H15B 7384   0.853   3.533   9.469 -2.3931 -2.1602 -0.1133
   67CHL1   C16 7385   0.718   3.581   9.308  0.7388  0.1787  0.7104
   67CHL1  H16A 7386   0.777   3.649   9.242  2.0054 -1.9114 -0.4416
   67CHL1  H16B 7387   0.735   3.474   9.283  1.0725  0.5256 -0.6339
   67CHL1   C17 7388   0.568   3.605   9.305  0.9155  0.4303 -0.6504
   67CHL1   H17 7389   0.524   3.504   9.295 -1.5596  1.2067  1.3967
   67CHL1   C13 7390   0.540   3.657   9.449  0.6209  0.1553  0.4860
   67CHL1   C18 7391   0.566   3.813   9.450  0.1631  0.6501  0.0613
   67CHL1  H18A 7392   0.547   3.842   9.555  0.1147  0.2376  0.1657
   67CHL1  H18B 7393   0.668   3.844   9.420  0.6381  0.3099  1.2662
   67CHL1  H18C 7394   0.495   3.872   9.388 -0.0563  0.8133  0.4679
   67CHL1   C12 7395   0.401   3.618   9.509  0.3678  0.0763 -0.0051
   67CHL1  H12A 7396   0.319   3.666   9.452 -1.0367 -1.1959  0.8696
   67CHL1  H12B 7397   0.384   3.510   9.490 -0.8999 -0.0851  1.7857
   67CHL1   C11 7398   0.388   3.654   9.651  0.3706 -1.0226 -0.7561
   67CHL1  H11A 7399   0.388   3.765   9.655  1.2990 -1.0026 -1.0369
   67CHL1  H11B 7400   0.296   3.611   9.696  0.9195  0.2854  1.8684
   67CHL1    C9 7401   0.509   3.596   9.736 -0.6466 -0.2163  0.3367
   67CHL1    H9 7402   0.498   3.487   9.723 -0.4855  0.0155 -2.4259
   67CHL1   C10 7403   0.503   3.633   9.889 -0.2830  0.4317 -0.3926
   67CHL1   C19 7404   0.490   3.783   9.909 -0.5573  0.0649  0.2712
   67CHL1  H19A 7405   0.565   3.834   9.844  0.1593 -0.7852  0.3990
   67CHL1  H19B 7406   0.391   3.807   9.866 -0.7928  0.8070  1.1849
   67CHL1  H19C 7407   0.490   3.830  10.010 -0.3190  2.6449 -0.8590
   67CHL1    C1 7408   0.377   3.555   9.946 -0.6994  0.7243  0.2918
   67CHL1   H1A 7409   0.298   3.620   9.903  0.0229 -0.5648 -3.3542
   67CHL1   H1B 7410   0.371   3.460   9.888 -1.4517  1.2314 -0.4799
   67CHL1    C2 7411   0.370   3.533  10.094 -0.1317 -0.0407 -0.2062
   67CHL1   H2A 7412   0.278   3.485  10.134  0.4358 -1.8341 -0.9343
   67CHL1   H2B 7413   0.375   3.640  10.124 -1.0316 -0.6826  2.4994
   67CHL1   C20 7414   0.530   3.689   9.187  0.3365 -0.3857 -0.5013
   67CHL1   H20 7415   0.577   3.788   9.204 -1.3347  0.2393  0.7871
   67CHL1   C21 7416   0.377   3.713   9.180  0.8857 -0.2677  0.6175
   67CHL1  H21A 7417   0.318   3.622   9.154 -1.9792  1.9793 -1.3784
   67CHL1  H21B 7418   0.360   3.790   9.102  0.5616 -1.1422 -0.1946
   67CHL1  H21C 7419   0.335   3.757   9.273  1.6827 -2.1224  1.9178
   67CHL1   C22 7420   0.573   3.620   9.055  0.0549 -0.2241 -0.2441
   67CHL1  H22A 7421   0.668   3.564   9.066 -0.2150 -0.6162  0.1503
   67CHL1  H22B 7422   0.507   3.535   9.026  0.6187 -0.8620  0.3205
   67CHL1   C23 7423   0.579   3.713   8.938 -0.2060 -0.5433  0.6246
   67CHL1  H23A 7424   0.619   3.663   8.847 -0.4878 -0.5595  0.5082
   67CHL1  H23B 7425   0.477   3.738   8.903  0.0401 -0.3081  0.0585
   67CHL1   C24 7426   0.659   3.844   8.941 -0.2897  0.7306 -0.1543
   67CHL1  H24A 7427   0.622   3.909   9.023  2.5351  2.5399 -0.1649
   67CHL1  H24B 7428   0.767   3.829   8.962 -0.0335  2.4774 -0.0123
   67CHL1   C25 7429   0.659   3.938   8.826 -0.1115 -1.1424  0.7711
   67CHL1   H25 7430   0.559   3.938   8.778  0.3818  2.9330 -0.6250
   67CHL1   C26 7431   0.699   4.083   8.870  0.5702  0.8091  0.1760
   67CHL1  H26A 7432   0.731   4.134   8.777  1.2776  0.5650  0.2764
   67CHL1  H26B 7433   0.614   4.137   8.917 -0.8837 -2.5697  1.7462
   67CHL1  H26C 7434   0.784   4.084   8.942 -0.0165 -2.3597  1.0647
   67CHL1   C27 7435   0.758   3.890   8.717  0.5053 -0.2029 -0.4856
   67CHL1  H27A 7436   0.723   3.798   8.665  1.4569  0.4000 -2.2877
   67CHL1  H27B 7437   0.758   3.973   8.643 -2.8616  3.2266  2.8629
   67CHL1  H27C 7438   0.859   3.873   8.760  0.5957 -2.2499 -1.4200
   68CHL1    C3 7439   0.603   5.348  10.133 -0.4450  0.8103 -0.0053
   68CHL1    H3 7440   0.501   5.390  10.122 -0.7363 -0.4078 -3.0594
   68CHL1    O3 7441   0.622   5.317  10.271 -0.3448  0.7728  0.2592
   68CHL1   H3' 7442   0.715   5.321  10.294 -0.3779  1.6573  0.2586
   68CHL1    C4 7443   0.605   5.224  10.046 -0.1052  0.7858  0.8858
   68CHL1   H4A 7444   0.697   5.165  10.069  0.3799  1.8929  1.9323
   68CHL1   H4B 7445   0.524   5.156  10.080 -0.0218  0.3324  0.1872
   68CHL1    C5 7446   0.606   5.247   9.892  0.1075  0.6204 -0.3942
   68CHL1    C6 7447   0.511   5.185   9.812 -0.4217  0.2787 -0.3884
   68CHL1    H6 7448   0.433   5.122   9.856  0.2238 -0.3455 -0.1076
   68CHL1    C7 7449   0.502   5.209   9.667 -0.2929 -0.2018  0.0998
   68CHL1   H7A 7450   0.494   5.113   9.611 -0.3818  1.1130 -2.3025
   68CHL1   H7B 7451   0.416   5.272   9.637 -0.0777 -0.9130 -2.2765
   68CHL1    C8 7452   0.634   5.267   9.614  0.1661  0.1556 -0.0644
   68CHL1    H8 7453   0.719   5.195   9.612 -0.1657 -0.2791  0.8832
   68CHL1   C14 7454   0.612   5.308   9.464 -0.1463  0.0140  0.2554
   68CHL1   H14 7455   0.527   5.377   9.482  0.0238  0.7344 -1.4702
   68CHL1   C15 7456   0.566   5.200   9.366 -0.1394 -0.6681  1.0873
   68CHL1  H15A 7457   0.631   5.114   9.394  1.8484 -0.0129 -1.1917
   68CHL1  H15B 7458   0.458   5.178   9.382 -0.2657 -2.8919 -1.8593
   68CHL1   C16 7459   0.594   5.257   9.229  0.8188 -0.0088  0.3440
   68CHL1  H16A 7460   0.655   5.199   9.155  1.2006  2.0279 -1.0092
   68CHL1  H16B 7461   0.497   5.278   9.180  0.6071 -1.7730 -0.0721
   68CHL1   C17 7462   0.652   5.401   9.253  0.5021  0.4142  0.2503
   68CHL1   H17 7463   0.570   5.473   9.272  0.5323 -0.3335  4.0293
   68CHL1   C13 7464   0.716   5.394   9.399 -0.4682 -0.7405 -0.0951
   68CHL1   C18 7465   0.856   5.325   9.387  0.4332  0.7532  0.2676
   68CHL1  H18A 7466   0.904   5.332   9.487  0.9169  2.0047 -0.0409
   68CHL1  H18B 7467   0.835   5.218   9.367 -1.5062  1.0281  0.5958
   68CHL1  H18C 7468   0.929   5.370   9.317  2.5509 -0.3766  1.6265
   68CHL1   C12 7469   0.723   5.524   9.483  0.2144 -0.8942  0.7194
   68CHL1  H12A 7470   0.792   5.601   9.443 -3.0941  2.2175  0.4707
   68CHL1  H12B 7471   0.623   5.570   9.470  1.4132  1.4985 -0.6257
   68CHL1   C11 7472   0.753   5.494   9.626 -0.0234  0.1309  0.5068
   68CHL1  H11A 7473   0.860   5.465   9.628 -0.2686 -1.0821 -1.2940
   68CHL1  H11B 7474   0.754   5.589   9.684  2.8517  1.6349 -1.7571
   68CHL1    C9 7475   0.655   5.391   9.690  0.1056 -0.5358 -0.3715
   68CHL1    H9 7476   0.556   5.441   9.703  0.9816  0.6848  2.6484
   68CHL1   C10 7477   0.703   5.354   9.838  0.1983 -0.2327  0.1887
   68CHL1   C19 7478   0.854   5.297   9.843 -0.0116  0.0823  0.2498
   68CHL1  H19A 7479   0.876   5.267   9.947  0.4823 -2.4029 -0.5247
   68CHL1  H19B 7480   0.868   5.204   9.784 -1.9821  0.8144 -1.5381
   68CHL1  H19C 7481   0.912   5.384   9.804 -3.1053  1.3210 -2.0450
   68CHL1    C1 7482   0.684   5.475   9.930 -0.4318  0.2173 -0.0281
   68CHL1   H1A 7483   0.766   5.547   9.906  0.0951 -0.4927 -0.3986
   68CHL1   H1B 7484   0.586   5.524   9.910 -0.6463  0.2763  1.1177
   68CHL1    C2 7485   0.701   5.438  10.076 -0.1019 -0.0813 -0.3468
   68CHL1   H2A 7486   0.691   5.536  10.128 -0.7790 -0.7737  0.8804
   68CHL1   H2B 7487   0.804   5.401  10.095  0.3284  0.6896 -1.1274
   68CHL1   C20 7488   0.733   5.445   9.133  0.0677 -0.4627  0.2249
   68CHL1   H20 7489   0.805   5.361   9.121 -0.9931 -1.3887  0.2054
   68CHL1   C21 7490   0.789   5.583   9.169  0.2772 -0.1561  0.3708
   68CHL1  H21A 7491   0.705   5.655   9.179  1.1343  0.6013  2.7311
   68CHL1  H21B 7492   0.849   5.619   9.083  1.2937  0.6695  1.3908
   68CHL1  H21C 7493   0.857   5.579   9.257  0.0864  1.0127  0.5924
   68CHL1   C22 7494   0.640   5.459   9.005 -0.1046 -0.0996 -0.6783
   68CHL1  H22A 7495   0.573   5.371   8.995  0.0959 -0.6682  2.1902
   68CHL1  H22B 7496   0.576   5.548   9.015  0.5087  0.2108  0.6735
   68CHL1   C23 7497   0.721   5.464   8.875 -0.0728 -0.9209  0.5962
   68CHL1  H23A 7498   0.775   5.559   8.854 -2.9623  0.3857 -1.5215
   68CHL1  H23B 7499   0.795   5.381   8.872  0.3984 -0.4855 -0.1495
   68CHL1   C24 7500   0.641   5.437   8.747 -0.4687  0.6929  0.2550
   68CHL1  H24A 7501   0.587   5.340   8.741  2.8727 -1.2910 -0.1851
   68CHL1  H24B 7502   0.565   5.518   8.743 -0.7199  0.4996  0.9966
   68CHL1   C25 7503   0.733   5.452   8.623 -0.2459 -0.6021  0.3115
   68CHL1   H25 7504   0.797   5.541   8.640 -1.3138  0.6701 -1.9408
   68CHL1   C26 7505   0.825   5.332   8.622 -0.9334  0.4203 -0.1427
   68CHL1  H26A 7506   0.902   5.340   8.702  0.8960  0.0683 -1.7897
   68CHL1  H26B 7507   0.760   5.244   8.640  1.1039 -1.0864  0.2300
   68CHL1  H26C 7508   0.878   5.327   8.524 -2.4685 -3.1007 -0.9485
   68CHL1   C27 7509   0.653   5.477   8.493 -0.0352  0.2102 -0.6805
   68CHL1  H27A 7510   0.579   5.399   8.466 -1.9159  1.8388 -0.5400
   68CHL1  H27B 7511   0.602   5.576   8.488 -1.4965 -0.4356  0.7487
   68CHL1  H27C 7512   0.724   5.476   8.408  0.4281 -1.6516 -0.3168
   69CHL1    C3 7513   6.805   5.858   6.651  0.8952 -0.0289 -1.0075
   69CHL1    H3 7514   6.707   5.807   6.648  1.3481 -1.0129  0.0986
   69CHL1    O3 7515   6.861   5.836   6.528  0.0791 -0.3444  0.1236
   69CHL1   H3' 7516   6.954   5.839   6.551  0.2892 -0.5510 -0.6588
   69CHL1    C4 7517   6.788   6.012   6.678  0.5803  0.7800 -0.0548
   69CHL1   H4A 7518   6.883   6.063   6.652  0.9881 -1.0678 -2.5756
   69CHL1   H4B 7519   6.714   6.053   6.605  1.6854  2.2277 -0.3948
   69CHL1    C5 7520   6.753   6.052   6.819  0.1111 -0.4061 -0.1658
   69CHL1    C6 7521   6.651   6.121   6.854  0.5556  0.4917 -0.2631
   69CHL1    H6 7522   6.590   6.173   6.779 -2.2731  0.3345  1.7737
   69CHL1    C7 7523   6.611   6.154   6.996  0.4931 -0.1309 -0.6108
   69CHL1   H7A 7524   6.583   6.261   7.007 -0.3276 -0.3223 -0.8034
   69CHL1   H7B 7525   6.523   6.097   7.032 -0.5039  1.0379 -1.1368
   69CHL1    C8 7526   6.727   6.130   7.099  0.1132 -0.2184  0.3523
   69CHL1    H8 7527   6.800   6.213   7.092 -1.3187  1.2562  1.9412
   69CHL1   C14 7528   6.668   6.129   7.238 -0.3263 -0.9740  0.6555
   69CHL1   H14 7529   6.602   6.041   7.255 -0.1312 -1.1265  0.6356
   69CHL1   C15 7530   6.574   6.246   7.290  0.0902 -0.4385 -0.4603
   69CHL1  H15A 7531   6.624   6.343   7.270 -0.4694  0.3372  1.5906
   69CHL1  H15B 7532   6.468   6.241   7.258  0.2345  0.0547 -1.0278
   69CHL1   C16 7533   6.582   6.234   7.445 -0.0581  0.0859 -0.1472
   69CHL1  H16A 7534   6.605   6.334   7.487  1.6665  0.0118 -0.8187
   69CHL1  H16B 7535   6.480   6.196   7.471  0.2995  0.3235  1.7333
   69CHL1   C17 7536   6.690   6.127   7.481 -0.0733  0.4956  0.7691
   69CHL1   H17 7537   6.632   6.033   7.499 -0.0358  0.4065  0.4191
   69CHL1   C13 7538   6.775   6.105   7.351 -0.3393  0.9722 -0.2531
   69CHL1   C18 7539   6.894   6.209   7.347 -0.4158  0.1817 -0.1802
   69CHL1  H18A 7540   6.858   6.305   7.390  3.7021  0.4623  3.3893
   69CHL1  H18B 7541   6.978   6.172   7.409 -0.0417 -0.3102 -0.9736
   69CHL1  H18C 7542   6.942   6.225   7.248  0.8000  2.9624  0.7491
   69CHL1   C12 7543   6.830   5.959   7.318 -0.6192 -0.5041 -0.0434
   69CHL1  H12A 7544   6.903   5.929   7.396  0.7276  3.4244  0.4039
   69CHL1  H12B 7545   6.741   5.893   7.325 -2.3462  1.7771  0.6817
   69CHL1   C11 7546   6.885   5.946   7.179  0.6924  0.0165 -1.4453
   69CHL1  H11A 7547   6.978   6.005   7.190  0.8239 -0.6249  1.9460
   69CHL1  H11B 7548   6.913   5.840   7.163  0.2089 -0.7695  2.1654
   69CHL1    C9 7549   6.790   5.996   7.071 -0.3641 -0.0266 -0.6482
   69CHL1    H9 7550   6.701   5.932   7.089 -0.1224 -0.1309  0.1959
   69CHL1   C10 7551   6.843   5.991   6.927  0.4380  0.0654  0.1917
   69CHL1   C19 7552   6.981   6.063   6.917  0.1206  0.8989  0.0306
   69CHL1  H19A 7553   7.051   5.997   6.973 -1.7579 -1.4478 -0.2549
   69CHL1  H19B 7554   7.013   6.074   6.811  0.2701  0.2619  0.0104
   69CHL1  H19C 7555   6.975   6.161   6.971  2.7102  2.0180 -1.5137
   69CHL1    C1 7556   6.855   5.842   6.895 -0.5706 -0.1205 -0.1043
   69CHL1   H1A 7557   6.924   5.797   6.969  1.5638  2.1291 -0.5843
   69CHL1   H1B 7558   6.758   5.799   6.926 -0.6037 -1.2133 -1.6158
   69CHL1    C2 7559   6.894   5.802   6.757 -0.1070 -0.3556  0.2668
   69CHL1   H2A 7560   6.903   5.692   6.752  1.6962 -0.2284  0.1140
   69CHL1   H2B 7561   6.997   5.839   6.738  0.4257 -2.3624 -1.0357
   69CHL1   C20 7562   6.762   6.154   7.616 -0.1147 -0.1584 -0.6872
   69CHL1   H20 7563   6.831   6.240   7.603 -0.5889  0.3426  0.0488
   69CHL1   C21 7564   6.853   6.027   7.651  1.2412 -0.7994  0.8047
   69CHL1  H21A 7565   6.874   6.047   7.758 -0.9353 -0.8947  1.3037
   69CHL1  H21B 7566   6.945   6.006   7.593  1.7648 -1.3665  1.8228
   69CHL1  H21C 7567   6.782   5.942   7.645 -1.6670  1.4692  0.2350
   69CHL1   C22 7568   6.669   6.209   7.725 -0.0617  0.4081 -0.0894
   69CHL1  H22A 7569   6.635   6.312   7.705  1.2343  1.0866  1.0537
   69CHL1  H22B 7570   6.581   6.142   7.737  0.1751  0.1068 -0.0300
   69CHL1   C23 7571   6.725   6.215   7.870  1.0960 -0.3431 -0.3887
   69CHL1  H23A 7572   6.716   6.117   7.921  1.8085  0.4970  1.4399
   69CHL1  H23B 7573   6.831   6.248   7.865  0.6871  0.9822 -0.7518
   69CHL1   C24 7574   6.653   6.309   7.961  0.1881 -0.0948 -0.1795
   69CHL1  H24A 7575   6.685   6.410   7.927  2.2742  0.1197  2.1849
   69CHL1  H24B 7576   6.542   6.303   7.950  0.1683  1.9757 -1.5957
   69CHL1   C25 7577   6.675   6.297   8.110  0.1932  0.4811 -0.3578
   69CHL1   H25 7578   6.783   6.298   8.139  0.2291 -2.0591 -0.2174
   69CHL1   C26 7579   6.626   6.429   8.165  1.6375 -0.2983 -0.5263
   69CHL1  H26A 7580   6.675   6.520   8.123 -1.2384  2.9485  2.4698
   69CHL1  H26B 7581   6.515   6.438   8.160  1.5800 -0.8468 -0.2918
   69CHL1  H26C 7582   6.646   6.433   8.274  1.7198  1.6248 -0.5772
   69CHL1   C27 7583   6.608   6.174   8.162 -0.5539 -0.0954 -0.2281
   69CHL1  H27A 7584   6.634   6.151   8.268 -0.0286 -0.5294 -0.4486
   69CHL1  H27B 7585   6.497   6.187   8.161 -0.5243  0.2019  0.1563
   69CHL1  H27C 7586   6.648   6.093   8.097  1.1845  2.5885 -2.6996
   70CHL1    C3 7587   3.356   1.133   7.095  0.3008 -0.2857 -0.2521
   70CHL1    H3 7588   3.467   1.140   7.105  0.6916 -2.7815 -2.1209
   70CHL1    O3 7589   3.331   1.115   6.958  0.0682  0.1937  0.8507
   70CHL1   H3' 7590   3.318   1.205   6.926  0.9259 -0.0189 -0.1325
   70CHL1    C4 7591   3.309   1.021   7.186  0.2845  0.0718 -0.2326
   70CHL1   H4A 7592   3.203   0.996   7.164  0.4513 -1.2800  0.3768
   70CHL1   H4B 7593   3.373   0.932   7.168  0.2550 -0.3608  1.5516
   70CHL1    C5 7594   3.320   1.048   7.334 -0.2863 -0.6041 -0.9205
   70CHL1    C6 7595   3.404   0.972   7.412 -0.1511 -0.2511  0.1421
   70CHL1    H6 7596   3.452   0.882   7.372 -0.6716 -0.4037 -0.1416
   70CHL1    C7 7597   3.419   0.996   7.557 -0.2392 -0.2781  0.6253
   70CHL1   H7A 7598   3.412   0.898   7.608 -0.2503 -0.1241  0.9239
   70CHL1   H7B 7599   3.520   1.038   7.576 -0.5516  0.4341  0.7653
   70CHL1    C8 7600   3.310   1.091   7.611  0.3060  0.1636 -0.3685
   70CHL1    H8 7601   3.211   1.041   7.613  0.1946  0.3867  1.3643
   70CHL1   C14 7602   3.344   1.126   7.755  0.4468  0.4422  0.6782
   70CHL1   H14 7603   3.447   1.167   7.743  0.5972  0.0743  0.6813
   70CHL1   C15 7604   3.374   1.011   7.851  0.2247  0.8629  0.6728
   70CHL1  H15A 7605   3.303   0.930   7.828  0.4224  0.1232  2.4863
   70CHL1  H15B 7606   3.474   0.966   7.833 -0.5768 -0.8912  0.4849
   70CHL1   C16 7607   3.356   1.075   7.988  0.4861  0.2732  0.2729
   70CHL1  H16A 7608   3.282   1.016   8.047  0.3583 -1.3513 -1.4083
   70CHL1  H16B 7609   3.453   1.074   8.041  0.2638  1.3655  0.7182
   70CHL1   C17 7610   3.321   1.224   7.966  0.0010  0.2214  0.2697
   70CHL1   H17 7611   3.418   1.277   7.958  0.5692 -0.4625  2.2028
   70CHL1   C13 7612   3.253   1.230   7.825 -0.2655 -0.0448  0.5651
   70CHL1   C18 7613   3.111   1.174   7.836 -0.6751 -0.8669 -0.6020
   70CHL1  H18A 7614   3.066   1.144   7.739  0.9630  0.7182 -1.9211
   70CHL1  H18B 7615   3.107   1.081   7.897  1.5513 -1.2235 -0.9148
   70CHL1  H18C 7616   3.043   1.242   7.892 -0.1766 -0.0747 -0.9359
   70CHL1   C12 7617   3.256   1.359   7.743 -0.7141  0.5461 -1.0794
   70CHL1  H12A 7618   3.178   1.425   7.786  0.1020 -0.3351  2.0570
   70CHL1  H12B 7619   3.353   1.414   7.750  1.2390 -2.7313  0.3485
   70CHL1   C11 7620   3.211   1.331   7.591 -0.0610  0.4724 -0.5518
   70CHL1  H11A 7621   3.106   1.293   7.594  1.4593 -4.3578  1.5283
   70CHL1  H11B 7622   3.212   1.423   7.530  0.9719 -0.4154 -1.9367
   70CHL1    C9 7623   3.291   1.214   7.527 -0.2170 -0.8470  0.2797
   70CHL1    H9 7624   3.392   1.260   7.527 -0.5704 -0.0299 -0.5419
   70CHL1   C10 7625   3.256   1.177   7.382  0.0471 -0.5094 -0.3757
   70CHL1   C19 7626   3.109   1.140   7.374  0.8918  0.2475  0.2586
   70CHL1  H19A 7627   3.044   1.216   7.421  0.6430  0.3671 -0.2638
   70CHL1  H19B 7628   3.070   1.122   7.271  1.9486 -2.2913  0.2296
   70CHL1  H19C 7629   3.079   1.051   7.432  2.7791 -0.6706 -0.0837
   70CHL1    C1 7630   3.288   1.295   7.286 -0.1107  0.0710 -0.2328
   70CHL1   H1A 7631   3.213   1.371   7.314 -1.1591 -1.1135  0.2325
   70CHL1   H1B 7632   3.392   1.326   7.312  0.0663 -0.0117 -0.8178
   70CHL1    C2 7633   3.283   1.269   7.138  0.3915  0.4877 -0.0009
   70CHL1   H2A 7634   3.334   1.351   7.083 -0.1768  0.2586 -0.8807
   70CHL1   H2B 7635   3.177   1.263   7.106  0.1718  3.5305 -0.1342
   70CHL1   C20 7636   3.251   1.294   8.086 -0.8423  0.7268  0.4639
   70CHL1   H20 7637   3.144   1.263   8.091 -0.6077 -0.2825 -0.4578
   70CHL1   C21 7638   3.266   1.441   8.064  0.1496  0.1535  0.2577
   70CHL1  H21A 7639   3.234   1.498   8.154 -1.1994 -0.7503  0.3849
   70CHL1  H21B 7640   3.208   1.484   7.980  2.7071  3.0090 -0.2247
   70CHL1  H21C 7641   3.371   1.475   8.050  0.3581 -0.2285  0.8133
   70CHL1   C22 7642   3.318   1.261   8.218 -0.3208 -0.2064  0.2080
   70CHL1  H22A 7643   3.310   1.155   8.252  1.2556  0.0159  1.3866
   70CHL1  H22B 7644   3.425   1.284   8.199 -1.0782  1.9991 -1.9092
   70CHL1   C23 7645   3.277   1.342   8.343  0.5264  0.2533  0.1706
   70CHL1  H23A 7646   3.337   1.297   8.424  3.2992  1.9016 -0.8160
   70CHL1  H23B 7647   3.329   1.439   8.327  1.0551  0.3404  2.1414
   70CHL1   C24 7648   3.130   1.360   8.392  0.7191  0.9920  0.1394
   70CHL1  H24A 7649   3.128   1.419   8.486  1.7064 -0.7535  1.3153
   70CHL1  H24B 7650   3.071   1.404   8.310  0.6970 -1.6056 -1.3568
   70CHL1   C25 7651   3.061   1.217   8.426  0.0835  0.5406 -0.3663
   70CHL1   H25 7652   3.059   1.153   8.335 -1.9942 -0.1429  0.1218
   70CHL1   C26 7653   3.150   1.145   8.527  0.3045  0.2142  0.2578
   70CHL1  H26A 7654   3.257   1.121   8.505  0.3494  2.4995 -2.6871
   70CHL1  H26B 7655   3.164   1.194   8.625 -0.5107 -1.4825  1.2787
   70CHL1  H26C 7656   3.101   1.049   8.554 -0.5055  0.5755  0.0821
   70CHL1   C27 7657   2.921   1.229   8.476  0.2059  0.2312  0.3768
   70CHL1  H27A 7658   2.862   1.290   8.404 -0.5199  0.9667  1.5614
   70CHL1  H27B 7659   2.872   1.130   8.484  1.6260 -0.5270 -0.0147
   70CHL1  H27C 7660   2.906   1.268   8.579  1.5035  1.6401  0.0869
   71CHL1    C3 7661   5.517   3.486   6.821  0.8358 -0.0891  0.0805
   71CHL1    H3 7662   5.616   3.537   6.814  0.2064  0.9205 -2.6763
   71CHL1    O3 7663   5.468   3.460   6.688 -0.2349 -0.1531 -0.4821
   71CHL1   H3' 7664   5.374   3.442   6.690 -0.3887  0.2507 -2.3152
   71CHL1    C4 7665   5.541   3.346   6.893  0.0959 -0.5878 -0.0498
   71CHL1   H4A 7666   5.440   3.301   6.878  0.3717 -0.5178 -2.5706
   71CHL1   H4B 7667   5.616   3.288   6.836 -0.4454 -0.9542 -0.3965
   71CHL1    C5 7668   5.576   3.359   7.037  0.8645 -0.9037 -0.4206
   71CHL1    C6 7669   5.684   3.292   7.088 -0.1601 -0.4212 -0.1356
   71CHL1    H6 7670   5.728   3.212   7.028  0.4406 -2.0774  2.3467
   71CHL1    C7 7671   5.738   3.306   7.227  0.8273  0.1248  0.1301
   71CHL1   H7A 7672   5.757   3.208   7.276  2.0118  0.3845  0.2067
   71CHL1   H7B 7673   5.838   3.355   7.229  2.1793 -2.4913  2.1680
   71CHL1    C8 7674   5.635   3.384   7.317  0.3679  0.3979  0.0540
   71CHL1    H8 7675   5.552   3.312   7.332  1.4820 -0.5570  2.0401
   71CHL1   C14 7676   5.703   3.420   7.444 -0.3189  0.3439  0.5470
   71CHL1   H14 7677   5.788   3.486   7.415  1.3387 -1.4654  1.0494
   71CHL1   C15 7678   5.791   3.305   7.507  0.4539  0.0715 -0.2583
   71CHL1  H15A 7679   5.724   3.216   7.512  0.7448 -0.2169 -1.2327
   71CHL1  H15B 7680   5.889   3.277   7.463 -0.0918 -0.3160 -1.2725
   71CHL1   C16 7681   5.802   3.365   7.640  0.4647 -0.3370 -0.1529
   71CHL1  H16A 7682   5.769   3.293   7.718 -1.9137 -0.4143 -1.1455
   71CHL1  H16B 7683   5.908   3.385   7.668  0.3255  1.5698 -0.8344
   71CHL1   C17 7684   5.720   3.501   7.657 -0.0537 -0.5049  0.8285
   71CHL1   H17 7685   5.785   3.586   7.629 -0.2859  0.0090  1.8032
   71CHL1   C13 7686   5.614   3.494   7.546 -0.4592  0.2069  0.6223
   71CHL1   C18 7687   5.496   3.402   7.596 -0.2696 -0.2456 -0.6178
   71CHL1  H18A 7688   5.533   3.303   7.632  1.9903  0.6448 -0.3030
   71CHL1  H18B 7689   5.439   3.451   7.678  0.1510 -0.9659  0.1278
   71CHL1  H18C 7690   5.420   3.387   7.517  0.0715  0.6556 -1.1279
   71CHL1   C12 7691   5.570   3.627   7.477 -0.0976 -0.5944 -0.0043
   71CHL1  H12A 7692   5.511   3.681   7.554  0.9020 -1.8787  1.7288
   71CHL1  H12B 7693   5.662   3.686   7.456 -0.8595  1.0793  1.1455
   71CHL1   C11 7694   5.491   3.594   7.352  0.3350 -0.2288 -0.5100
   71CHL1  H11A 7695   5.401   3.543   7.392 -0.5379  0.1864 -1.8918
   71CHL1  H11B 7696   5.448   3.683   7.302  2.1085  1.6189  1.0373
   71CHL1    C9 7697   5.571   3.504   7.250 -0.4900 -0.1090 -0.6296
   71CHL1    H9 7698   5.659   3.568   7.228 -0.0716  0.0959  1.4420
   71CHL1   C10 7699   5.493   3.467   7.119  0.2197  0.1224 -0.8938
   71CHL1   C19 7700   5.358   3.411   7.152  0.3615  0.5262 -0.0406
   71CHL1  H19A 7701   5.360   3.320   7.216  1.3453  2.1785  2.4836
   71CHL1  H19B 7702   5.293   3.478   7.213 -0.0817  1.9482 -2.0128
   71CHL1  H19C 7703   5.299   3.389   7.061 -1.3643  0.8348  0.9552
   71CHL1    C1 7704   5.474   3.600   7.033 -0.0869  0.0568 -0.5295
   71CHL1   H1A 7705   5.401   3.658   7.093  0.7716  0.7915 -0.1714
   71CHL1   H1B 7706   5.567   3.660   7.034 -0.0217 -0.0464 -0.3935
   71CHL1    C2 7707   5.421   3.579   6.895 -0.7549 -0.5027 -0.2657
   71CHL1   H2A 7708   5.411   3.671   6.832 -0.2857 -2.0724 -2.7881
   71CHL1   H2B 7709   5.320   3.532   6.888 -0.9940 -0.2510  1.1294
   71CHL1   C20 7710   5.687   3.529   7.802  0.3805 -1.2889 -0.1749
   71CHL1   H20 7711   5.620   3.446   7.834  0.6502 -0.7766  1.8602
   71CHL1   C21 7712   5.608   3.660   7.815 -0.9906  0.6867 -0.5239
   71CHL1  H21A 7713   5.666   3.740   7.765  1.9601 -1.7308 -1.2925
   71CHL1  H21B 7714   5.619   3.694   7.920  0.3970  1.1609 -0.8049
   71CHL1  H21C 7715   5.504   3.655   7.776 -1.5354 -0.6840  0.9765
   71CHL1   C22 7716   5.815   3.529   7.896 -0.1811 -0.9667  0.2432
   71CHL1  H22A 7717   5.882   3.450   7.857 -1.1161 -1.1633 -1.0041
   71CHL1  H22B 7718   5.871   3.624   7.883 -2.2193  0.7307  2.6973
   71CHL1   C23 7719   5.804   3.505   8.045 -0.0310 -0.6767  0.3962
   71CHL1  H23A 7720   5.727   3.578   8.076 -2.5571 -2.4120 -1.3963
   71CHL1  H23B 7721   5.768   3.404   8.070  2.0740 -1.2715  1.2887
   71CHL1   C24 7722   5.927   3.534   8.123 -0.5449  0.3198 -0.3576
   71CHL1  H24A 7723   6.002   3.456   8.097 -0.2386 -0.0965  1.6045
   71CHL1  H24B 7724   5.966   3.636   8.101  0.5775  0.1460  0.6937
   71CHL1   C25 7725   5.908   3.513   8.274 -0.3622  0.2543 -0.1204
   71CHL1   H25 7726   5.892   3.407   8.303  0.0791  0.7238  2.0799
   71CHL1   C26 7727   6.054   3.538   8.330 -0.0370 -0.2703 -0.3763
   71CHL1  H26A 7728   6.044   3.535   8.440  1.7033 -1.6946 -0.2092
   71CHL1  H26B 7729   6.123   3.466   8.281 -0.0210  1.1897 -2.6960
   71CHL1  H26C 7730   6.088   3.643   8.314 -2.7892  0.8639  0.7092
   71CHL1   C27 7731   5.809   3.602   8.342  1.0784 -0.5495  0.9267
   71CHL1  H27A 7732   5.802   3.584   8.451  1.5050 -0.6235  0.9460
   71CHL1  H27B 7733   5.829   3.709   8.317 -0.8733 -0.1477  0.9838
   71CHL1  H27C 7734   5.713   3.570   8.297  2.5216 -1.3704 -1.7952
   72CHL1    C3 7735   4.500   4.137   7.174  0.5090 -0.3285  0.4144
   72CHL1    H3 7736   4.588   4.070   7.182  1.5803  1.0363  0.5310
   72CHL1    O3 7737   4.483   4.153   7.035 -0.7445 -0.1974  0.6253
   72CHL1   H3' 7738   4.404   4.206   7.022 -0.3653  0.0368 -0.8390
   72CHL1    C4 7739   4.381   4.055   7.238  0.4582 -0.1768 -0.1581
   72CHL1   H4A 7740   4.289   4.116   7.230  0.5446  0.3892  2.4025
   72CHL1   H4B 7741   4.374   3.959   7.182  2.1230  0.7649 -2.1570
   72CHL1    C5 7742   4.417   4.035   7.391 -0.6578  0.6758  0.4636
   72CHL1    C6 7743   4.414   3.905   7.438  0.0999  0.2890 -0.5187
   72CHL1    H6 7744   4.391   3.818   7.375 -1.7590 -1.0363  1.8014
   72CHL1    C7 7745   4.428   3.872   7.586 -0.0302 -0.8604 -0.9135
   72CHL1   H7A 7746   4.340   3.811   7.617  0.9833 -1.5065  0.7854
   72CHL1   H7B 7747   4.523   3.817   7.598  0.8519  0.8612  0.4938
   72CHL1    C8 7748   4.421   4.001   7.683  0.3260 -0.1784 -1.0849
   72CHL1    H8 7749   4.314   4.032   7.694  0.4407 -0.0720 -0.1703
   72CHL1   C14 7750   4.481   3.979   7.823 -0.3381 -0.0419 -0.0925
   72CHL1   H14 7751   4.588   3.958   7.801 -0.6965 -2.9435  0.5603
   72CHL1   C15 7752   4.434   3.853   7.904 -0.2898  0.0408  0.2191
   72CHL1  H15A 7753   4.328   3.826   7.883  0.3329 -1.8225 -0.7432
   72CHL1  H15B 7754   4.495   3.761   7.888 -0.0498  0.3548 -0.6855
   72CHL1   C16 7755   4.456   3.897   8.052  0.5300  1.1666 -0.3089
   72CHL1  H16A 7756   4.364   3.888   8.114  0.7170 -0.2682 -0.2010
   72CHL1  H16B 7757   4.522   3.834   8.115 -0.1101 -0.8559 -1.5531
   72CHL1   C17 7758   4.525   4.037   8.060 -0.1947  0.2271  0.5566
   72CHL1   H17 7759   4.635   4.023   8.057 -0.2138  0.1820 -0.1187
   72CHL1   C13 7760   4.473   4.092   7.924 -2.0396 -1.3896  0.2577
   72CHL1   C18 7761   4.326   4.140   7.945 -0.2169  1.0573  0.2072
   72CHL1  H18A 7762   4.312   4.213   8.027  2.5776 -0.3569  2.1314
   72CHL1  H18B 7763   4.289   4.197   7.857 -0.6583  1.3073  0.5514
   72CHL1  H18C 7764   4.265   4.050   7.966  2.4145 -0.8941 -0.0118
   72CHL1   C12 7765   4.552   4.209   7.862  0.0493  0.1004  0.4508
   72CHL1  H12A 7766   4.559   4.301   7.924  1.3655  0.7518 -0.6006
   72CHL1  H12B 7767   4.659   4.180   7.852  0.2596  0.6749  1.0222
   72CHL1   C11 7768   4.505   4.248   7.716 -0.1186 -0.3756 -0.0882
   72CHL1  H11A 7769   4.407   4.295   7.738 -0.3033 -1.7568  2.3004
   72CHL1  H11B 7770   4.575   4.322   7.671 -1.3288 -0.3157 -2.0004
   72CHL1    C9 7771   4.497   4.123   7.619  0.3428 -0.4426  0.7505
   72CHL1    H9 7772   4.600   4.080   7.619  0.1095 -1.0245 -0.3028
   72CHL1   C10 7773   4.448   4.164   7.477  0.4550 -0.1359 -0.8512
   72CHL1   C19 7774   4.317   4.245   7.482 -0.0640 -0.2825 -0.4912
   72CHL1  H19A 7775   4.309   4.328   7.556 -0.2793 -0.4326 -0.3442
   72CHL1  H19B 7776   4.284   4.291   7.387 -1.3346  1.1411  0.5997
   72CHL1  H19C 7777   4.240   4.174   7.520 -1.8587  1.3692 -0.9155
   72CHL1    C1 7778   4.551   4.248   7.396 -0.9502 -0.1762  0.2024
   72CHL1   H1A 7779   4.566   4.355   7.425 -2.3930  0.2607 -0.5466
   72CHL1   H1B 7780   4.649   4.197   7.410  0.3955  2.1187 -0.2157
   72CHL1    C2 7781   4.527   4.269   7.250  1.0002  0.9318 -0.1455
   72CHL1   H2A 7782   4.614   4.319   7.202  0.0578  0.2003 -2.7972
   72CHL1   H2B 7783   4.438   4.333   7.228 -0.1127 -0.8801 -1.2329
   72CHL1   C20 7784   4.493   4.110   8.191  0.1277 -0.2408 -0.2828
   72CHL1   H20 7785   4.382   4.120   8.196 -0.0983 -0.3167 -3.1507
   72CHL1   C21 7786   4.557   4.244   8.193 -0.6275 -1.0226  0.1813
   72CHL1  H21A 7787   4.550   4.281   8.298 -0.6712  0.5498 -0.3577
   72CHL1  H21B 7788   4.521   4.316   8.117  2.5017  0.5461  0.0223
   72CHL1  H21C 7789   4.665   4.226   8.172 -1.1244 -2.1337 -1.5258
   72CHL1   C22 7790   4.535   4.023   8.315  0.4698  0.0403 -0.3074
   72CHL1  H22A 7791   4.483   3.926   8.306 -1.9810  1.3013 -0.4319
   72CHL1  H22B 7792   4.646   4.020   8.318  0.4515  0.1932  0.8090
   72CHL1   C23 7793   4.485   4.061   8.456 -0.8227  0.1976  0.8274
   72CHL1  H23A 7794   4.547   3.998   8.523 -0.8029  0.1534  0.7686
   72CHL1  H23B 7795   4.492   4.169   8.479 -0.2720  0.1128  1.0717
   72CHL1   C24 7796   4.338   4.027   8.476 -0.5280  0.2741  0.2096
   72CHL1  H24A 7797   4.288   4.088   8.399  1.2036  0.2255 -1.0181
   72CHL1  H24B 7798   4.324   3.919   8.450  0.3550  0.6348 -2.0023
   72CHL1   C25 7799   4.280   4.055   8.618  0.0098 -0.1639 -0.0001
   72CHL1   H25 7800   4.301   4.162   8.643 -1.4114  0.0567  0.3317
   72CHL1   C26 7801   4.128   4.038   8.625  0.1508 -0.0774  0.5382
   72CHL1  H26A 7802   4.088   4.084   8.532  1.1520  0.7492  0.4898
   72CHL1  H26B 7803   4.089   3.935   8.637  1.1692 -0.5264  0.0963
   72CHL1  H26C 7804   4.088   4.097   8.710 -0.2855 -2.4756  2.0979
   72CHL1   C27 7805   4.357   3.967   8.716 -0.0002  0.4992  0.0318
   72CHL1  H27A 7806   4.466   3.987   8.711  0.6068 -1.8805  1.7390
   72CHL1  H27B 7807   4.333   3.982   8.823 -0.1872 -0.9789  0.2246
   72CHL1  H27C 7808   4.344   3.862   8.681  1.9627  0.8089 -1.8590
   73CHL1    C3 7809   4.283   6.569   7.018  0.0803 -0.1830 -0.1569
   73CHL1    H3 7810   4.274   6.460   7.040  1.7299  0.1906  2.8976
   73CHL1    O3 7811   4.291   6.597   6.878  0.2284  0.2670  0.5728
   73CHL1   H3' 7812   4.339   6.679   6.874 -1.1633  1.1807  1.6220
   73CHL1    C4 7813   4.167   6.642   7.090  0.4810 -0.0333 -0.2473
   73CHL1   H4A 7814   4.186   6.746   7.056  0.2374  0.1823  0.2539
   73CHL1   H4B 7815   4.068   6.617   7.047  0.6632 -1.1671 -0.0450
   73CHL1    C5 7816   4.173   6.623   7.244 -0.2824 -0.1851 -0.1543
   73CHL1    C6 7817   4.072   6.567   7.309  0.3475 -0.5054 -0.2078
   73CHL1    H6 7818   3.979   6.549   7.253 -0.7258 -0.4113  1.4912
   73CHL1    C7 7819   4.078   6.551   7.458 -0.2418  0.3099  0.6725
   73CHL1   H7A 7820   3.983   6.600   7.490 -1.1556 -1.2810  0.5312
   73CHL1   H7B 7821   4.074   6.442   7.477 -0.7719  0.0642 -0.6624
   73CHL1    C8 7822   4.189   6.622   7.531 -0.1985  0.1009 -0.3550
   73CHL1    H8 7823   4.171   6.730   7.548 -0.3206  0.4463 -2.4494
   73CHL1   C14 7824   4.202   6.557   7.673  0.4097  0.2516  0.4538
   73CHL1   H14 7825   4.254   6.460   7.655  0.6023  0.5469 -0.6308
   73CHL1   C15 7826   4.077   6.520   7.756 -0.0236  0.5064 -0.4984
   73CHL1  H15A 7827   4.009   6.607   7.750  0.6101  1.3463  2.5803
   73CHL1  H15B 7828   4.041   6.425   7.710 -1.0146 -0.1776  1.5824
   73CHL1   C16 7829   4.135   6.488   7.892  1.2071  0.0593 -0.9675
   73CHL1  H16A 7830   4.085   6.544   7.973 -0.6295 -0.8664 -1.3990
   73CHL1  H16B 7831   4.117   6.381   7.920 -0.6102  0.1890 -1.4943
   73CHL1   C17 7832   4.284   6.531   7.898  0.1211  1.0886  0.0788
   73CHL1   H17 7833   4.344   6.438   7.881 -0.4242  0.7909 -0.2319
   73CHL1   C13 7834   4.305   6.622   7.768  0.1355 -0.2308 -0.1986
   73CHL1   C18 7835   4.261   6.767   7.804  0.5557 -0.2397 -0.5659
   73CHL1  H18A 7836   4.334   6.820   7.870 -1.2157  3.1190 -1.0746
   73CHL1  H18B 7837   4.243   6.823   7.709 -0.6745  0.6385  0.1655
   73CHL1  H18C 7838   4.158   6.766   7.844  0.5974  1.3977 -0.3416
   73CHL1   C12 7839   4.443   6.624   7.697  0.2130  0.1315  0.2826
   73CHL1  H12A 7840   4.518   6.683   7.753  0.3593  1.9168 -1.6396
   73CHL1  H12B 7841   4.484   6.521   7.699  1.9107  0.6648 -1.8557
   73CHL1   C11 7842   4.446   6.667   7.545  0.1749  0.1497 -0.2370
   73CHL1  H11A 7843   4.449   6.778   7.541  1.0411  0.0896 -2.1744
   73CHL1  H11B 7844   4.540   6.623   7.508 -0.3375 -2.2186  1.0716
   73CHL1    C9 7845   4.320   6.614   7.463  0.2010 -0.1754  0.4008
   73CHL1    H9 7846   4.343   6.507   7.442 -0.9712 -0.1428 -1.2563
   73CHL1   C10 7847   4.310   6.665   7.317  0.2101  0.0354  0.7117
   73CHL1   C19 7848   4.312   6.815   7.319  0.8068  0.3872  0.6059
   73CHL1  H19A 7849   4.402   6.862   7.363  0.7513  0.0929  1.0389
   73CHL1  H19B 7850   4.297   6.846   7.213 -2.2166  0.1108  0.8671
   73CHL1  H19C 7851   4.227   6.856   7.377 -1.0905  0.2789 -1.8954
   73CHL1    C1 7852   4.423   6.605   7.230  0.1297  0.3837 -0.3329
   73CHL1   H1A 7853   4.522   6.641   7.265  0.2818 -0.6428  0.3196
   73CHL1   H1B 7854   4.423   6.494   7.240 -2.3317  0.2814 -0.8999
   73CHL1    C2 7855   4.415   6.625   7.076  0.1298 -0.1654 -0.1839
   73CHL1   H2A 7856   4.495   6.558   7.042  0.2745 -0.8374  1.3848
   73CHL1   H2B 7857   4.446   6.730   7.053 -0.4507 -0.4903 -2.7116
   73CHL1   C20 7858   4.327   6.580   8.039 -0.4047 -0.4761  0.6490
   73CHL1   H20 7859   4.277   6.677   8.058 -1.5521 -0.5592 -1.6299
   73CHL1   C21 7860   4.481   6.615   8.031 -0.2416  0.2554 -0.2973
   73CHL1  H21A 7861   4.487   6.711   7.976  1.9473  0.1301 -0.3735
   73CHL1  H21B 7862   4.548   6.540   7.984  0.3826  0.6286 -0.0234
   73CHL1  H21C 7863   4.527   6.631   8.131  0.1855  0.7633 -0.5687
   73CHL1   C22 7864   4.286   6.484   8.149 -0.1037 -0.1426 -0.3659
   73CHL1  H22A 7865   4.179   6.453   8.154  0.0362 -0.4242  2.9289
   73CHL1  H22B 7866   4.349   6.395   8.132  0.1544  0.1139 -0.7668
   73CHL1   C23 7867   4.322   6.540   8.286 -0.3822  0.0813 -0.0430
   73CHL1  H23A 7868   4.431   6.529   8.307 -0.3000  0.7650 -0.0843
   73CHL1  H23B 7869   4.298   6.649   8.288 -1.9876 -0.2685  0.3712
   73CHL1   C24 7870   4.237   6.463   8.394 -0.7601  0.6355  0.2592
   73CHL1  H24A 7871   4.129   6.474   8.368 -1.0685 -0.2510  1.0976
   73CHL1  H24B 7872   4.274   6.358   8.390 -0.0524  0.8664 -3.8676
   73CHL1   C25 7873   4.249   6.531   8.531  0.5525  0.2540  0.0068
   73CHL1   H25 7874   4.357   6.533   8.557  0.2481 -0.1905  1.4266
   73CHL1   C26 7875   4.180   6.667   8.549 -0.2344  1.0207 -0.9865
   73CHL1  H26A 7876   4.202   6.738   8.465 -2.2700  2.2963 -0.5147
   73CHL1  H26B 7877   4.073   6.641   8.534 -0.0978  0.3908 -0.8789
   73CHL1  H26C 7878   4.206   6.706   8.650  1.3853 -1.1125 -0.5055
   73CHL1   C27 7879   4.182   6.439   8.632  0.0008  0.9159 -0.3670
   73CHL1  H27A 7880   4.194   6.475   8.736  1.2457 -0.5406  0.0374
   73CHL1  H27B 7881   4.072   6.440   8.615 -0.4462  0.2430  2.0331
   73CHL1  H27C 7882   4.212   6.332   8.624  0.1106  0.4556  4.0125
   74CHL1    C3 7883   3.359   1.939   6.706  0.8669  0.2666 -0.1984
   74CHL1    H3 7884   3.353   2.049   6.710 -0.5964  0.3420 -2.6632
   74CHL1    O3 7885   3.338   1.893   6.575  0.0449  0.0907  0.0929
   74CHL1   H3' 7886   3.419   1.922   6.534  0.1518 -1.4902 -0.8998
   74CHL1    C4 7887   3.479   1.879   6.771  0.1384  0.2436  0.1694
   74CHL1   H4A 7888   3.496   1.776   6.731  1.0300 -0.2583  1.7650
   74CHL1   H4B 7889   3.561   1.935   6.720  1.6844 -0.8199  1.4021
   74CHL1    C5 7890   3.494   1.884   6.924  0.5678 -0.2447  0.1730
   74CHL1    C6 7891   3.608   1.932   6.982  0.2943 -0.1526 -0.2123
   74CHL1    H6 7892   3.693   1.965   6.920  0.0150  0.9315 -0.0298
   74CHL1    C7 7893   3.632   1.947   7.129 -0.2467  0.0667 -0.4142
   74CHL1   H7A 7894   3.738   1.924   7.152 -0.4594 -0.3819  0.1258
   74CHL1   H7B 7895   3.633   2.052   7.166  3.3270 -0.4277  1.4308
   74CHL1    C8 7896   3.526   1.869   7.212 -0.0093 -0.0453 -0.4145
   74CHL1    H8 7897   3.560   1.765   7.195  1.1771  0.2709 -0.1076
   74CHL1   C14 7898   3.532   1.908   7.361  0.5594  0.1076 -0.4603
   74CHL1   H14 7899   3.491   2.012   7.356 -2.1640 -0.7394  1.5402
   74CHL1   C15 7900   3.672   1.906   7.434 -0.3076 -0.5005  0.1637
   74CHL1  H15A 7901   3.744   1.832   7.393  0.5561  0.9565 -1.0765
   74CHL1  H15B 7902   3.716   2.008   7.435 -0.8113 -0.2851  1.5674
   74CHL1   C16 7903   3.649   1.869   7.578 -0.0706 -0.3110 -0.2102
   74CHL1  H16A 7904   3.707   1.776   7.596  1.6482  0.6590 -0.5537
   74CHL1  H16B 7905   3.687   1.951   7.642 -0.8907  0.5261 -0.7639
   74CHL1   C17 7906   3.490   1.863   7.593  0.3495 -0.0936 -0.6423
   74CHL1   H17 7907   3.444   1.962   7.612  1.1390  0.2034 -0.2454
   74CHL1   C13 7908   3.443   1.831   7.446  0.2929  0.3043  0.4872
   74CHL1   C18 7909   3.460   1.677   7.427 -0.7725 -0.3967  0.4253
   74CHL1  H18A 7910   3.566   1.644   7.429 -1.1344 -2.0106 -2.2563
   74CHL1  H18B 7911   3.397   1.620   7.499 -0.9308 -0.3156  0.3516
   74CHL1  H18C 7912   3.431   1.654   7.322  1.5490 -0.3771 -0.2872
   74CHL1   C12 7913   3.308   1.879   7.396 -0.2072 -0.5842  0.3531
   74CHL1  H12A 7914   3.228   1.841   7.463 -0.6681  0.0540  0.1708
   74CHL1  H12B 7915   3.305   1.989   7.408 -1.7743 -0.8407  3.0934
   74CHL1   C11 7916   3.267   1.840   7.250  0.2274 -0.1542 -0.2906
   74CHL1  H11A 7917   3.253   1.730   7.253 -1.8952  0.0770 -0.3772
   74CHL1  H11B 7918   3.165   1.878   7.228  0.1307 -0.8876 -1.1681
   74CHL1    C9 7919   3.384   1.882   7.152  0.4558  0.4281 -0.0761
   74CHL1    H9 7920   3.371   1.992   7.157 -3.1866  0.0634  3.7362
   74CHL1   C10 7921   3.371   1.842   6.999  0.1928  0.6983 -1.4717
   74CHL1   C19 7922   3.360   1.689   7.003  0.8861 -0.4248 -0.1902
   74CHL1  H19A 7923   3.447   1.643   7.054  2.0451  0.1747 -1.5621
   74CHL1  H19B 7924   3.265   1.655   7.049  1.1298  0.6185  1.1511
   74CHL1  H19C 7925   3.369   1.648   6.900  0.9339 -2.3762  0.5416
   74CHL1    C1 7926   3.236   1.901   6.933 -0.7872 -0.4601 -0.2554
   74CHL1   H1A 7927   3.153   1.839   6.973 -0.6290  0.0739  0.9617
   74CHL1   H1B 7928   3.217   2.007   6.964 -1.9132 -0.1515 -1.8428
   74CHL1    C2 7929   3.231   1.886   6.775 -0.5405 -0.0450  0.2362
   74CHL1   H2A 7930   3.147   1.952   6.742 -0.3403  0.4470  0.6818
   74CHL1   H2B 7931   3.215   1.778   6.758  2.2157 -0.3104 -1.1289
   74CHL1   C20 7932   3.444   1.778   7.719 -0.1261 -0.3451 -0.0312
   74CHL1   H20 7933   3.491   1.678   7.708 -0.0049 -0.0650 -2.5085
   74CHL1   C21 7934   3.291   1.768   7.721 -0.3608  0.7968  0.3943
   74CHL1  H21A 7935   3.250   1.717   7.631 -1.3857 -2.4448  2.5108
   74CHL1  H21B 7936   3.235   1.862   7.741 -3.4035 -0.5071 -1.2185
   74CHL1  H21C 7937   3.259   1.693   7.796  0.2347 -0.0751 -0.1943
   74CHL1   C22 7938   3.510   1.828   7.855  0.8456  0.5077 -0.2281
   74CHL1  H22A 7939   3.490   1.758   7.939 -2.0838  0.7826 -0.6052
   74CHL1  H22B 7940   3.618   1.814   7.834  1.5282  1.4285  2.3298
   74CHL1   C23 7941   3.478   1.969   7.910  0.2873  0.4069 -0.2195
   74CHL1  H23A 7942   3.489   2.038   7.822  3.4403  2.4118  1.5528
   74CHL1  H23B 7943   3.376   1.975   7.953  0.5924 -0.5677  0.6697
   74CHL1   C24 7944   3.582   2.014   8.015 -0.2710  0.8427 -0.2901
   74CHL1  H24A 7945   3.544   2.108   8.060  0.7829  1.7278 -1.1705
   74CHL1  H24B 7946   3.593   1.935   8.092 -0.2988 -1.1018 -2.1954
   74CHL1   C25 7947   3.723   2.049   7.966  0.1522  0.2934  0.4592
   74CHL1   H25 7948   3.762   1.953   7.925  0.2045 -0.0262  1.2423
   74CHL1   C26 7949   3.728   2.159   7.862  0.4761  0.5295 -0.1055
   74CHL1  H26A 7950   3.717   2.253   7.919  0.4319  0.4519  0.0133
   74CHL1  H26B 7951   3.831   2.156   7.821  0.0816  2.6070 -1.4289
   74CHL1  H26C 7952   3.669   2.145   7.768  3.4120 -2.7436 -1.6920
   74CHL1   C27 7953   3.815   2.086   8.085  0.4647 -0.4867 -0.1819
   74CHL1  H27A 7954   3.760   2.155   8.152 -0.1975 -0.6579 -0.5401
   74CHL1  H27B 7955   3.832   1.999   8.152 -1.0296 -0.1592  0.6560
   74CHL1  H27C 7956   3.912   2.126   8.050  0.0518 -0.5414 -1.4602
   75CHL1    C3 7957   4.165   5.085   6.644 -0.1329 -0.7472 -0.2264
   75CHL1    H3 7958   4.159   4.974   6.644  1.6096 -0.8651 -0.7064
   75CHL1    O3 7959   4.119   5.116   6.513 -0.0580 -0.9630  0.7187
   75CHL1   H3' 7960   4.124   5.211   6.505 -1.7134 -0.7367  1.7880
   75CHL1    C4 7961   4.087   5.158   6.756  0.4932  0.2843  0.1094
   75CHL1   H4A 7962   4.104   5.266   6.742 -0.3264  0.5023  0.6996
   75CHL1   H4B 7963   3.977   5.147   6.739  0.4636 -0.5441  0.7494
   75CHL1    C5 7964   4.127   5.138   6.899  0.3610  0.5123  0.0510
   75CHL1    C6 7965   4.040   5.099   6.996 -0.8438 -0.2857  0.2536
   75CHL1    H6 7966   3.935   5.084   6.969 -0.6749  0.2462 -0.7943
   75CHL1    C7 7967   4.076   5.072   7.136  0.3780 -0.2666 -0.3555
   75CHL1   H7A 7968   3.999   5.112   7.205  3.5369  0.8521  2.8578
   75CHL1   H7B 7969   4.083   4.963   7.156 -0.7022 -0.3801 -0.5675
   75CHL1    C8 7970   4.217   5.129   7.170 -0.2418 -0.6685 -0.3769
   75CHL1    H8 7971   4.211   5.239   7.180  0.4943 -0.8187  2.8759
   75CHL1   C14 7972   4.263   5.073   7.312 -0.4599 -0.7226 -0.2537
   75CHL1   H14 7973   4.259   4.962   7.312 -1.9168 -0.7026  1.0546
   75CHL1   C15 7974   4.173   5.103   7.432  0.7800 -0.6675  0.0119
   75CHL1  H15A 7975   4.126   5.203   7.431  0.4888 -0.6199 -4.4404
   75CHL1  H15B 7976   4.096   5.024   7.438 -1.5338  1.4764 -0.0723
   75CHL1   C16 7977   4.263   5.096   7.552  0.2840  0.0350 -0.9519
   75CHL1  H16A 7978   4.268   5.193   7.604 -1.9849  0.3082 -1.1110
   75CHL1  H16B 7979   4.229   5.024   7.631  0.4604  0.4296 -0.5143
   75CHL1   C17 7980   4.403   5.060   7.495 -0.3938 -0.0323  0.0907
   75CHL1   H17 7981   4.401   4.950   7.483  0.7111  0.0159 -0.6025
   75CHL1   C13 7982   4.405   5.117   7.351 -0.1054 -0.3781  0.3126
   75CHL1   C18 7983   4.413   5.270   7.349  0.1064  0.2143  0.3891
   75CHL1  H18A 7984   4.503   5.299   7.407  0.2490  0.8116 -0.1146
   75CHL1  H18B 7985   4.423   5.323   7.251  1.0723 -0.2367  0.2317
   75CHL1  H18C 7986   4.324   5.314   7.398  0.5652  2.1865 -0.4478
   75CHL1   C12 7987   4.496   5.049   7.245  0.3372 -0.0707  0.1037
   75CHL1  H12A 7988   4.599   5.084   7.269 -1.2291  3.3593  2.7071
   75CHL1  H12B 7989   4.489   4.939   7.260  0.7197 -0.1581 -0.3311
   75CHL1   C11 7990   4.464   5.101   7.108 -0.2776  0.2056 -0.3692
   75CHL1  H11A 7991   4.498   5.207   7.103  0.1881  0.0259 -1.1320
   75CHL1  H11B 7992   4.532   5.053   7.035  0.9335 -0.6851  1.2943
   75CHL1    C9 7993   4.316   5.088   7.063  0.0323 -0.3495  0.3315
   75CHL1    H9 7994   4.307   4.977   7.058 -1.1255 -0.2928  0.8687
   75CHL1   C10 7995   4.276   5.147   6.923 -0.8526 -0.3653 -0.7483
   75CHL1   C19 7996   4.320   5.299   6.929  0.8548  0.1893  0.1124
   75CHL1  H19A 7997   4.260   5.354   7.005  0.1763 -0.3395 -0.0313
   75CHL1  H19B 7998   4.428   5.315   6.948  0.6622  0.7250  0.7959
   75CHL1  H19C 7999   4.296   5.345   6.831  3.0212 -0.7914 -0.9595
   75CHL1    C1 8000   4.356   5.080   6.809 -0.7636  0.3920 -0.3992
   75CHL1   H1A 8001   4.462   5.110   6.823 -0.9900  1.1669 -0.3276
   75CHL1   H1B 8002   4.346   4.970   6.827 -2.2338  0.6768  0.8048
   75CHL1    C2 8003   4.316   5.123   6.668 -0.0557 -0.1680 -0.2330
   75CHL1   H2A 8004   4.380   5.082   6.587 -0.5518 -1.0211 -0.2075
   75CHL1   H2B 8005   4.329   5.233   6.668  1.0064 -0.2747  1.0084
   75CHL1   C20 8006   4.522   5.088   7.599 -0.0758  0.0359  0.6987
   75CHL1   H20 8007   4.525   5.199   7.611  2.8438  0.2129 -0.6894
   75CHL1   C21 8008   4.661   5.057   7.544 -0.2263 -0.1623  0.0377
   75CHL1  H21A 8009   4.670   4.947   7.537 -0.9195 -0.1660 -0.9300
   75CHL1  H21B 8010   4.738   5.102   7.610 -0.3132 -0.4220  0.3175
   75CHL1  H21C 8011   4.676   5.109   7.447  0.7736  0.8730  0.7250
   75CHL1   C22 8012   4.499   5.026   7.738 -0.5422 -0.1187  0.2544
   75CHL1  H22A 8013   4.410   5.073   7.785  0.0900  0.1971  1.1548
   75CHL1  H22B 8014   4.465   4.922   7.718 -1.3803  0.3001 -0.5750
   75CHL1   C23 8015   4.619   5.029   7.832  0.0942  0.1030  0.2819
   75CHL1  H23A 8016   4.691   4.948   7.807 -1.0918 -1.3206  1.3660
   75CHL1  H23B 8017   4.676   5.124   7.835  1.6906 -0.8382  1.4646
   75CHL1   C24 8018   4.589   5.000   7.982  0.0136  0.1551  0.1274
   75CHL1  H24A 8019   4.509   5.072   8.010  1.6733  2.7380 -1.3918
   75CHL1  H24B 8020   4.541   4.904   8.011 -0.1903  0.3071  0.2972
   75CHL1   C25 8021   4.710   5.030   8.069 -0.5256 -0.2063  0.2008
   75CHL1   H25 8022   4.776   5.101   8.015  0.5075  0.0513  1.7452
   75CHL1   C26 8023   4.683   5.078   8.205  1.1456 -0.5986 -0.1188
   75CHL1  H26A 8024   4.605   5.154   8.182 -0.7255 -2.0011  1.2308
   75CHL1  H26B 8025   4.649   4.997   8.273 -2.3503 -0.0537 -1.0088
   75CHL1  H26C 8026   4.774   5.125   8.248  0.5310 -0.7410  1.4211
   75CHL1   C27 8027   4.797   4.898   8.076  0.2424 -0.5994 -0.3783
   75CHL1  H27A 8028   4.886   4.918   8.139 -0.1719 -2.9403  1.0577
   75CHL1  H27B 8029   4.754   4.813   8.133  1.0141 -2.0048 -1.8025
   75CHL1  H27C 8030   4.826   4.866   7.974  1.4568 -0.9268  0.0473
   76CHL1    C3 8031   3.601   6.499   7.335  0.0124  0.5478 -0.0006
   76CHL1    H3 8032   3.496   6.526   7.361  0.6645 -0.0789  3.7993
   76CHL1    O3 8033   3.629   6.535   7.199  0.2549  0.0945  0.3736
   76CHL1   H3' 8034   3.571   6.486   7.139  0.8802  0.4358 -0.5274
   76CHL1    C4 8035   3.715   6.554   7.423 -0.6442  0.7078  0.6206
   76CHL1   H4A 8036   3.807   6.514   7.376  0.3556  1.7302  1.6270
   76CHL1   H4B 8037   3.723   6.663   7.402  0.5962  0.1372 -2.4981
   76CHL1    C5 8038   3.716   6.497   7.562 -0.0774  0.5102 -0.1814
   76CHL1    C6 8039   3.731   6.584   7.667 -0.0645 -0.3442 -0.7844
   76CHL1    H6 8040   3.746   6.693   7.661  1.3178 -0.4489  0.4138
   76CHL1    C7 8041   3.731   6.549   7.814 -0.1475 -0.8250 -0.3878
   76CHL1   H7A 8042   3.814   6.599   7.868 -2.7671  2.1926  1.2188
   76CHL1   H7B 8043   3.640   6.588   7.865  1.3589  1.1887  0.9027
   76CHL1    C8 8044   3.740   6.397   7.831  0.0014  0.1992 -0.6131
   76CHL1    H8 8045   3.844   6.361   7.817 -1.1101 -2.7658 -2.1708
   76CHL1   C14 8046   3.703   6.363   7.972 -0.4726 -0.1614  0.4748
   76CHL1   H14 8047   3.597   6.388   7.994 -0.3347  0.4327  0.4609
   76CHL1   C15 8048   3.776   6.446   8.081 -0.1661 -0.1274 -0.3664
   76CHL1  H15A 8049   3.884   6.446   8.054  0.0304  0.9001  0.3728
   76CHL1  H15B 8050   3.732   6.547   8.069 -1.2177 -0.6482 -1.0565
   76CHL1   C16 8051   3.756   6.361   8.198 -0.4776  0.2568  0.7736
   76CHL1  H16A 8052   3.861   6.331   8.218  0.5454  1.3043 -2.3410
   76CHL1  H16B 8053   3.711   6.412   8.286 -2.7773  0.0828 -0.2365
   76CHL1   C17 8054   3.685   6.234   8.152  0.3598  0.4635 -0.0362
   76CHL1   H17 8055   3.578   6.262   8.157  0.3986  1.3314 -2.4855
   76CHL1   C13 8056   3.725   6.215   8.009  0.2525 -0.1265  0.5583
   76CHL1   C18 8057   3.871   6.166   7.995  0.8606 -1.2485 -0.0270
   76CHL1  H18A 8058   3.902   6.190   7.891 -0.5245 -0.8129 -0.3620
   76CHL1  H18B 8059   3.945   6.218   8.061 -0.5229  1.9268 -0.7803
   76CHL1  H18C 8060   3.883   6.057   8.014 -1.1640 -1.2413  1.6203
   76CHL1   C12 8061   3.626   6.135   7.913  0.4370  0.1134 -0.1664
   76CHL1  H12A 8062   3.635   6.024   7.926 -2.2637 -0.0634  0.7315
   76CHL1  H12B 8063   3.526   6.171   7.944  0.2428 -0.9468  0.5187
   76CHL1   C11 8064   3.654   6.162   7.768 -0.6352 -0.3813 -0.0732
   76CHL1  H11A 8065   3.746   6.109   7.736 -1.6793 -1.9591 -0.5963
   76CHL1  H11B 8066   3.578   6.113   7.703 -0.3137 -2.5662  1.1126
   76CHL1    C9 8067   3.658   6.313   7.728 -0.7775  0.4153 -0.2700
   76CHL1    H9 8068   3.561   6.360   7.754 -1.2550 -1.1212  0.8206
   76CHL1   C10 8069   3.694   6.346   7.579 -0.2816  0.5135 -0.2487
   76CHL1   C19 8070   3.825   6.281   7.542 -0.0650 -0.1570 -0.1544
   76CHL1  H19A 8071   3.863   6.310   7.442  2.5504 -1.4472  0.3550
   76CHL1  H19B 8072   3.902   6.309   7.617  0.0664 -0.8009 -0.0466
   76CHL1  H19C 8073   3.817   6.170   7.537 -0.6946 -0.0485 -3.8141
   76CHL1    C1 8074   3.579   6.293   7.484 -0.2265 -0.2742  0.5368
   76CHL1   H1A 8075   3.566   6.185   7.464 -1.9069 -0.1085  0.6514
   76CHL1   H1B 8076   3.480   6.335   7.508 -0.1780 -0.8201  1.7911
   76CHL1    C2 8077   3.613   6.350   7.342  0.2260 -1.3197 -0.4332
   76CHL1   H2A 8078   3.532   6.309   7.278 -2.7654  1.1487  1.4650
   76CHL1   H2B 8079   3.705   6.313   7.293  0.4411  0.6308 -1.6484
   76CHL1   C20 8080   3.711   6.113   8.240 -0.5194 -0.2876 -0.4416
   76CHL1   H20 8081   3.794   6.049   8.203 -0.4565 -0.5790  0.1828
   76CHL1   C21 8082   3.580   6.035   8.235 -0.6424 -0.0082 -0.2070
   76CHL1  H21A 8083   3.555   6.016   8.128 -2.7448 -1.3064  0.4600
   76CHL1  H21B 8084   3.494   6.088   8.282  0.3410 -0.4844  2.2709
   76CHL1  H21C 8085   3.592   5.934   8.280 -0.5581  0.0999  0.0135
   76CHL1   C22 8086   3.736   6.151   8.389 -0.3366 -0.6402  0.4212
   76CHL1  H22A 8087   3.820   6.223   8.399 -1.7463  0.7687  3.4181
   76CHL1  H22B 8088   3.647   6.207   8.427  1.9780  3.0787  0.8931
   76CHL1   C23 8089   3.783   6.034   8.485  0.0784  0.0671 -0.1554
   76CHL1  H23A 8090   3.704   5.956   8.477  1.4334 -1.3109 -0.5109
   76CHL1  H23B 8091   3.875   5.994   8.439  1.6155  2.6185  0.5253
   76CHL1   C24 8092   3.801   6.081   8.631 -0.5651 -0.3833  0.0535
   76CHL1  H24A 8093   3.881   6.158   8.635 -2.2346  1.4284  0.2426
   76CHL1  H24B 8094   3.712   6.140   8.665  1.0271  1.5834  1.0162
   76CHL1   C25 8095   3.822   5.964   8.736 -0.4393  0.7164 -0.9006
   76CHL1   H25 8096   3.834   6.012   8.835  2.0191  1.4334 -1.4812
   76CHL1   C26 8097   3.710   5.859   8.738 -0.6044 -0.4770  0.2295
   76CHL1  H26A 8098   3.721   5.781   8.816 -1.2813 -1.7086 -0.8673
   76CHL1  H26B 8099   3.609   5.904   8.752  0.4689  1.3627  2.6043
   76CHL1  H26C 8100   3.713   5.806   8.640  1.1667 -1.9190  0.9989
   76CHL1   C27 8101   3.954   5.882   8.711 -0.6946 -0.3973 -0.2536
   76CHL1  H27A 8102   3.955   5.823   8.617 -1.1324 -0.5310 -0.1759
   76CHL1  H27B 8103   4.024   5.968   8.699 -1.7316  0.6380  0.9014
   76CHL1  H27C 8104   3.986   5.812   8.791 -1.5205 -1.7748 -1.0810
   77CHL1    C3 8105   1.972   5.518   6.921  0.0438 -0.5262  0.3330
   77CHL1    H3 8106   2.068   5.462   6.931  0.8065  1.0238  2.5914
   77CHL1    O3 8107   1.957   5.540   6.781  0.1676 -0.0309 -0.6196
   77CHL1   H3' 8108   1.936   5.458   6.735  1.4988 -0.0009 -1.3341
   77CHL1    C4 8109   1.845   5.444   6.978 -0.1773  0.1298 -0.2392
   77CHL1   H4A 8110   1.752   5.496   6.946 -1.3174 -1.4342  0.3858
   77CHL1   H4B 8111   1.833   5.348   6.924 -1.2991  0.0674  0.0904
   77CHL1    C5 8112   1.844   5.416   7.129  0.0837 -0.5174 -0.0844
   77CHL1    C6 8113   1.816   5.300   7.185  0.1400  0.1807  1.1312
   77CHL1    H6 8114   1.795   5.216   7.118  0.0120  1.7219 -0.8452
   77CHL1    C7 8115   1.829   5.257   7.329 -0.3837  0.1352 -0.2950
   77CHL1   H7A 8116   1.739   5.197   7.352 -0.9179  0.7083 -0.8562
   77CHL1   H7B 8117   1.918   5.193   7.348  0.5120  1.7735  1.3875
   77CHL1    C8 8118   1.831   5.380   7.417 -0.7099 -0.2105  0.3285
   77CHL1    H8 8119   1.726   5.416   7.423 -1.0887 -1.1127 -0.5273
   77CHL1   C14 8120   1.894   5.353   7.556 -0.4470  0.7658  0.2747
   77CHL1   H14 8121   1.997   5.317   7.540 -0.6598  0.0736  0.4396
   77CHL1   C15 8122   1.819   5.230   7.620  0.4937  0.0318 -0.6758
   77CHL1  H15A 8123   1.712   5.250   7.598  0.5090  3.9334  1.8753
   77CHL1  H15B 8124   1.826   5.130   7.571 -2.8234 -0.3756 -0.5386
   77CHL1   C16 8125   1.854   5.245   7.770  0.6359  0.0851  0.5592
   77CHL1  H16A 8126   1.760   5.229   7.828  0.4703  1.7741  0.7897
   77CHL1  H16B 8127   1.915   5.156   7.797 -2.2411 -1.9831  0.7542
   77CHL1   C17 8128   1.926   5.387   7.785 -0.0562  0.2451  0.3245
   77CHL1   H17 8129   2.033   5.363   7.767 -0.6885 -0.8664 -2.6874
   77CHL1   C13 8130   1.886   5.465   7.658  0.1124 -0.6141 -0.0909
   77CHL1   C18 8131   1.742   5.527   7.664 -0.3330 -0.3135 -0.3615
   77CHL1  H18A 8132   1.696   5.576   7.576 -0.3572  1.0275  0.3721
   77CHL1  H18B 8133   1.672   5.444   7.687 -1.3479  0.3480 -1.0198
   77CHL1  H18C 8134   1.729   5.596   7.750 -1.8506 -1.9246  0.7845
   77CHL1   C12 8135   1.994   5.569   7.601  0.8475  0.6263 -0.1932
   77CHL1  H12A 8136   1.992   5.659   7.667 -0.1925  0.5279 -0.0800
   77CHL1  H12B 8137   2.097   5.528   7.594  1.1495  1.3144  0.0659
   77CHL1   C11 8138   1.955   5.614   7.458 -0.7059  0.4756  0.5894
   77CHL1  H11A 8139   1.858   5.667   7.473 -2.1290 -1.8375  0.0375
   77CHL1  H11B 8140   2.017   5.695   7.415 -1.5944  0.6019 -0.4970
   77CHL1    C9 8141   1.925   5.500   7.357  0.8685  0.0753  0.3579
   77CHL1    H9 8142   2.021   5.447   7.343  0.5897 -0.4538  0.4296
   77CHL1   C10 8143   1.884   5.539   7.213 -0.0251 -0.1476  0.5531
   77CHL1   C19 8144   1.758   5.625   7.226 -0.1476 -0.1746 -0.0511
   77CHL1  H19A 8145   1.772   5.703   7.304  1.2438 -1.2150  0.7679
   77CHL1  H19B 8146   1.734   5.666   7.125  1.5021  0.6884 -0.1344
   77CHL1  H19C 8147   1.668   5.566   7.255  0.1758 -0.6982 -0.1049
   77CHL1    C1 8148   1.997   5.626   7.147  1.0130  0.5575  0.0739
   77CHL1   H1A 8149   1.995   5.726   7.194  0.0845  1.0021 -0.8712
   77CHL1   H1B 8150   2.096   5.580   7.169 -0.2784 -2.2575  0.5141
   77CHL1    C2 8151   1.974   5.652   6.999 -0.4090 -0.2475  1.2072
   77CHL1   H2A 8152   2.052   5.719   6.958 -1.3002  0.2336  0.2511
   77CHL1   H2B 8153   1.883   5.713   6.980 -0.4040 -0.2105  1.2974
   77CHL1   C20 8154   1.897   5.450   7.923  0.9047 -0.2994  0.2919
   77CHL1   H20 8155   1.787   5.460   7.925  0.7508 -1.3893 -0.9927
   77CHL1   C21 8156   1.965   5.594   7.940 -0.0315 -0.3949  0.3184
   77CHL1  H21A 8157   2.075   5.578   7.932  0.5201  1.6219  2.6624
   77CHL1  H21B 8158   1.950   5.633   8.043 -0.5872  2.1011 -0.6463
   77CHL1  H21C 8159   1.917   5.661   7.866 -2.0608 -0.7121  1.2756
   77CHL1   C22 8160   1.950   5.356   8.035 -0.3119 -0.0707 -0.5248
   77CHL1  H22A 8161   1.903   5.255   8.027  2.5958 -1.7654  1.6030
   77CHL1  H22B 8162   2.060   5.344   8.035 -0.0927  1.3915 -2.4660
   77CHL1   C23 8163   1.903   5.391   8.175 -0.1128 -0.0659 -0.8299
   77CHL1  H23A 8164   1.927   5.499   8.179  0.5075 -0.1789 -1.4035
   77CHL1  H23B 8165   1.794   5.369   8.173 -0.8375  2.9858 -3.6147
   77CHL1   C24 8166   1.966   5.301   8.286  0.5806  0.2325 -0.8858
   77CHL1  H24A 8167   1.940   5.196   8.262  0.6821  0.2364 -1.0140
   77CHL1  H24B 8168   2.077   5.310   8.286  0.5642  0.5335  0.0394
   77CHL1   C25 8169   1.927   5.347   8.425  0.7643  0.0298 -0.2398
   77CHL1   H25 8170   1.886   5.450   8.424  0.3282 -0.1168 -2.5568
   77CHL1   C26 8171   1.812   5.265   8.485  0.3423  0.2155  0.5349
   77CHL1  H26A 8172   1.789   5.298   8.588 -0.6360  1.0186  0.0821
   77CHL1  H26B 8173   1.715   5.269   8.431  0.4709 -0.2223  0.2626
   77CHL1  H26C 8174   1.852   5.163   8.504 -3.8289 -1.8248 -0.5165
   77CHL1   C27 8175   2.044   5.343   8.518 -0.0825 -0.3200  0.0176
   77CHL1  H27A 8176   2.024   5.381   8.621 -0.0644 -1.6720  0.5304
   77CHL1  H27B 8177   2.095   5.245   8.520 -1.4604 -1.0551  1.7231
   77CHL1  H27C 8178   2.114   5.421   8.479  0.2864 -1.4944 -1.7618
   78CHL1    C3 8179   5.977   5.434   6.863  0.8824  0.3104 -0.2750
   78CHL1    H3 8180   5.868   5.427   6.884  0.9159 -1.3825 -0.4644
   78CHL1    O3 8181   5.996   5.443   6.722  0.1493  0.1923 -0.0928
   78CHL1   H3' 8182   5.912   5.419   6.682 -0.0389  5.1630 -3.6457
   78CHL1    C4 8183   6.034   5.559   6.923 -0.0520  1.2639 -0.7780
   78CHL1   H4A 8184   6.141   5.561   6.893  0.2282 -0.9596 -0.1076
   78CHL1   H4B 8185   5.978   5.645   6.878 -3.4958 -0.2965  0.1970
   78CHL1    C5 8186   6.020   5.554   7.076 -0.9490 -0.5458 -0.1784
   78CHL1    C6 8187   5.965   5.651   7.142  0.3069 -0.5719 -0.1814
   78CHL1    H6 8188   5.931   5.738   7.085 -2.6159 -1.0649  0.6165
   78CHL1    C7 8189   5.938   5.658   7.294  0.3280 -0.1315  0.0330
   78CHL1   H7A 8190   5.958   5.760   7.332 -1.9037  0.3046  0.1650
   78CHL1   H7B 8191   5.832   5.633   7.316 -0.2139  0.7686 -1.4347
   78CHL1    C8 8192   6.008   5.544   7.366 -0.6397 -0.4743  0.3084
   78CHL1    H8 8193   6.113   5.581   7.367 -0.7083  0.0221 -2.5735
   78CHL1   C14 8194   5.956   5.532   7.506  0.0206  0.5330 -0.9865
   78CHL1   H14 8195   5.854   5.487   7.503  0.6185 -1.3600  2.2377
   78CHL1   C15 8196   5.949   5.660   7.596 -0.2406  0.5254  0.0215
   78CHL1  H15A 8197   6.035   5.722   7.564  0.3521 -1.0305 -1.5475
   78CHL1  H15B 8198   5.851   5.712   7.585 -0.3852  0.3540  0.4839
   78CHL1   C16 8199   5.947   5.606   7.744 -1.0188 -0.0641 -0.5938
   78CHL1  H16A 8200   6.036   5.637   7.803  0.7903 -0.0610 -3.1308
   78CHL1  H16B 8201   5.861   5.654   7.795  0.9907  1.3996  1.6601
   78CHL1   C17 8202   5.958   5.451   7.733  0.3285 -0.1547 -1.2067
   78CHL1   H17 8203   5.858   5.406   7.720  1.0794 -1.3307 -3.4242
   78CHL1   C13 8204   6.028   5.430   7.598  0.5993  0.2375  0.0299
   78CHL1   C18 8205   6.178   5.468   7.612 -0.3527 -0.7093 -0.3875
   78CHL1  H18A 8206   6.216   5.386   7.676  0.0874 -0.5116 -0.3923
   78CHL1  H18B 8207   6.230   5.476   7.514 -0.5529 -1.1938 -0.5387
   78CHL1  H18C 8208   6.197   5.562   7.668  1.4753 -1.7424  0.8049
   78CHL1   C12 8209   6.007   5.297   7.524 -0.7211  0.1425  0.7149
   78CHL1  H12A 8210   6.042   5.212   7.587  1.8002 -0.3151 -1.1682
   78CHL1  H12B 8211   5.898   5.276   7.514 -0.6464 -0.4318  1.0083
   78CHL1   C11 8212   6.065   5.290   7.381 -0.1845  0.4507 -0.1053
   78CHL1  H11A 8213   6.174   5.306   7.397 -0.1270 -0.0284 -0.0323
   78CHL1  H11B 8214   6.054   5.193   7.328  1.9057 -0.1133  0.4097
   78CHL1    C9 8215   6.001   5.409   7.291 -0.3696  0.2685  0.4315
   78CHL1    H9 8216   5.891   5.395   7.289 -0.4544  0.9671 -0.4999
   78CHL1   C10 8217   6.058   5.417   7.143 -0.5093 -0.3826  1.0285
   78CHL1   C19 8218   6.213   5.401   7.145 -0.4941 -0.5266 -0.4718
   78CHL1  H19A 8219   6.230   5.293   7.164 -0.3772 -0.3200  0.6635
   78CHL1  H19B 8220   6.248   5.429   7.044 -1.6162 -1.5855 -1.1823
   78CHL1  H19C 8221   6.253   5.483   7.209  0.2709  2.1538 -4.0887
   78CHL1    C1 8222   5.996   5.302   7.063 -0.8252  0.3591  0.3690
   78CHL1   H1A 8223   6.037   5.204   7.096 -0.7863  0.1398 -0.3279
   78CHL1   H1B 8224   5.887   5.313   7.078 -1.1655  0.3976 -1.9070
   78CHL1    C2 8225   6.031   5.301   6.911 -0.2924 -0.0070  0.1326
   78CHL1   H2A 8226   5.989   5.215   6.855 -0.8213 -0.4230  1.1533
   78CHL1   H2B 8227   6.139   5.300   6.885 -0.6071 -1.0164 -1.2371
   78CHL1   C20 8228   6.011   5.386   7.859  0.4214 -0.5205 -0.9874
   78CHL1   H20 8229   6.112   5.416   7.893 -0.6464  0.3306  1.6575
   78CHL1   C21 8230   6.016   5.234   7.849 -0.5823  0.5808 -0.2717
   78CHL1  H21A 8231   6.114   5.220   7.798  1.4803 -1.6150  3.7692
   78CHL1  H21B 8232   5.939   5.190   7.782  0.9268  0.1758 -1.8119
   78CHL1  H21C 8233   6.026   5.183   7.947 -0.9299  0.0635 -0.5038
   78CHL1   C22 8234   5.924   5.423   7.982 -0.0296  0.0428 -0.3065
   78CHL1  H22A 8235   5.985   5.397   8.070  3.0208 -0.8186 -2.5033
   78CHL1  H22B 8236   5.919   5.534   7.978  0.1503  0.0295 -1.5344
   78CHL1   C23 8237   5.788   5.342   7.991  0.5760 -0.6039 -0.4887
   78CHL1  H23A 8238   5.726   5.361   7.901  0.2387 -0.3284 -0.2079
   78CHL1  H23B 8239   5.802   5.233   7.978 -2.3821 -1.0445 -0.6640
   78CHL1   C24 8240   5.708   5.367   8.125 -0.4129  0.2023 -0.0890
   78CHL1  H24A 8241   5.765   5.356   8.219 -0.9464  0.6747  0.2950
   78CHL1  H24B 8242   5.672   5.472   8.114  0.1083  0.2939 -1.0542
   78CHL1   C25 8243   5.588   5.265   8.142  0.0027 -0.4726  0.5206
   78CHL1   H25 8244   5.620   5.162   8.114 -0.8437 -0.2865 -1.3103
   78CHL1   C26 8245   5.534   5.264   8.289  0.1398 -0.1976 -0.4529
   78CHL1  H26A 8246   5.615   5.237   8.360 -0.7830  0.5796  0.9323
   78CHL1  H26B 8247   5.506   5.368   8.314  1.3067  0.3712 -1.3755
   78CHL1  H26C 8248   5.446   5.197   8.296 -0.7762  1.0186  0.0667
   78CHL1   C27 8249   5.478   5.295   8.036  0.0814  0.2571 -0.5093
   78CHL1  H27A 8250   5.388   5.234   8.057 -0.7936  1.9941  1.0188
   78CHL1  H27B 8251   5.444   5.401   8.038  1.5637  0.7710  2.1781
   78CHL1  H27C 8252   5.520   5.285   7.934 -0.1316  0.3048 -0.6029
   79CHL1    C3 8253   2.607   4.938   7.101  0.6151 -0.1213  0.1757
   79CHL1    H3 8254   2.555   5.037   7.102 -1.6168 -1.1882 -1.2468
   79CHL1    O3 8255   2.620   4.907   6.963  0.1270 -0.0784 -0.7146
   79CHL1   H3' 8256   2.629   4.812   6.973 -0.8981 -0.0374  0.8531
   79CHL1    C4 8257   2.746   4.952   7.164 -0.1691 -0.2712  0.7211
   79CHL1   H4A 8258   2.807   4.864   7.135 -0.1866 -0.3136  0.8117
   79CHL1   H4B 8259   2.805   5.032   7.114 -0.0300  1.1004  2.9560
   79CHL1    C5 8260   2.744   4.957   7.312  0.1700 -0.2267 -0.0415
   79CHL1    C6 8261   2.784   5.069   7.375  0.0219  0.2224 -0.3127
   79CHL1    H6 8262   2.827   5.156   7.322  0.4661  1.0025  1.2704
   79CHL1    C7 8263   2.783   5.087   7.524 -0.2427  0.4923 -0.2749
   79CHL1   H7A 8264   2.886   5.119   7.551  0.0979 -1.9105  1.5578
   79CHL1   H7B 8265   2.709   5.157   7.568 -0.9325  1.7621 -3.2465
   79CHL1    C8 8266   2.765   4.958   7.605  0.7777  0.9044  0.0394
   79CHL1    H8 8267   2.860   4.900   7.604  1.0102  1.1143  2.7512
   79CHL1   C14 8268   2.727   4.988   7.746 -0.0661 -0.1128  0.0120
   79CHL1   H14 8269   2.630   5.040   7.728  0.4247  0.7937 -0.0613
   79CHL1   C15 8270   2.816   5.083   7.820  0.7128  0.0767 -0.9834
   79CHL1  H15A 8271   2.921   5.047   7.821  0.2269 -1.4716  1.1718
   79CHL1  H15B 8272   2.808   5.191   7.794  2.5196  0.2107 -1.1103
   79CHL1   C16 8273   2.767   5.064   7.968 -0.1280  0.0224  0.0051
   79CHL1  H16A 8274   2.850   5.047   8.039 -0.4261  2.5810  1.0923
   79CHL1  H16B 8275   2.706   5.149   8.005 -1.5198 -1.2324  0.6906
   79CHL1   C17 8276   2.668   4.944   7.969 -0.3030 -0.7164  0.1622
   79CHL1   H17 8277   2.565   4.985   7.965  0.1648  0.4843 -0.0942
   79CHL1   C13 8278   2.697   4.871   7.840 -0.7162  0.3970  1.4077
   79CHL1   C18 8279   2.822   4.789   7.851  0.3678  0.3435  0.8872
   79CHL1  H18A 8280   2.806   4.692   7.902  1.5303  0.4557  1.4862
   79CHL1  H18B 8281   2.871   4.766   7.754  0.7017  1.4774  0.7690
   79CHL1  H18C 8282   2.900   4.832   7.916  1.4321 -0.0306 -0.1161
   79CHL1   C12 8283   2.591   4.787   7.777 -0.0204  0.8788  0.2255
   79CHL1  H12A 8284   2.573   4.693   7.832 -1.7479  1.0402  0.0035
   79CHL1  H12B 8285   2.492   4.838   7.784  0.3514  2.1959 -2.7170
   79CHL1   C11 8286   2.615   4.741   7.630 -0.7346 -0.3734  0.2813
   79CHL1  H11A 8287   2.703   4.674   7.639 -0.1361  0.3618  0.0815
   79CHL1  H11B 8288   2.527   4.684   7.592 -0.5860 -0.4385  0.0352
   79CHL1    C9 8289   2.653   4.872   7.549  0.3737  0.6786 -0.1741
   79CHL1    H9 8290   2.560   4.931   7.559 -1.6736 -2.5493  1.6155
   79CHL1   C10 8291   2.664   4.846   7.386 -0.7556  0.6545 -0.8251
   79CHL1   C19 8292   2.732   4.703   7.368 -0.0526  0.1540 -0.0838
   79CHL1  H19A 8293   2.659   4.621   7.387  2.3935 -2.8249 -2.3871
   79CHL1  H19B 8294   2.753   4.695   7.259 -1.3487  0.8450 -0.4047
   79CHL1  H19C 8295   2.822   4.688   7.431 -0.6490 -1.9668  0.3444
   79CHL1    C1 8296   2.525   4.834   7.321  0.6696  0.0676 -0.5252
   79CHL1   H1A 8297   2.483   4.746   7.374  0.3690  0.4770 -0.0795
   79CHL1   H1B 8298   2.472   4.924   7.359  0.4768  0.4135 -1.5848
   79CHL1    C2 8299   2.526   4.828   7.168  0.2991 -0.2756 -0.2201
   79CHL1   H2A 8300   2.421   4.852   7.139  0.3691  2.6972  1.5468
   79CHL1   H2B 8301   2.559   4.728   7.135  1.0997  0.2464 -1.0299
   79CHL1   C20 8302   2.683   4.863   8.096 -0.3697  0.5830  0.3495
   79CHL1   H20 8303   2.782   4.813   8.098 -0.4031  0.4835 -0.3375
   79CHL1   C21 8304   2.595   4.742   8.106 -0.5109 -0.2570  0.5199
   79CHL1  H21A 8305   2.601   4.687   8.202  3.1129 -1.3232 -0.1578
   79CHL1  H21B 8306   2.609   4.668   8.024 -0.7863  0.4562 -0.1752
   79CHL1  H21C 8307   2.491   4.776   8.090 -0.1203  0.9443  0.4434
   79CHL1   C22 8308   2.673   4.958   8.224  0.1652  0.1955 -0.3602
   79CHL1  H22A 8309   2.734   5.050   8.227 -0.1218  0.3639  0.9701
   79CHL1  H22B 8310   2.567   4.990   8.226  0.5385  1.4923  2.0390
   79CHL1   C23 8311   2.701   4.871   8.351  0.9678 -0.2291  0.1525
   79CHL1  H23A 8312   2.614   4.809   8.380  1.3338 -0.1584  1.5065
   79CHL1  H23B 8313   2.786   4.808   8.319  0.1273  0.0487 -2.8662
   79CHL1   C24 8314   2.751   4.953   8.469  0.3068 -0.1147 -0.5839
   79CHL1  H24A 8315   2.828   5.029   8.442 -0.4881  1.1415  0.5729
   79CHL1  H24B 8316   2.663   5.017   8.489  1.8212  1.5898  1.0876
   79CHL1   C25 8317   2.801   4.874   8.596 -0.7573 -0.3340  0.5795
   79CHL1   H25 8318   2.907   4.853   8.575  0.2811  4.1217  0.2470
   79CHL1   C26 8319   2.793   4.950   8.722  0.0131  0.4511  0.0417
   79CHL1  H26A 8320   2.688   4.973   8.748  0.0912  1.0952 -0.1879
   79CHL1  H26B 8321   2.830   4.877   8.798 -1.3224 -1.6327 -1.2081
   79CHL1  H26C 8322   2.869   5.031   8.728 -1.3922  1.8364 -0.2151
   79CHL1   C27 8323   2.730   4.739   8.613 -0.3751 -0.3335 -0.8872
   79CHL1  H27A 8324   2.623   4.761   8.631 -0.3403 -1.8125  1.5903
   79CHL1  H27B 8325   2.737   4.668   8.527 -0.2760  1.1122 -2.1114
   79CHL1  H27C 8326   2.764   4.689   8.706  0.7579  1.4397 -0.3147
   80CHL1    C3 8327   4.974   3.908   7.150 -0.3285 -0.4684 -0.2543
   80CHL1    H3 8328   5.064   3.972   7.162 -0.6275  0.4240 -2.3606
   80CHL1    O3 8329   4.940   3.908   7.012  0.1442  0.7119  0.3164
   80CHL1   H3' 8330   4.859   3.959   7.002 -0.4560 -0.1801  0.4696
   80CHL1    C4 8331   5.009   3.763   7.199 -0.0532  0.1964 -0.1659
   80CHL1   H4A 8332   4.935   3.687   7.169  1.2358 -0.7941 -0.9693
   80CHL1   H4B 8333   5.106   3.738   7.150  0.9690  1.3740  1.1844
   80CHL1    C5 8334   5.022   3.746   7.348 -0.6248 -0.1741 -0.0058
   80CHL1    C6 8335   5.134   3.688   7.397 -0.0430  0.1541  0.1798
   80CHL1    H6 8336   5.207   3.658   7.321 -1.9119 -2.1867 -0.8416
   80CHL1    C7 8337   5.157   3.661   7.544  0.2327  0.2170  0.1670
   80CHL1   H7A 8338   5.205   3.563   7.563  0.5885  0.0817 -1.3156
   80CHL1   H7B 8339   5.225   3.735   7.592 -2.0483  1.6148  1.4498
   80CHL1    C8 8340   5.024   3.682   7.625  0.6819 -0.5211 -0.2929
   80CHL1    H8 8341   4.965   3.591   7.599  0.5872 -1.1606  1.8870
   80CHL1   C14 8342   5.054   3.682   7.774 -0.1471 -0.7407 -0.2437
   80CHL1   H14 8343   5.119   3.772   7.787 -0.4439 -0.6949  1.1203
   80CHL1   C15 8344   5.140   3.569   7.828 -0.2833 -0.3889  0.0596
   80CHL1  H15A 8345   5.108   3.466   7.802  0.0572 -0.2337 -1.0274
   80CHL1  H15B 8346   5.248   3.564   7.799  0.1281 -2.1037  1.6699
   80CHL1   C16 8347   5.130   3.604   7.981 -0.8518 -0.6245  0.5887
   80CHL1  H16A 8348   5.129   3.503   8.026 -0.3124 -1.2289 -0.7078
   80CHL1  H16B 8349   5.230   3.646   8.005 -0.3035  0.2551 -2.7113
   80CHL1   C17 8350   5.017   3.705   8.005 -0.6093  0.0323  0.1105
   80CHL1   H17 8351   5.073   3.801   8.012 -0.4608 -0.0496  0.0489
   80CHL1   C13 8352   4.941   3.711   7.865  0.0304  0.2583  0.5827
   80CHL1   C18 8353   4.845   3.591   7.845 -0.1524  0.0699 -0.3701
   80CHL1  H18A 8354   4.889   3.497   7.883 -0.9159  0.0640  0.5166
   80CHL1  H18B 8355   4.755   3.613   7.907  0.7494  1.2044  0.5914
   80CHL1  H18C 8356   4.816   3.570   7.739  1.5923 -2.1564 -0.4694
   80CHL1   C12 8357   4.862   3.844   7.824  0.0112 -0.2646  1.1627
   80CHL1  H12A 8358   4.760   3.840   7.867 -0.8362 -0.5233 -0.7766
   80CHL1  H12B 8359   4.905   3.937   7.866  0.9252  0.4142 -1.1589
   80CHL1   C11 8360   4.829   3.838   7.670  0.2131 -0.7139 -0.2510
   80CHL1  H11A 8361   4.742   3.769   7.666  0.1288 -0.6507  0.4737
   80CHL1  H11B 8362   4.779   3.935   7.650  1.7678  0.0394 -0.6747
   80CHL1    C9 8363   4.951   3.808   7.577  0.9384  0.0638 -1.0438
   80CHL1    H9 8364   5.021   3.893   7.590 -0.9707  1.6290 -0.4520
   80CHL1   C10 8365   4.908   3.806   7.431 -0.3044 -0.3296 -0.3461
   80CHL1   C19 8366   4.782   3.711   7.410 -0.2232  0.1073  0.1930
   80CHL1  H19A 8367   4.770   3.694   7.300 -0.1969  0.0299  0.2018
   80CHL1  H19B 8368   4.798   3.618   7.468  1.4259  0.7621  0.8420
   80CHL1  H19C 8369   4.692   3.764   7.448  0.2023  0.7435  0.3289
   80CHL1    C1 8370   4.879   3.950   7.387  0.2256  0.6916  0.4873
   80CHL1   H1A 8371   4.792   3.997   7.436  0.9055  1.3628  1.0597
   80CHL1   H1B 8372   4.975   3.998   7.412  1.4039 -1.1760 -0.2106
   80CHL1    C2 8373   4.856   3.959   7.235 -0.5323 -0.3270 -0.2029
   80CHL1   H2A 8374   4.838   4.067   7.215 -2.6214 -0.4821  0.6677
   80CHL1   H2B 8375   4.764   3.908   7.199  0.4800 -0.6669 -2.4965
   80CHL1   C20 8376   4.943   3.677   8.137  0.2999  0.1764  0.6386
   80CHL1   H20 8377   4.892   3.579   8.127  0.2913  0.2789 -0.4788
   80CHL1   C21 8378   4.840   3.789   8.156  0.3481  0.3591  0.0572
   80CHL1  H21A 8379   4.877   3.892   8.138  0.5351 -0.0154 -1.9837
   80CHL1  H21B 8380   4.798   3.778   8.258 -0.9029 -2.1544 -0.6389
   80CHL1  H21C 8381   4.756   3.769   8.086 -0.1846  2.5155  0.0277
   80CHL1   C22 8382   5.030   3.674   8.263 -0.7656 -0.6486  0.6160
   80CHL1  H22A 8383   4.960   3.668   8.349 -1.7167 -2.0588 -0.2194
   80CHL1  H22B 8384   5.077   3.574   8.265 -0.2304 -0.3858  1.5892
   80CHL1   C23 8385   5.137   3.782   8.281  0.0001 -0.3449 -0.8736
   80CHL1  H23A 8386   5.203   3.778   8.192 -1.6558  2.9308 -2.4254
   80CHL1  H23B 8387   5.086   3.881   8.276 -1.2457 -0.8923  0.2208
   80CHL1   C24 8388   5.223   3.774   8.404  0.1616  0.3572  0.0639
   80CHL1  H24A 8389   5.165   3.801   8.495  2.9096 -0.7042  2.2829
   80CHL1  H24B 8390   5.244   3.666   8.418  0.1095  0.4097  0.5920
   80CHL1   C25 8391   5.345   3.861   8.404 -0.0731  0.8046 -0.5684
   80CHL1   H25 8392   5.383   3.855   8.508 -0.0284  1.3891 -0.5458
   80CHL1   C26 8393   5.457   3.814   8.312 -0.4374 -0.2092  0.1819
   80CHL1  H26A 8394   5.547   3.879   8.316 -0.2595 -0.4813  0.7192
   80CHL1  H26B 8395   5.485   3.709   8.336 -1.5174 -0.4341  0.5221
   80CHL1  H26C 8396   5.423   3.825   8.206 -2.7557  1.6396  1.0230
   80CHL1   C27 8397   5.319   4.009   8.365 -0.0582  0.2334  0.1260
   80CHL1  H27A 8398   5.269   4.013   8.266 -0.3198 -1.6759  0.1343
   80CHL1  H27B 8399   5.251   4.041   8.447  0.7166  0.4014  0.7165
   80CHL1  H27C 8400   5.412   4.069   8.368 -0.7181  1.2628  0.3624
   81CHL1    C3 8401   5.910   2.117   6.869 -0.1582  0.1061 -0.0287
   81CHL1    H3 8402   5.825   2.187   6.886  1.9337  2.2265  2.7749
   81CHL1    O3 8403   5.924   2.086   6.728  0.0780 -0.1039 -0.4165
   81CHL1   H3' 8404   6.009   2.042   6.726 -0.2827 -0.7814 -1.0629
   81CHL1    C4 8405   6.041   2.192   6.898 -0.5766  0.3286 -1.2450
   81CHL1   H4A 8406   6.125   2.130   6.861 -1.0497 -0.9931 -0.2160
   81CHL1   H4B 8407   6.062   2.284   6.840  0.3804  3.3429  3.3911
   81CHL1    C5 8408   6.076   2.214   7.041  0.9643 -0.3924 -0.6975
   81CHL1    C6 8409   6.113   2.335   7.095  0.0962  0.6077 -0.4753
   81CHL1    H6 8410   6.113   2.418   7.023  0.0225 -0.8632 -2.2429
   81CHL1    C7 8411   6.147   2.356   7.237 -0.1911 -0.3490  0.7157
   81CHL1   H7A 8412   6.239   2.418   7.230 -1.5346  1.6167 -1.4414
   81CHL1   H7B 8413   6.072   2.422   7.286  0.5376  2.0226 -1.1480
   81CHL1    C8 8414   6.156   2.227   7.326 -0.2373  0.0010 -0.5260
   81CHL1    H8 8415   6.253   2.175   7.313  0.7358  1.5035  0.5219
   81CHL1   C14 8416   6.142   2.264   7.474 -0.4013 -0.3648 -0.1310
   81CHL1   H14 8417   6.041   2.306   7.490 -0.1618 -0.0702  0.6333
   81CHL1   C15 8418   6.231   2.383   7.525  0.2000  0.1732  0.6178
   81CHL1  H15A 8419   6.328   2.368   7.473  1.0883  1.0883  1.9399
   81CHL1  H15B 8420   6.189   2.485   7.511  0.8856  0.4351  0.4521
   81CHL1   C16 8421   6.245   2.356   7.673  0.3254 -0.2111  0.0002
   81CHL1  H16A 8422   6.353   2.345   7.694  0.5005 -1.4207 -1.3868
   81CHL1  H16B 8423   6.216   2.444   7.734 -0.0608 -2.4451  3.2900
   81CHL1   C17 8424   6.170   2.222   7.708  0.2275 -0.1052 -0.0368
   81CHL1   H17 8425   6.067   2.248   7.737  0.8475  1.0546  1.2422
   81CHL1   C13 8426   6.163   2.151   7.571  0.1633 -1.0226 -0.1277
   81CHL1   C18 8427   6.309   2.081   7.548  0.0986  1.0896 -0.7503
   81CHL1  H18A 8428   6.331   2.012   7.631 -1.4589  2.7281  1.1292
   81CHL1  H18B 8429   6.316   2.027   7.451 -0.0371  0.3701 -0.3649
   81CHL1  H18C 8430   6.381   2.165   7.540 -0.2106  1.4572  0.2065
   81CHL1   C12 8431   6.041   2.050   7.542 -1.0490 -0.2823 -0.3154
   81CHL1  H12A 8432   6.065   1.957   7.599  2.0968 -1.5144 -3.3095
   81CHL1  H12B 8433   5.945   2.091   7.578 -2.9743 -2.1545 -2.9287
   81CHL1   C11 8434   6.040   2.018   7.389  0.0253  1.1428  0.1439
   81CHL1  H11A 8435   6.139   1.970   7.376 -0.4062  0.3705 -0.4429
   81CHL1  H11B 8436   5.956   1.947   7.370 -0.2585  1.4880  0.1081
   81CHL1    C9 8437   6.046   2.134   7.283  0.3896 -0.2853 -0.0977
   81CHL1    H9 8438   5.954   2.193   7.299  0.9316 -0.2507  3.7330
   81CHL1   C10 8439   6.053   2.097   7.135 -0.1289 -1.0549 -0.2138
   81CHL1   C19 8440   6.161   1.993   7.108 -0.3413  0.8721 -0.3235
   81CHL1  H19A 8441   6.156   1.967   7.000  1.3243 -0.2652 -0.1682
   81CHL1  H19B 8442   6.262   2.037   7.126 -0.2920  0.8299 -0.4930
   81CHL1  H19C 8443   6.148   1.903   7.170  1.2013  1.4478  0.8960
   81CHL1    C1 8444   5.914   2.029   7.101  0.2025 -0.7310  0.1308
   81CHL1   H1A 8445   5.909   1.934   7.159 -0.1189 -0.8328 -0.0638
   81CHL1   H1B 8446   5.834   2.096   7.140  2.3226  1.8082  0.3746
   81CHL1    C2 8447   5.888   1.991   6.954 -0.0340 -0.1174 -0.2339
   81CHL1   H2A 8448   5.782   1.960   6.945 -0.0813 -0.3424  0.9292
   81CHL1   H2B 8449   5.967   1.919   6.924  2.0839  2.0592 -0.2785
   81CHL1   C20 8450   6.223   2.158   7.842  0.2483 -0.2925  0.0300
   81CHL1   H20 8451   6.327   2.121   7.826  1.8633  3.5018  0.7089
   81CHL1   C21 8452   6.145   2.033   7.864 -0.3995  0.0312 -0.2101
   81CHL1  H21A 8453   6.037   2.060   7.864 -0.4364 -0.0256 -1.7480
   81CHL1  H21B 8454   6.172   1.981   7.958 -0.7388 -0.3094 -0.2985
   81CHL1  H21C 8455   6.162   1.956   7.786 -1.9144  0.7069 -1.2852
   81CHL1   C22 8456   6.235   2.251   7.960  0.1122  0.3788  0.1088
   81CHL1  H22A 8457   6.320   2.322   7.947 -0.5699  1.2633  0.3730
   81CHL1  H22B 8458   6.145   2.316   7.958  0.1426  0.4176 -0.1566
   81CHL1   C23 8459   6.259   2.172   8.091 -0.3936  0.4168 -0.2344
   81CHL1  H23A 8460   6.168   2.112   8.112 -0.0330  0.3008  1.0831
   81CHL1  H23B 8461   6.345   2.105   8.071 -1.7513 -1.3422 -0.3722
   81CHL1   C24 8462   6.282   2.260   8.214  0.1830  0.5043  0.1894
   81CHL1  H24A 8463   6.373   2.324   8.223 -0.7922  1.7801  1.3798
   81CHL1  H24B 8464   6.206   2.339   8.197 -0.3190  0.1057  0.5590
   81CHL1   C25 8465   6.256   2.184   8.344 -0.4341  0.2139  0.3832
   81CHL1   H25 8466   6.184   2.101   8.327  0.5793 -0.4671 -0.8242
   81CHL1   C26 8467   6.374   2.086   8.387  0.6292 -0.4541 -0.2580
   81CHL1  H26A 8468   6.342   2.022   8.472 -0.3330 -0.1222 -0.3576
   81CHL1  H26B 8469   6.384   2.021   8.297 -0.9132 -0.2025 -0.6341
   81CHL1  H26C 8470   6.467   2.144   8.402 -1.9326  3.4831  1.8941
   81CHL1   C27 8471   6.225   2.273   8.459 -1.0335  0.3112  0.1948
   81CHL1  H27A 8472   6.194   2.212   8.547  2.5833 -0.2950  1.2025
   81CHL1  H27B 8473   6.316   2.332   8.484 -0.0882 -0.6916 -0.7662
   81CHL1  H27C 8474   6.136   2.338   8.449 -1.0833  0.0327 -1.3126
   82CHL1    C3 8475   0.677   3.475   6.855  0.0036 -0.1864  0.6486
   82CHL1    H3 8476   0.714   3.578   6.837 -0.5280 -0.1488 -0.2692
   82CHL1    O3 8477   0.605   3.445   6.733  0.2565  0.3057  0.0695
   82CHL1   H3' 8478   0.562   3.360   6.746 -3.7709  1.9579 -0.8570
   82CHL1    C4 8479   0.792   3.376   6.879  0.0971  0.0075  0.0700
   82CHL1   H4A 8480   0.748   3.274   6.873 -2.7943  1.1840 -0.4255
   82CHL1   H4B 8481   0.863   3.397   6.796  0.6111 -1.2409  0.1691
   82CHL1    C5 8482   0.842   3.405   7.014  0.0390 -1.1218  0.1177
   82CHL1    C6 8483   0.966   3.455   7.029  0.3113  0.9681  0.2476
   82CHL1    H6 8484   1.026   3.457   6.937  1.0238  2.1301  0.7239
   82CHL1    C7 8485   1.040   3.477   7.159 -0.1309 -0.1679 -0.3392
   82CHL1   H7A 8486   1.138   3.428   7.143 -1.9311 -3.4403 -2.2554
   82CHL1   H7B 8487   1.043   3.586   7.184  0.8004 -0.0154 -1.0737
   82CHL1    C8 8488   0.961   3.403   7.269  0.7205  0.0972 -0.1509
   82CHL1    H8 8489   0.972   3.292   7.262 -2.0163 -0.1947 -0.7840
   82CHL1   C14 8490   1.011   3.426   7.411 -0.3111 -0.1113 -1.0270
   82CHL1   H14 8491   1.010   3.536   7.418  1.9263 -0.1676  1.2628
   82CHL1   C15 8492   1.159   3.397   7.437 -1.0570 -0.2257 -0.0262
   82CHL1  H15A 8493   1.162   3.286   7.422 -3.3499 -0.1531 -1.4950
   82CHL1  H15B 8494   1.237   3.447   7.376  1.1740 -1.9577  1.2172
   82CHL1   C16 8495   1.176   3.415   7.589  0.5996 -0.1703  0.0771
   82CHL1  H16A 8496   1.232   3.334   7.639 -0.5161 -2.6966 -2.4245
   82CHL1  H16B 8497   1.221   3.514   7.609  1.1321 -0.8574  2.5784
   82CHL1   C17 8498   1.031   3.435   7.643  0.3564  0.2645 -0.1151
   82CHL1   H17 8499   1.015   3.545   7.653 -2.5188 -0.3292  5.5054
   82CHL1   C13 8500   0.930   3.388   7.534  0.2402  0.9022  0.0211
   82CHL1   C18 8501   0.917   3.240   7.530  0.0062  0.0725 -0.3275
   82CHL1  H18A 8502   1.016   3.189   7.537 -1.0131 -1.8492  0.9985
   82CHL1  H18B 8503   0.860   3.204   7.619  2.5350 -2.3288  0.4553
   82CHL1  H18C 8504   0.863   3.195   7.443 -0.3091  0.6871 -0.4540
   82CHL1   C12 8505   0.795   3.455   7.520 -0.0787 -0.3808 -0.3286
   82CHL1  H12A 8506   0.733   3.434   7.609 -0.4899  0.6412 -0.3681
   82CHL1  H12B 8507   0.811   3.564   7.527 -2.6325 -0.0088  0.7575
   82CHL1   C11 8508   0.723   3.422   7.388  0.2072 -0.8516 -0.0623
   82CHL1  H11A 8509   0.682   3.321   7.411  4.2268 -2.4955  0.8342
   82CHL1  H11B 8510   0.635   3.488   7.378 -0.2451 -1.2552  1.0366
   82CHL1    C9 8511   0.810   3.440   7.261  0.6706  0.1809 -0.3080
   82CHL1    H9 8512   0.804   3.549   7.241 -0.9325 -0.1004 -1.6201
   82CHL1   C10 8513   0.744   3.384   7.132 -0.4959 -0.2865 -0.6373
   82CHL1   C19 8514   0.714   3.234   7.150 -0.5332 -0.5800 -0.0272
   82CHL1  H19A 8515   0.627   3.222   7.218  0.5353  2.8090  2.1732
   82CHL1  H19B 8516   0.685   3.188   7.053  0.6110  1.8671 -1.6170
   82CHL1  H19C 8517   0.795   3.171   7.193  0.4886  1.1484  0.6976
   82CHL1    C1 8518   0.615   3.460   7.102 -0.1734 -0.1283 -0.4206
   82CHL1   H1A 8519   0.527   3.414   7.153 -1.5558  0.0692 -2.5235
   82CHL1   H1B 8520   0.638   3.564   7.134 -0.5703  0.4557 -1.9669
   82CHL1    C2 8521   0.569   3.457   6.958 -0.4401  0.2493 -0.1854
   82CHL1   H2A 8522   0.484   3.528   6.947  1.0188  2.1666  0.2897
   82CHL1   H2B 8523   0.533   3.354   6.939 -0.7701  0.0837  1.1959
   82CHL1   C20 8524   1.019   3.379   7.788  0.2522  0.6432  0.6220
   82CHL1   H20 8525   1.050   3.273   7.787 -1.0853  0.2286  0.8715
   82CHL1   C21 8526   0.877   3.394   7.844 -0.6113  0.4136  0.1679
   82CHL1  H21A 8527   0.811   3.327   7.784 -0.4124  0.8775 -0.5798
   82CHL1  H21B 8528   0.845   3.500   7.847  1.1522  0.9937 -0.3531
   82CHL1  H21C 8529   0.861   3.355   7.947 -0.9677  0.2155  0.0431
   82CHL1   C22 8530   1.107   3.455   7.889  0.6105 -0.1624 -0.3088
   82CHL1  H22A 8531   1.206   3.472   7.843  0.5617 -2.3789 -1.3808
   82CHL1  H22B 8532   1.065   3.554   7.917 -2.4980 -1.5153  0.2588
   82CHL1   C23 8533   1.119   3.376   8.024  1.1011  0.0795  0.1855
   82CHL1  H23A 8534   1.016   3.371   8.065  1.4043 -0.1715  0.9276
   82CHL1  H23B 8535   1.141   3.271   7.996  2.6160  0.5782 -0.6319
   82CHL1   C24 8536   1.228   3.417   8.116  0.0465 -0.3883 -0.2511
   82CHL1  H24A 8537   1.323   3.407   8.059 -0.2175 -0.4544 -0.6788
   82CHL1  H24B 8538   1.215   3.519   8.158 -1.0294 -0.9836  0.9417
   82CHL1   C25 8539   1.244   3.320   8.243 -0.2099 -0.3856 -0.7683
   82CHL1   H25 8540   1.260   3.217   8.206 -0.8886 -1.1269  0.9142
   82CHL1   C26 8541   1.351   3.360   8.341 -0.1530 -0.3976  0.0287
   82CHL1  H26A 8542   1.371   3.282   8.418  0.1148  0.3057  0.6875
   82CHL1  H26B 8543   1.439   3.377   8.275  0.2618 -0.8807  0.4426
   82CHL1  H26C 8544   1.325   3.461   8.380  0.3848  0.9672 -2.9052
   82CHL1   C27 8545   1.106   3.324   8.313  0.5657  0.0098 -0.1651
   82CHL1  H27A 8546   1.078   3.430   8.329  0.1820  0.0473 -1.0443
   82CHL1  H27B 8547   1.032   3.259   8.262  0.8997 -0.6965  0.2320
   82CHL1  H27C 8548   1.128   3.280   8.413 -1.2376  2.0246  1.1905
   83CHL1    C3 8549   5.156   5.944   6.987  0.7955  1.3362 -0.4557
   83CHL1    H3 8550   5.183   6.052   6.987  0.3390  1.5229  1.9329
   83CHL1    O3 8551   5.178   5.886   6.861 -0.3543 -0.3247  0.4322
   83CHL1   H3' 8552   5.100   5.831   6.850 -0.9351  0.8093 -1.5633
   83CHL1    C4 8553   5.246   5.875   7.091  0.7246  0.8208  1.1885
   83CHL1   H4A 8554   5.247   5.765   7.073  0.3842  1.0677 -0.4720
   83CHL1   H4B 8555   5.344   5.916   7.060 -1.5131  4.4900 -2.0675
   83CHL1    C5 8556   5.214   5.915   7.234 -0.2181  0.3077 -0.7956
   83CHL1    C6 8557   5.296   5.983   7.318  0.0903  0.3579 -0.4705
   83CHL1    H6 8558   5.394   6.023   7.288  0.5200  1.9747  2.7482
   83CHL1    C7 8559   5.261   6.015   7.464 -1.3013  0.0191 -0.1334
   83CHL1   H7A 8560   5.350   5.995   7.527 -1.5061 -0.2727  0.0682
   83CHL1   H7B 8561   5.241   6.124   7.469 -0.3815  0.1493  1.1413
   83CHL1    C8 8562   5.141   5.929   7.516  0.9751 -0.3912  0.7950
   83CHL1    H8 8563   5.172   5.824   7.538 -0.3939 -0.8985  0.4279
   83CHL1   C14 8564   5.087   5.991   7.646 -0.4819  0.7523  0.4697
   83CHL1   H14 8565   5.037   6.083   7.609  0.0225  0.5927 -0.6457
   83CHL1   C15 8566   5.190   6.030   7.755  0.5271  0.1392  0.6319
   83CHL1  H15A 8567   5.283   5.968   7.758 -1.1661 -2.7505 -1.5513
   83CHL1  H15B 8568   5.219   6.134   7.728  0.7503  0.1494  0.9029
   83CHL1   C16 8569   5.115   6.015   7.885 -0.3874 -0.5284  0.3933
   83CHL1  H16A 8570   5.164   5.929   7.935  2.5239  0.5061 -0.4648
   83CHL1  H16B 8571   5.121   6.111   7.942  2.2364 -0.3400 -0.0530
   83CHL1   C17 8572   4.973   5.977   7.853 -0.2151 -0.2057 -0.1357
   83CHL1   H17 8573   4.915   6.066   7.821 -0.4912  0.4430  2.0395
   83CHL1   C13 8574   4.985   5.897   7.715  0.4489 -0.7632 -0.1508
   83CHL1   C18 8575   5.049   5.755   7.738 -0.1727  0.6141 -0.4342
   83CHL1  H18A 8576   5.044   5.696   7.645 -0.8008  0.5759 -0.3792
   83CHL1  H18B 8577   5.152   5.759   7.781 -0.9975  0.4657  1.6464
   83CHL1  H18C 8578   4.986   5.708   7.816  0.2315 -1.3156 -1.2275
   83CHL1   C12 8579   4.861   5.893   7.623  0.4054 -0.1188 -0.1302
   83CHL1  H12A 8580   4.780   5.836   7.674  0.3096  1.1744  1.2498
   83CHL1  H12B 8581   4.828   5.999   7.617  0.1173 -0.2657 -1.6153
   83CHL1   C11 8582   4.901   5.850   7.476 -0.3840 -0.2138 -0.3732
   83CHL1  H11A 8583   4.914   5.740   7.486  1.1418 -0.1060 -0.9789
   83CHL1  H11B 8584   4.818   5.866   7.404  2.0709  2.1089 -2.9418
   83CHL1    C9 8585   5.021   5.923   7.414 -0.1643  0.2653 -0.3248
   83CHL1    H9 8586   4.974   6.023   7.401 -0.3720  0.1403 -0.5374
   83CHL1   C10 8587   5.075   5.865   7.276  0.2286 -0.7227 -0.2683
   83CHL1   C19 8588   5.081   5.713   7.274 -0.8465 -0.6083  0.0988
   83CHL1  H19A 8589   5.106   5.667   7.176  1.0642 -0.7451  0.6203
   83CHL1  H19B 8590   5.140   5.670   7.358 -2.4654 -2.4591  0.3766
   83CHL1  H19C 8591   4.980   5.674   7.301 -1.5909 -0.2464 -1.9438
   83CHL1    C1 8592   4.977   5.924   7.166 -0.0445 -0.0536 -0.4898
   83CHL1   H1A 8593   4.870   5.905   7.192 -0.4853  3.0669  0.3610
   83CHL1   H1B 8594   4.996   6.033   7.170 -2.9057  0.6222 -2.3278
   83CHL1    C2 8595   5.010   5.897   7.014 -0.3107 -0.7892 -0.8388
   83CHL1   H2A 8596   4.928   5.938   6.952 -2.0079 -0.7049  1.3358
   83CHL1   H2B 8597   5.003   5.790   6.986 -0.7138 -0.3615 -2.4652
   83CHL1   C20 8598   4.901   5.921   7.974 -0.6644 -0.4403 -1.1221
   83CHL1   H20 8599   4.948   5.824   8.006 -0.6032 -0.1800 -0.3953
   83CHL1   C21 8600   4.753   5.889   7.938  0.0492  0.6277 -0.2924
   83CHL1  H21A 8601   4.695   5.884   8.032  0.9924 -0.6795  0.2434
   83CHL1  H21B 8602   4.745   5.789   7.891  1.0301  0.2949  0.2298
   83CHL1  H21C 8603   4.710   5.969   7.873 -2.1453 -0.9750 -0.9420
   83CHL1   C22 8604   4.912   6.014   8.091  0.4625 -0.3289  0.0399
   83CHL1  H22A 8605   5.014   6.052   8.114 -0.1950  1.6935 -0.1576
   83CHL1  H22B 8606   4.843   6.099   8.073 -1.6079 -1.0630  3.4460
   83CHL1   C23 8607   4.863   5.956   8.224 -0.6433 -0.6880  0.0383
   83CHL1  H23A 8608   4.754   5.936   8.213 -0.9999  1.8705 -2.4372
   83CHL1  H23B 8609   4.923   5.863   8.237  0.8671  0.3681  0.8896
   83CHL1   C24 8610   4.893   6.050   8.337  0.1726  0.0375 -0.3239
   83CHL1  H24A 8611   4.994   6.089   8.315  0.4093  0.0359  0.7091
   83CHL1  H24B 8612   4.834   6.144   8.344  1.2552  0.6444  0.9790
   83CHL1   C25 8613   4.890   5.981   8.474 -0.0324 -0.3575 -0.3604
   83CHL1   H25 8614   4.924   5.875   8.474 -2.1931 -1.1273  0.7835
   83CHL1   C26 8615   4.972   6.064   8.577  0.4797 -0.0220  0.3588
   83CHL1  H26A 8616   4.938   6.170   8.584  2.0086  0.4508  1.0733
   83CHL1  H26B 8617   4.976   6.015   8.676  1.6435  0.5274  0.6004
   83CHL1  H26C 8618   5.080   6.064   8.549  0.2197 -0.8944 -0.7109
   83CHL1   C27 8619   4.737   5.975   8.534 -0.2115  0.6130  0.1999
   83CHL1  H27A 8620   4.711   6.078   8.565 -0.5101  0.6639 -0.2234
   83CHL1  H27B 8621   4.668   5.941   8.454  1.0672 -0.2964 -0.5672
   83CHL1  H27C 8622   4.739   5.905   8.620 -1.3581 -1.8471 -1.6465
   84CHL1    C3 8623   0.128   0.310   6.849 -0.3939  0.1947 -0.3399
   84CHL1    H3 8624   0.116   0.419   6.831  1.3518  0.6181  0.8258
   84CHL1    O3 8625   0.167   0.239   6.732 -0.2120 -0.4898  0.1344
   84CHL1   H3' 8626   0.127   0.153   6.742 -1.9037  0.2393  0.0018
   84CHL1    C4 8627   0.242   0.286   6.953 -0.9747 -0.5841 -0.6120
   84CHL1   H4A 8628   0.262   0.177   6.959  1.9460 -0.0422  1.2100
   84CHL1   H4B 8629   0.336   0.335   6.922 -0.4539  0.2259  2.0244
   84CHL1    C5 8630   0.207   0.325   7.098  0.7337  0.6159 -0.2702
   84CHL1    C6 8631   0.279   0.412   7.170 -0.5646  0.4372  0.1647
   84CHL1    H6 8632   0.368   0.455   7.122 -1.8128  0.2556 -2.4683
   84CHL1    C7 8633   0.256   0.451   7.310 -0.1461  0.4824  1.0013
   84CHL1   H7A 8634   0.351   0.455   7.367  0.3851  0.8818  0.1002
   84CHL1   H7B 8635   0.217   0.555   7.304 -2.2584 -0.1999  1.7196
   84CHL1    C8 8636   0.148   0.359   7.377  0.2617 -0.3141 -0.5953
   84CHL1    H8 8637   0.197   0.263   7.403 -0.7519 -1.1147 -1.5262
   84CHL1   C14 8638   0.106   0.419   7.509 -0.1061  0.2641 -0.2463
   84CHL1   H14 8639   0.063   0.516   7.475 -1.3936 -0.1751  0.0443
   84CHL1   C15 8640   0.212   0.435   7.621  0.3799 -0.5966  0.2114
   84CHL1  H15A 8641   0.271   0.341   7.629  0.5578 -0.5385 -0.3631
   84CHL1  H15B 8642   0.289   0.513   7.605  0.9582 -1.5537 -2.1441
   84CHL1   C16 8643   0.129   0.465   7.745 -0.4708 -0.7714  0.4010
   84CHL1  H16A 8644   0.153   0.395   7.828 -4.6710 -2.6501  0.2683
   84CHL1  H16B 8645   0.144   0.566   7.788 -0.3462 -0.8071  0.4441
   84CHL1   C17 8646  -0.022   0.435   7.706 -0.3706 -0.0328 -0.3431
   84CHL1   H17 8647  -0.050   0.533   7.663  2.8584  0.9062 -0.5989
   84CHL1   C13 8648  -0.012   0.344   7.582 -0.5532  0.0359  1.2182
   84CHL1   C18 8649   0.015   0.197   7.628  0.8324 -0.6274 -0.0832
   84CHL1  H18A 8650  -0.071   0.140   7.669  1.2228 -2.6900 -1.9391
   84CHL1  H18B 8651   0.044   0.135   7.541 -1.2833  0.8016 -1.9037
   84CHL1  H18C 8652   0.094   0.203   7.706  1.7917 -0.8939 -1.0172
   84CHL1   C12 8653  -0.127   0.343   7.481 -0.4631  0.9868  0.2699
   84CHL1  H12A 8654  -0.213   0.284   7.519  0.3594 -0.2649  0.2546
   84CHL1  H12B 8655  -0.163   0.446   7.461 -0.4386  1.2624  1.5448
   84CHL1   C11 8656  -0.088   0.267   7.350  0.2830  0.0872  0.0467
   84CHL1  H11A 8657  -0.061   0.161   7.370 -1.1146 -0.3102 -0.1234
   84CHL1  H11B 8658  -0.173   0.267   7.278  1.4995  3.0839 -1.5830
   84CHL1    C9 8659   0.034   0.338   7.276  0.0212  0.5523 -0.2003
   84CHL1    H9 8660   0.008   0.443   7.251 -1.8513  0.7597  2.2934
   84CHL1   C10 8661   0.072   0.271   7.146 -0.7706 -0.0704  0.4637
   84CHL1   C19 8662   0.097   0.120   7.167 -0.0822  0.2113 -1.3893
   84CHL1  H19A 8663   0.113   0.072   7.068  2.0514  0.2797 -1.1188
   84CHL1  H19B 8664   0.186   0.099   7.229 -1.7942 -2.6492  0.3029
   84CHL1  H19C 8665   0.012   0.063   7.210  0.4664  0.4815  0.0950
   84CHL1    C1 8666  -0.038   0.294   7.033 -0.1400 -1.2260  0.1889
   84CHL1   H1A 8667  -0.136   0.250   7.062 -0.4557 -0.0008  1.0665
   84CHL1   H1B 8668  -0.043   0.403   7.010 -0.9157 -1.7543 -2.5994
   84CHL1    C2 8669  -0.003   0.245   6.889  0.1213  0.0407  0.4958
   84CHL1   H2A 8670  -0.086   0.281   6.826 -0.5052  0.0431  1.3109
   84CHL1   H2B 8671   0.006   0.135   6.898  2.7957 -0.0770 -1.9825
   84CHL1   C20 8672  -0.122   0.393   7.816 -0.3984  1.3104 -0.7892
   84CHL1   H20 8673  -0.199   0.331   7.764 -0.6138 -0.8240  1.8479
   84CHL1   C21 8674  -0.192   0.522   7.873 -0.1385  0.2730 -0.1376
   84CHL1  H21A 8675  -0.265   0.505   7.955 -0.9578  0.7517 -0.7474
   84CHL1  H21B 8676  -0.242   0.582   7.794 -0.6881  2.0960  1.5264
   84CHL1  H21C 8677  -0.110   0.584   7.916  0.0690  1.2194 -1.7741
   84CHL1   C22 8678  -0.066   0.306   7.929  0.3612 -0.3600 -0.4086
   84CHL1  H22A 8679   0.009   0.233   7.889  0.4147 -1.1039  1.0050
   84CHL1  H22B 8680  -0.015   0.369   8.004  0.0683 -0.4251 -0.1556
   84CHL1   C23 8681  -0.166   0.217   7.998  0.0520 -0.1049 -0.2429
   84CHL1  H23A 8682  -0.226   0.279   8.067  0.1815  1.7128 -1.6762
   84CHL1  H23B 8683  -0.232   0.173   7.921  1.0297  1.3646 -1.9991
   84CHL1   C24 8684  -0.101   0.116   8.087  0.3344  0.6066  0.1438
   84CHL1  H24A 8685  -0.073   0.026   8.027  1.2839  2.0348 -1.6289
   84CHL1  H24B 8686  -0.013   0.172   8.125  0.6479  1.1487 -1.3128
   84CHL1   C25 8687  -0.198   0.066   8.201  0.2111  0.2752 -0.4170
   84CHL1   H25 8688  -0.224   0.152   8.267  1.1860 -0.8128  1.4650
   84CHL1   C26 8689  -0.317  -0.006   8.141 -0.0835  0.1098 -0.1612
   84CHL1  H26A 8690  -0.286  -0.083   8.067 -0.1699  1.2052 -1.3780
   84CHL1  H26B 8691  -0.387  -0.061   8.207  0.5651 -1.3132 -0.6158
   84CHL1  H26C 8692  -0.380   0.061   8.079  0.6448  1.3847  0.4403
   84CHL1   C27 8693  -0.116  -0.032   8.290 -0.2699 -0.4002 -0.2045
   84CHL1  H27A 8694  -0.185  -0.075   8.367 -1.3715  1.2259 -0.2110
   84CHL1  H27B 8695  -0.076  -0.112   8.225 -0.7374 -0.3836 -0.5232
   84CHL1  H27C 8696  -0.037   0.031   8.334 -0.2994 -0.8691  0.5396
   85CHL1    C3 8697   4.787   0.024   6.580  0.5339 -0.1419 -0.0733
   85CHL1    H3 8698   4.720   0.113   6.588 -0.1971 -0.5226 -1.5594
   85CHL1    O3 8699   4.788  -0.016   6.444 -0.0012 -0.0451 -0.3165
   85CHL1   H3' 8700   4.698  -0.005   6.412 -0.3924 -0.8718  0.4451
   85CHL1    C4 8701   4.933   0.072   6.621  0.8738  0.0306  0.0716
   85CHL1   H4A 8702   5.010  -0.003   6.592  1.0074  0.4338 -0.6286
   85CHL1   H4B 8703   4.956   0.166   6.566  0.1795 -0.1847 -0.5835
   85CHL1    C5 8704   4.934   0.096   6.770  0.5137  0.3651  0.1728
   85CHL1    C6 8705   4.973   0.213   6.823 -0.2280 -0.0825 -0.0488
   85CHL1    H6 8706   5.003   0.296   6.756 -0.5656  1.7566  1.9661
   85CHL1    C7 8707   4.990   0.247   6.968 -0.2579 -0.2650  0.3172
   85CHL1   H7A 8708   5.086   0.302   6.981  0.0501 -1.1581  2.0173
   85CHL1   H7B 8709   4.905   0.311   7.000  0.7432  0.7087  1.1330
   85CHL1    C8 8710   4.973   0.129   7.064 -0.0026  1.0786 -0.0571
   85CHL1    H8 8711   5.068   0.071   7.057 -1.2673 -1.1346  0.1610
   85CHL1   C14 8712   4.941   0.159   7.213  0.1541  0.0831 -0.3544
   85CHL1   H14 8713   4.839   0.203   7.212 -0.3763 -1.0733  0.4595
   85CHL1   C15 8714   5.034   0.253   7.288  0.1633 -0.7013 -0.2827
   85CHL1  H15A 8715   5.145   0.241   7.287  0.3155 -0.6673  3.2898
   85CHL1  H15B 8716   5.003   0.356   7.261  0.2979 -0.6816 -0.3636
   85CHL1   C16 8717   4.981   0.238   7.434 -0.6009  0.3529  0.7736
   85CHL1  H16A 8718   5.065   0.243   7.506  0.4397 -1.1481 -0.2675
   85CHL1  H16B 8719   4.917   0.323   7.467  0.6475  2.4977 -1.8661
   85CHL1   C17 8720   4.909   0.102   7.445  0.5943  0.9164 -0.2765
   85CHL1   H17 8721   4.798   0.114   7.446  0.4301 -0.4349  1.1920
   85CHL1   C13 8722   4.939   0.036   7.307  0.5648  0.3423  0.0099
   85CHL1   C18 8723   5.075  -0.033   7.310 -0.6637  0.3935  0.3507
   85CHL1  H18A 8724   5.066  -0.125   7.371  1.1190  1.0345  1.6766
   85CHL1  H18B 8725   5.132  -0.048   7.216  0.7944  0.6483  1.1574
   85CHL1  H18C 8726   5.150   0.013   7.378 -0.7771 -0.1924  0.8772
   85CHL1   C12 8727   4.829  -0.054   7.252  0.4293 -0.5625 -0.2481
   85CHL1  H12A 8728   4.833  -0.147   7.313 -0.3283 -0.5554 -0.1824
   85CHL1  H12B 8729   4.733  -0.002   7.274  0.5543 -0.0199 -0.9443
   85CHL1   C11 8730   4.851  -0.099   7.108  0.1543 -0.7874 -0.4633
   85CHL1  H11A 8731   4.942  -0.162   7.104  2.1896  1.5929  3.0126
   85CHL1  H11B 8732   4.765  -0.160   7.074 -0.1498 -0.0401 -1.0886
   85CHL1    C9 8733   4.865   0.021   7.011 -0.0350  0.6038 -0.1003
   85CHL1    H9 8734   4.775   0.085   7.010 -0.3026  0.3059  1.7177
   85CHL1   C10 8735   4.883  -0.024   6.856  0.1649 -0.0102  0.1230
   85CHL1   C19 8736   4.978  -0.141   6.837 -0.5487  0.3068 -0.0060
   85CHL1  H19A 8737   5.006  -0.158   6.731 -1.1933 -1.5781  0.0922
   85CHL1  H19B 8738   5.072  -0.124   6.894  0.5408 -0.0171 -1.6156
   85CHL1  H19C 8739   4.929  -0.229   6.884  2.5496 -0.4696  2.0676
   85CHL1    C1 8740   4.739  -0.060   6.819  0.6226  0.1100  0.4197
   85CHL1   H1A 8741   4.706  -0.155   6.866 -0.6651  1.3881  2.2200
   85CHL1   H1B 8742   4.656   0.014   6.826  1.2971  0.8966  0.2651
   85CHL1    C2 8743   4.731  -0.090   6.662 -0.3952 -0.3818 -0.0142
   85CHL1   H2A 8744   4.624  -0.104   6.636 -0.1286 -0.9539 -0.8289
   85CHL1   H2B 8745   4.790  -0.178   6.630 -0.3814  0.0578 -1.2687
   85CHL1   C20 8746   4.931   0.015   7.572  0.6496  0.1507 -0.4962
   85CHL1   H20 8747   5.035  -0.025   7.566  0.6188  0.1538 -1.2011
   85CHL1   C21 8748   4.838  -0.116   7.582 -0.2684 -0.0173  0.9837
   85CHL1  H21A 8749   4.878  -0.166   7.673  2.6940 -0.0646 -0.2289
   85CHL1  H21B 8750   4.866  -0.193   7.507  0.3252 -0.7856  1.9736
   85CHL1  H21C 8751   4.728  -0.099   7.583 -0.4792 -1.0974 -0.4509
   85CHL1   C22 8752   4.922   0.097   7.704 -0.3864  0.4677 -0.0072
   85CHL1  H22A 8753   5.010   0.163   7.719 -0.2425  0.3532 -0.3352
   85CHL1  H22B 8754   4.832   0.162   7.694 -0.1614  0.5751 -1.5134
   85CHL1   C23 8755   4.904   0.023   7.840 -0.3141 -0.0520  0.2519
   85CHL1  H23A 8756   4.805  -0.027   7.833 -1.5975  2.3258  0.3356
   85CHL1  H23B 8757   4.992  -0.043   7.854 -0.1093  0.3853  1.1168
   85CHL1   C24 8758   4.902   0.117   7.965  0.5276 -0.2098  0.6074
   85CHL1  H24A 8759   5.000   0.171   7.967  1.9831 -2.7078  1.6482
   85CHL1  H24B 8760   4.829   0.199   7.954  0.3643 -0.5397 -1.2117
   85CHL1   C25 8761   4.885   0.052   8.102  0.7065  0.6438 -0.2931
   85CHL1   H25 8762   4.958  -0.030   8.113 -0.1426 -0.4973 -2.4859
   85CHL1   C26 8763   4.911   0.154   8.207  0.0425 -0.4887 -0.2420
   85CHL1  H26A 8764   4.843   0.241   8.213  2.3755  1.3979  0.6304
   85CHL1  H26B 8765   4.920   0.106   8.307 -1.5782  1.9371  1.1601
   85CHL1  H26C 8766   5.010   0.200   8.185  0.2322 -1.4076 -1.4288
   85CHL1   C27 8767   4.748  -0.010   8.134  0.1583  0.3441  0.2746
   85CHL1  H27A 8768   4.671   0.071   8.129 -0.8997 -0.5987  0.9771
   85CHL1  H27B 8769   4.720  -0.085   8.057  0.5122 -1.3344  1.7386
   85CHL1  H27C 8770   4.753  -0.055   8.235  2.9403  1.3157  0.6405
   86CHL1    C3 8771   3.172   2.441   6.838 -0.7696  0.5496  0.5692
   86CHL1    H3 8772   3.096   2.515   6.870 -1.0142  0.7959 -0.5670
   86CHL1    O3 8773   3.146   2.428   6.694 -0.4515  0.1209 -0.3929
   86CHL1   H3' 8774   3.054   2.402   6.686 -0.5578  0.3215  0.1413
   86CHL1    C4 8775   3.310   2.492   6.860 -0.1469 -0.0342 -0.4554
   86CHL1   H4A 8776   3.393   2.433   6.816  2.2950  2.4502  0.5167
   86CHL1   H4B 8777   3.312   2.591   6.810 -1.9411 -0.3829 -1.3221
   86CHL1    C5 8778   3.331   2.504   7.012 -0.0105 -0.9323  0.1604
   86CHL1    C6 8779   3.360   2.625   7.059 -0.1614 -0.4559 -0.1556
   86CHL1    H6 8780   3.368   2.713   6.993  2.5565 -1.5950 -1.4590
   86CHL1    C7 8781   3.363   2.650   7.205 -0.2045 -0.0739 -0.2882
   86CHL1   H7A 8782   3.430   2.734   7.232 -3.4761  2.2040  1.4497
   86CHL1   H7B 8783   3.260   2.683   7.234 -1.4923 -4.5606  1.0771
   86CHL1    C8 8784   3.403   2.526   7.289  0.6340 -0.0848  0.5113
   86CHL1    H8 8785   3.507   2.495   7.263 -0.1462 -0.5473 -2.4671
   86CHL1   C14 8786   3.386   2.545   7.437 -0.0679  0.4571 -0.2424
   86CHL1   H14 8787   3.280   2.576   7.442 -0.0423  0.3797  0.9556
   86CHL1   C15 8788   3.460   2.661   7.510  0.6109  0.1646 -0.0663
   86CHL1  H15A 8789   3.564   2.647   7.474 -0.2280  1.3383 -3.2705
   86CHL1  H15B 8790   3.429   2.762   7.475 -2.2856 -0.0651  1.4627
   86CHL1   C16 8791   3.452   2.633   7.659  0.0734  0.3258  0.6358
   86CHL1  H16A 8792   3.555   2.617   7.696  0.6763  0.8915 -0.7276
   86CHL1  H16B 8793   3.395   2.707   7.720 -2.0339 -0.1422 -0.6402
   86CHL1   C17 8794   3.382   2.488   7.665  0.3725 -0.3208  0.0091
   86CHL1   H17 8795   3.273   2.504   7.677 -0.1412 -3.3134  0.0470
   86CHL1   C13 8796   3.403   2.426   7.531 -0.2071 -0.6116 -0.2835
   86CHL1   C18 8797   3.547   2.368   7.533  0.3086  0.1811  0.0591
   86CHL1  H18A 8798   3.618   2.434   7.587  0.0977  1.4106 -1.1100
   86CHL1  H18B 8799   3.563   2.287   7.607 -0.3771  0.3714  0.4254
   86CHL1  H18C 8800   3.585   2.353   7.430 -1.0319 -1.6682 -0.2181
   86CHL1   C12 8801   3.312   2.319   7.495  0.5080  0.0271  0.6670
   86CHL1  H12A 8802   3.333   2.225   7.550  1.1686  1.0804  2.2958
   86CHL1  H12B 8803   3.205   2.337   7.517  0.3674 -1.8665  1.7708
   86CHL1   C11 8804   3.309   2.284   7.340  0.2674  0.9075 -0.5075
   86CHL1  H11A 8805   3.404   2.231   7.316 -1.0338 -0.7543 -2.2223
   86CHL1  H11B 8806   3.228   2.211   7.323  0.2524  0.3673  1.6135
   86CHL1    C9 8807   3.309   2.414   7.249  0.0494 -0.3538  0.0962
   86CHL1    H9 8808   3.206   2.455   7.258 -0.5334 -1.3357 -1.6812
   86CHL1   C10 8809   3.309   2.384   7.098 -0.1491 -0.1654  0.5522
   86CHL1   C19 8810   3.434   2.296   7.059 -0.3141  0.3721 -0.8693
   86CHL1  H19A 8811   3.449   2.297   6.949  1.8535 -0.7018 -0.6412
   86CHL1  H19B 8812   3.531   2.322   7.108 -0.4726  0.0994 -0.4025
   86CHL1  H19C 8813   3.416   2.192   7.094 -1.8922  0.1634 -2.1766
   86CHL1    C1 8814   3.175   2.315   7.055  0.6865 -0.2495 -0.0602
   86CHL1   H1A 8815   3.187   2.218   7.107  0.8126  0.1137  0.6086
   86CHL1   H1B 8816   3.084   2.369   7.090 -0.1328 -0.6681 -1.4724
   86CHL1    C2 8817   3.158   2.299   6.907  0.1816  0.4617  0.3618
   86CHL1   H2A 8818   3.056   2.266   6.876  0.8800  0.3135 -1.9908
   86CHL1   H2B 8819   3.231   2.228   6.864  2.9961  3.4443 -0.1766
   86CHL1   C20 8820   3.426   2.425   7.797 -0.9131 -0.2748  0.2790
   86CHL1   H20 8821   3.536   2.405   7.794 -1.1550 -1.8734  1.1146
   86CHL1   C21 8822   3.347   2.293   7.820 -0.5493 -1.1527  0.2750
   86CHL1  H21A 8823   3.350   2.264   7.927  0.5165 -1.3869  0.1903
   86CHL1  H21B 8824   3.393   2.212   7.761  1.2596  1.6095 -2.4324
   86CHL1  H21C 8825   3.241   2.303   7.785 -0.2325 -1.3707 -0.8034
   86CHL1   C22 8826   3.401   2.518   7.922 -0.0864  0.5645 -0.2185
   86CHL1  H22A 8827   3.321   2.593   7.899 -0.2468  0.8154  1.0982
   86CHL1  H22B 8828   3.350   2.456   7.999  2.8340  1.8745  2.9717
   86CHL1   C23 8829   3.532   2.567   7.986 -0.3243  0.2735  0.0248
   86CHL1  H23A 8830   3.614   2.493   7.976 -0.0606  0.8712 -2.9081
   86CHL1  H23B 8831   3.565   2.645   7.915 -0.0972  0.2013  0.0510
   86CHL1   C24 8832   3.530   2.619   8.123  0.0855 -0.9718  0.2666
   86CHL1  H24A 8833   3.617   2.680   8.153  0.7511 -0.0706 -3.0501
   86CHL1  H24B 8834   3.445   2.689   8.124  1.0212  0.2398 -1.2020
   86CHL1   C25 8835   3.516   2.507   8.232  0.4070 -0.1185 -0.5260
   86CHL1   H25 8836   3.430   2.449   8.192 -0.8083  0.6540  0.8828
   86CHL1   C26 8837   3.638   2.424   8.243  0.5508  0.3751 -0.3886
   86CHL1  H26A 8838   3.657   2.386   8.140 -0.7809  1.3329 -1.0084
   86CHL1  H26B 8839   3.727   2.487   8.264 -0.3303  2.3328 -2.2355
   86CHL1  H26C 8840   3.653   2.338   8.312  1.5337  0.2093 -0.7860
   86CHL1   C27 8841   3.481   2.569   8.366 -0.4659 -0.0797 -0.1423
   86CHL1  H27A 8842   3.570   2.622   8.407 -0.5343  0.6245 -0.8907
   86CHL1  H27B 8843   3.392   2.635   8.356 -0.5310 -0.0088  0.7976
   86CHL1  H27C 8844   3.461   2.479   8.428 -0.7246 -1.0966 -1.6451
   87CHL1    C3 8845   1.570   0.765   6.868 -0.4000 -0.2605 -0.0087
   87CHL1    H3 8846   1.594   0.669   6.919 -0.9526  0.1824  1.1230
   87CHL1    O3 8847   1.530   0.736   6.739  0.6759  0.2260 -0.3070
   87CHL1   H3' 8848   1.522   0.827   6.709  2.3228  1.7458  3.2522
   87CHL1    C4 8849   1.469   0.847   6.944 -0.3797 -0.0302  0.2976
   87CHL1   H4A 8850   1.451   0.931   6.873 -0.5760 -2.0253 -2.1764
   87CHL1   H4B 8851   1.373   0.792   6.944 -0.8300  0.7406  0.3926
   87CHL1    C5 8852   1.515   0.909   7.077  0.5912  0.0854  1.0116
   87CHL1    C6 8853   1.440   0.888   7.187 -0.1634  0.2754  0.2509
   87CHL1    H6 8854   1.339   0.848   7.169 -0.0426  0.5993 -1.2729
   87CHL1    C7 8855   1.468   0.951   7.322  0.2740 -0.6008  0.0330
   87CHL1   H7A 8856   1.375   1.001   7.357  0.7974  2.0632 -2.0635
   87CHL1   H7B 8857   1.483   0.867   7.393  1.1447  0.9697  1.7755
   87CHL1    C8 8858   1.575   1.065   7.311  0.3519 -0.2619 -0.8765
   87CHL1    H8 8859   1.522   1.145   7.256 -2.6176 -0.3467  1.5818
   87CHL1   C14 8860   1.623   1.112   7.446 -0.0936  0.0854  0.2457
   87CHL1   H14 8861   1.656   1.017   7.492  0.5282  0.5169  0.7112
   87CHL1   C15 8862   1.516   1.171   7.548  0.2786  1.0939 -0.3122
   87CHL1  H15A 8863   1.436   1.228   7.496 -1.8032  0.0887  1.6112
   87CHL1  H15B 8864   1.475   1.080   7.597  1.2963 -1.8153 -4.3664
   87CHL1   C16 8865   1.604   1.260   7.639  0.6924 -0.1412  0.7767
   87CHL1  H16A 8866   1.571   1.366   7.636 -0.2989 -0.4459 -0.2256
   87CHL1  H16B 8867   1.595   1.233   7.746 -0.9073 -0.9167  0.4799
   87CHL1   C17 8868   1.752   1.253   7.591  0.2495 -0.0271 -0.0158
   87CHL1   H17 8869   1.787   1.153   7.627  0.0664 -0.0524  0.0921
   87CHL1   C13 8870   1.734   1.207   7.440 -0.3987  0.1180 -0.1257
   87CHL1   C18 8871   1.699   1.331   7.354  0.5079 -0.0110  0.1575
   87CHL1  H18A 8872   1.614   1.378   7.409 -1.1385 -2.2966 -0.2732
   87CHL1  H18B 8873   1.783   1.403   7.359  1.3770 -1.0351  0.6970
   87CHL1  H18C 8874   1.675   1.311   7.247 -1.8994  0.1261  0.6242
   87CHL1   C12 8875   1.855   1.132   7.379  0.0801  0.1292  0.1359
   87CHL1  H12A 8876   1.946   1.194   7.371 -0.4994  0.8489 -1.2451
   87CHL1  H12B 8877   1.886   1.043   7.437 -0.6195  0.3505  0.8647
   87CHL1   C11 8878   1.816   1.093   7.239  0.1546  0.6189  0.3177
   87CHL1  H11A 8879   1.814   1.185   7.177 -1.6771 -0.0076 -0.6158
   87CHL1  H11B 8880   1.900   1.037   7.193  1.2379  2.2279  0.2765
   87CHL1    C9 8881   1.692   1.010   7.224 -0.4030 -0.3710 -0.0328
   87CHL1    H9 8882   1.731   0.914   7.263 -2.2866 -0.0590  2.9509
   87CHL1   C10 8883   1.649   0.981   7.079 -1.1165 -0.0576 -1.1153
   87CHL1   C19 8884   1.640   1.116   7.006  1.2793 -0.1999  0.0119
   87CHL1  H19A 8885   1.596   1.112   6.903 -0.3424  0.4742  0.6409
   87CHL1  H19B 8886   1.559   1.174   7.055 -0.0974 -0.3086 -2.0043
   87CHL1  H19C 8887   1.736   1.171   7.004 -0.4018  3.0346 -2.1765
   87CHL1    C1 8888   1.756   0.900   7.000 -0.7207  0.5666  0.4028
   87CHL1   H1A 8889   1.838   0.975   6.994 -1.4934  1.3471 -1.3691
   87CHL1   H1B 8890   1.797   0.809   7.048 -1.6935  1.2455  2.6521
   87CHL1    C2 8891   1.704   0.851   6.864 -0.6520 -0.1176 -0.5965
   87CHL1   H2A 8892   1.783   0.782   6.825 -0.3645  0.8021 -1.6829
   87CHL1   H2B 8893   1.686   0.933   6.791  1.5980 -1.3044 -2.6258
   87CHL1   C20 8894   1.831   1.381   7.636  0.0310  0.0343  1.0459
   87CHL1   H20 8895   1.784   1.469   7.588  1.2436  1.8840  3.0698
   87CHL1   C21 8896   1.976   1.376   7.589 -0.1354 -0.4084 -0.0895
   87CHL1  H21A 8897   1.989   1.391   7.480  3.0204  0.2653  0.2797
   87CHL1  H21B 8898   2.036   1.286   7.616  0.3180  0.0255  0.3837
   87CHL1  H21C 8899   2.030   1.457   7.642 -1.7333 -0.2664  1.3971
   87CHL1   C22 8900   1.839   1.402   7.795  1.0954  1.2667 -0.4544
   87CHL1  H22A 8901   1.912   1.480   7.829  1.4722  0.3197  1.0212
   87CHL1  H22B 8902   1.735   1.432   7.819  1.5248  2.0161  0.5733
   87CHL1   C23 8903   1.865   1.267   7.874  0.2813 -0.8032  0.4455
   87CHL1  H23A 8904   1.785   1.190   7.863 -0.9309  0.4577  0.2658
   87CHL1  H23B 8905   1.961   1.217   7.848  0.0933 -0.7288 -0.3952
   87CHL1   C24 8906   1.872   1.306   8.019 -0.1878 -1.0502 -0.6273
   87CHL1  H24A 8907   1.950   1.380   8.046  0.9655 -2.0582 -1.1137
   87CHL1  H24B 8908   1.775   1.357   8.034  0.9717  1.1988 -0.3254
   87CHL1   C25 8909   1.890   1.193   8.119  0.4204  0.7468  0.1546
   87CHL1   H25 8910   1.810   1.119   8.096  1.3268  0.1312 -1.1377
   87CHL1   C26 8911   2.026   1.117   8.116 -0.1289  0.3250 -0.2385
   87CHL1  H26A 8912   2.117   1.174   8.145  1.2878 -2.2697  0.6393
   87CHL1  H26B 8913   2.026   1.039   8.195 -1.1597  1.5506  1.0215
   87CHL1  H26C 8914   2.042   1.072   8.016  0.7323 -0.3985  0.2164
   87CHL1   C27 8915   1.869   1.253   8.259  0.3116 -0.3154  0.2599
   87CHL1  H27A 8916   1.910   1.356   8.264 -0.5618  0.2096 -2.0952
   87CHL1  H27B 8917   1.759   1.267   8.261  0.1869 -0.1481 -2.6097
   87CHL1  H27C 8918   1.905   1.190   8.342  1.4459 -0.5138 -0.3602
   88CHL1    C3 8919   1.174   4.242   6.949  0.5960  0.7337 -0.5088
   88CHL1    H3 8920   1.158   4.132   6.946 -0.0885  0.8168 -0.0978
   88CHL1    O3 8921   1.191   4.280   6.818  0.2921  0.0237 -0.5919
   88CHL1   H3' 8922   1.100   4.308   6.803 -0.4758 -2.1650 -0.3465
   88CHL1    C4 8923   1.052   4.308   7.018 -0.2765  0.1183  0.1606
   88CHL1   H4A 8924   1.060   4.417   6.997  0.2600 -0.0296 -0.4191
   88CHL1   H4B 8925   0.952   4.296   6.971 -1.7339  1.2739  2.6804
   88CHL1    C5 8926   1.036   4.295   7.172 -0.0709 -0.4274 -0.3204
   88CHL1    C6 8927   0.930   4.245   7.233 -0.4971  0.2202 -0.4725
   88CHL1    H6 8928   0.846   4.218   7.167  0.1394  2.1417 -2.1859
   88CHL1    C7 8929   0.910   4.225   7.380  0.2680  0.2782 -0.2333
   88CHL1   H7A 8930   0.809   4.256   7.414  0.1858  0.3696 -0.5557
   88CHL1   H7B 8931   0.929   4.119   7.408 -0.1032  0.5791  1.2423
   88CHL1    C8 8932   1.016   4.308   7.453 -0.3768 -0.0439 -0.2538
   88CHL1    H8 8933   0.994   4.417   7.454  2.3657  0.6283 -2.2569
   88CHL1   C14 8934   1.010   4.262   7.598  0.1629  0.0123 -0.3985
   88CHL1   H14 8935   1.035   4.154   7.589 -0.6713 -0.4227  2.0153
   88CHL1   C15 8936   0.874   4.265   7.678  0.1506 -0.1991 -0.6464
   88CHL1  H15A 8937   0.808   4.354   7.691  3.3070  2.0227  1.6439
   88CHL1  H15B 8938   0.811   4.183   7.636 -3.1336  1.2348  1.0378
   88CHL1   C16 8939   0.927   4.230   7.820  0.1458  0.6493  0.5113
   88CHL1  H16A 8940   0.900   4.316   7.886 -0.7307 -0.6458  1.8939
   88CHL1  H16B 8941   0.893   4.134   7.864 -0.8163  2.2544  3.5433
   88CHL1   C17 8942   1.081   4.230   7.820 -0.0226 -0.7350 -0.4296
   88CHL1   H17 8943   1.122   4.130   7.795  1.7207  0.6605 -3.7858
   88CHL1   C13 8944   1.115   4.308   7.690 -0.2731 -0.1129  0.3471
   88CHL1   C18 8945   1.098   4.467   7.727  0.4066 -0.3637  0.2135
   88CHL1  H18A 8946   1.190   4.505   7.776  0.5593  1.5136 -1.4218
   88CHL1  H18B 8947   1.079   4.529   7.637  0.7016  1.3569  1.3023
   88CHL1  H18C 8948   1.004   4.490   7.782 -0.3527 -1.5712 -0.5237
   88CHL1   C12 8949   1.253   4.279   7.633  0.4652 -0.6093 -0.1695
   88CHL1  H12A 8950   1.330   4.337   7.688 -0.6546  0.5061  0.2761
   88CHL1  H12B 8951   1.273   4.170   7.641  0.4437 -0.7045 -1.1731
   88CHL1   C11 8952   1.268   4.334   7.493 -0.7154  0.3012  0.3031
   88CHL1  H11A 8953   1.281   4.445   7.494  3.1454  0.0805 -2.0771
   88CHL1  H11B 8954   1.367   4.301   7.454  0.8806  3.2598  1.4863
   88CHL1    C9 8955   1.156   4.285   7.399  0.3623 -0.2689  0.4378
   88CHL1    H9 8956   1.166   4.174   7.406  0.4681 -0.4707 -2.1026
   88CHL1   C10 8957   1.166   4.325   7.249  0.5802 -0.3204 -0.4962
   88CHL1   C19 8958   1.199   4.476   7.237 -0.2880  0.3068  0.0141
   88CHL1  H19A 8959   1.123   4.539   7.288  1.5116  1.4199  1.4421
   88CHL1  H19B 8960   1.298   4.505   7.278  1.6228 -0.4272 -3.6352
   88CHL1  H19C 8961   1.204   4.496   7.128  0.2901  1.3537  0.2189
   88CHL1    C1 8962   1.282   4.241   7.172 -0.1547  0.5580 -0.6243
   88CHL1   H1A 8963   1.375   4.258   7.230  0.2554  3.0855 -1.8821
   88CHL1   H1B 8964   1.244   4.136   7.170 -0.6636  0.7438 -0.9664
   88CHL1    C2 8965   1.303   4.272   7.025 -0.3540  0.3264 -0.9641
   88CHL1   H2A 8966   1.388   4.218   6.978  1.5748  2.3481  0.0416
   88CHL1   H2B 8967   1.316   4.382   7.017 -1.1086  0.3423 -2.3489
   88CHL1   C20 8968   1.141   4.271   7.957  0.5510  0.2456 -0.1798
   88CHL1   H20 8969   1.132   4.380   7.976  0.1715  1.1774 -4.4707
   88CHL1   C21 8970   1.296   4.249   7.963 -0.1750 -0.5614  0.3771
   88CHL1  H21A 8971   1.324   4.142   7.951  3.7806  0.4096 -0.1530
   88CHL1  H21B 8972   1.336   4.279   8.062 -0.4037  2.1645 -0.2915
   88CHL1  H21C 8973   1.348   4.309   7.886  1.0155 -0.5877  1.1399
   88CHL1   C22 8974   1.082   4.186   8.085 -0.5334 -0.6153 -0.3496
   88CHL1  H22A 8975   1.118   4.228   8.181 -1.4053 -1.5910  0.4185
   88CHL1  H22B 8976   0.973   4.206   8.086  0.0009  3.2535 -0.9153
   88CHL1   C23 8977   1.103   4.034   8.080  0.1437 -0.1632  0.9163
   88CHL1  H23A 8978   1.061   3.997   7.984  0.2588  0.3676  0.6582
   88CHL1  H23B 8979   1.213   4.025   8.087  0.5996  2.2655 -1.6743
   88CHL1   C24 8980   1.018   3.958   8.190  0.4557 -0.4139  0.5923
   88CHL1  H24A 8981   1.039   4.002   8.289  2.7931  1.2966 -0.5558
   88CHL1  H24B 8982   0.912   3.982   8.169  0.1497 -0.9755  1.4284
   88CHL1   C25 8983   1.030   3.807   8.201  0.8236 -0.1673 -0.1437
   88CHL1   H25 8984   1.136   3.783   8.222  0.3842  0.6462  3.7965
   88CHL1   C26 8985   0.961   3.763   8.330 -0.1091 -0.1825  0.9584
   88CHL1  H26A 8986   0.949   3.653   8.333 -2.8299 -0.0428 -1.0750
   88CHL1  H26B 8987   1.009   3.800   8.423  0.5896  0.2672  0.4228
   88CHL1  H26C 8988   0.858   3.806   8.331  0.6347  1.8184 -0.7514
   88CHL1   C27 8989   0.968   3.727   8.085  0.4066  0.1897  0.6334
   88CHL1  H27A 8990   0.859   3.748   8.075  0.5613  0.4982 -0.7235
   88CHL1  H27B 8991   1.015   3.762   7.990 -1.0979 -0.0719 -0.2538
   88CHL1  H27C 8992   0.979   3.618   8.099 -1.1864 -0.1121 -0.1685
   89CHL1    C3 8993   4.124   0.217   6.969 -0.6913  0.3005 -0.0694
   89CHL1    H3 8994   4.209   0.163   7.015 -1.6565 -2.3159 -1.1083
   89CHL1    O3 8995   4.131   0.205   6.828  0.2421  0.0842  0.2420
   89CHL1   H3' 8996   4.086   0.283   6.794  2.5913  1.5281  0.2098
   89CHL1    C4 8997   3.988   0.161   7.026  0.0280  0.1634  0.9470
   89CHL1   H4A 8998   3.903   0.182   6.958  0.2269  0.3433  0.7560
   89CHL1   H4B 8999   4.002   0.051   7.015  1.0462  0.0673  2.7432
   89CHL1    C5 9000   3.965   0.187   7.179  0.7300 -0.0562  0.0392
   89CHL1    C6 9001   3.924   0.085   7.255  0.1669 -0.8424 -0.2752
   89CHL1    H6 9002   3.901  -0.009   7.204 -1.8028 -0.6807  0.2211
   89CHL1    C7 9003   3.904   0.093   7.406 -0.4172 -0.4797  0.1782
   89CHL1   H7A 9004   3.812   0.036   7.431 -1.0904 -0.5749 -2.2737
   89CHL1   H7B 9005   3.990   0.037   7.450 -0.6652 -0.6384  0.4627
   89CHL1    C8 9006   3.910   0.241   7.454 -0.2950 -0.6706  0.1380
   89CHL1    H8 9007   3.804   0.270   7.436  0.1372 -0.9164 -3.4132
   89CHL1   C14 9008   3.939   0.244   7.602  0.8541  0.0824  1.1056
   89CHL1   H14 9009   4.047   0.222   7.617  0.3951 -1.4417  2.3986
   89CHL1   C15 9010   3.863   0.155   7.699 -0.1612 -0.1693  0.0661
   89CHL1  H15A 9011   3.759   0.149   7.663 -0.2868  1.5026  0.0839
   89CHL1  H15B 9012   3.912   0.055   7.699  0.6056  0.1518 -2.3459
   89CHL1   C16 9013   3.865   0.214   7.837  0.0104 -0.2985 -0.1863
   89CHL1  H16A 9014   3.761   0.244   7.862  0.3792  1.1786 -0.2802
   89CHL1  H16B 9015   3.909   0.150   7.916  2.1090  1.4969  0.1932
   89CHL1   C17 9016   3.935   0.353   7.820  0.4882  0.8341  0.3516
   89CHL1   H17 9017   4.041   0.333   7.845  0.2373 -1.4008 -0.1826
   89CHL1   C13 9018   3.928   0.387   7.664  0.1486 -0.2910  0.4716
   89CHL1   C18 9019   3.794   0.450   7.633  0.4495  0.7322  1.0642
   89CHL1  H18A 9020   3.785   0.462   7.523  1.5097  0.0586  0.8836
   89CHL1  H18B 9021   3.711   0.383   7.663 -1.7994  1.7619 -2.3399
   89CHL1  H18C 9022   3.792   0.556   7.669  3.3116  1.2134  0.0683
   89CHL1   C12 9023   4.048   0.468   7.610 -0.3314 -0.0134 -0.2136
   89CHL1  H12A 9024   4.037   0.570   7.654  0.0836 -0.3169  0.6022
   89CHL1  H12B 9025   4.142   0.418   7.640  0.5651 -0.5431 -3.4805
   89CHL1   C11 9026   4.040   0.462   7.451  0.3740 -0.2780  0.2123
   89CHL1  H11A 9027   3.965   0.536   7.416 -0.5122 -1.4902 -0.5212
   89CHL1  H11B 9028   4.142   0.501   7.428 -0.7503  2.4633 -0.4512
   89CHL1    C9 9029   4.023   0.319   7.384  0.1192  0.3385  0.1385
   89CHL1    H9 9030   4.116   0.262   7.402 -0.2519  0.0145  1.1108
   89CHL1   C10 9031   4.001   0.325   7.231 -0.6559  0.4693  0.3860
   89CHL1   C19 9032   3.887   0.418   7.182  0.2151  0.2863  0.4212
   89CHL1  H19A 9033   3.855   0.405   7.076 -3.6485 -0.2876  1.4900
   89CHL1  H19B 9034   3.794   0.397   7.238  0.0812  1.2218  0.5646
   89CHL1  H19C 9035   3.897   0.522   7.220 -0.5284  0.1453  1.0102
   89CHL1    C1 9036   4.128   0.370   7.163  0.1920  0.6779 -0.4961
   89CHL1   H1A 9037   4.133   0.480   7.179 -0.5662  0.8939 -1.6026
   89CHL1   H1B 9038   4.208   0.317   7.219 -0.1666  0.5894 -0.0576
   89CHL1    C2 9039   4.139   0.359   7.014 -0.5006 -0.1504  0.3097
   89CHL1   H2A 9040   4.238   0.390   6.976  0.1595  0.9485  2.7343
   89CHL1   H2B 9041   4.058   0.411   6.958 -0.6390 -1.2342 -0.5386
   89CHL1   C20 9042   3.886   0.459   7.922  0.6623 -0.9898  0.1879
   89CHL1   H20 9043   3.806   0.515   7.870 -0.2852 -2.7083 -0.2948
   89CHL1   C21 9044   4.007   0.554   7.944 -0.0579 -0.2271 -0.1910
   89CHL1  H21A 9045   3.985   0.638   8.014  2.4329  2.6345 -2.5525
   89CHL1  H21B 9046   4.047   0.601   7.851  1.0603  1.4474  1.0592
   89CHL1  H21C 9047   4.087   0.498   7.996  1.3569  0.6123 -1.3705
   89CHL1   C22 9048   3.829   0.407   8.055 -0.5137  0.7042  0.2912
   89CHL1  H22A 9049   3.743   0.338   8.044 -0.7811  0.4577  3.1572
   89CHL1  H22B 9050   3.906   0.363   8.122 -1.0209  0.0471  0.4592
   89CHL1   C23 9051   3.770   0.527   8.132 -0.5091  0.3411  0.0230
   89CHL1  H23A 9052   3.843   0.590   8.187  0.5293 -0.6529 -0.1744
   89CHL1  H23B 9053   3.712   0.600   8.071 -1.8575  1.4670  2.4984
   89CHL1   C24 9054   3.661   0.472   8.228 -0.1747 -0.4303 -1.0725
   89CHL1  H24A 9055   3.612   0.559   8.275  0.5279  0.0810 -1.2683
   89CHL1  H24B 9056   3.589   0.415   8.166 -1.2198 -0.3262  0.0166
   89CHL1   C25 9057   3.710   0.388   8.355  0.0709 -0.7301  0.7539
   89CHL1   H25 9058   3.781   0.312   8.317  0.0113 -0.2037 -0.4708
   89CHL1   C26 9059   3.790   0.473   8.451 -0.0560 -0.0833 -0.2577
   89CHL1  H26A 9060   3.724   0.554   8.490  0.0067 -0.6116  0.9803
   89CHL1  H26B 9061   3.840   0.423   8.536 -0.6207  2.4460  1.6807
   89CHL1  H26C 9062   3.868   0.526   8.392  0.3273 -2.4710 -2.0610
   89CHL1   C27 9063   3.588   0.317   8.417 -0.0557  0.0873 -0.0791
   89CHL1  H27A 9064   3.512   0.390   8.450  0.6459  0.3720  0.9697
   89CHL1  H27B 9065   3.537   0.253   8.342  1.4800 -1.4578  0.1283
   89CHL1  H27C 9066   3.612   0.256   8.507 -1.3641  0.4729  0.5504
   90CHL1    C3 9067   1.442   3.781   6.929 -0.0172  0.6196  0.8662
   90CHL1    H3 9068   1.399   3.680   6.912  1.0717 -0.0489  1.9617
   90CHL1    O3 9069   1.474   3.848   6.811  0.0060 -0.1257 -0.3502
   90CHL1   H3' 9070   1.453   3.941   6.821  0.2289  0.0952 -1.7345
   90CHL1    C4 9071   1.346   3.875   7.002  0.2008  0.2451 -0.4399
   90CHL1   H4A 9072   1.377   3.981   6.989 -0.3357  0.6676  1.4858
   90CHL1   H4B 9073   1.244   3.865   6.959  0.9412  0.0193 -2.2550
   90CHL1    C5 9074   1.346   3.854   7.156  0.1382 -0.1904  0.3849
   90CHL1    C6 9075   1.233   3.840   7.225  1.0269 -1.0232 -0.2639
   90CHL1    H6 9076   1.135   3.848   7.176  1.7792  1.5414 -1.5036
   90CHL1    C7 9077   1.224   3.822   7.374 -0.4943 -0.0491 -1.5221
   90CHL1   H7A 9078   1.149   3.890   7.420  1.6294  0.3565  1.5746
   90CHL1   H7B 9079   1.205   3.717   7.405 -0.2477  0.4780  0.5789
   90CHL1    C8 9080   1.356   3.863   7.442 -0.2228  0.0040  0.2240
   90CHL1    H8 9081   1.356   3.974   7.446  0.1675  0.0706 -1.1149
   90CHL1   C14 9082   1.363   3.811   7.589 -0.1484 -0.0312 -0.0125
   90CHL1   H14 9083   1.362   3.700   7.587  1.8636 -0.0954 -1.9947
   90CHL1   C15 9084   1.244   3.855   7.678  0.3650 -0.0753  0.0515
   90CHL1  H15A 9085   1.216   3.961   7.661 -1.6251 -0.0561  2.7624
   90CHL1  H15B 9086   1.153   3.793   7.667  0.2480 -0.3982  2.2679
   90CHL1   C16 9087   1.287   3.832   7.823 -0.7729  0.5070 -0.0832
   90CHL1  H16A 9088   1.276   3.926   7.881  0.0485  0.4255  0.2268
   90CHL1  H16B 9089   1.241   3.742   7.869 -0.1560  0.1396 -0.1723
   90CHL1   C17 9090   1.443   3.792   7.807  0.3908  0.9144 -0.4581
   90CHL1   H17 9091   1.447   3.681   7.801 -1.9451  0.8680 -2.7249
   90CHL1   C13 9092   1.488   3.840   7.667  0.1508  0.0819  0.0343
   90CHL1   C18 9093   1.504   3.996   7.679  0.4048  0.2082 -0.4610
   90CHL1  H18A 9094   1.424   4.040   7.742  1.1138  1.5427 -0.4584
   90CHL1  H18B 9095   1.595   4.031   7.732 -0.6874  1.4591  0.6529
   90CHL1  H18C 9096   1.503   4.049   7.582  1.2755 -1.5075 -1.4557
   90CHL1   C12 9097   1.613   3.782   7.593  0.8108 -0.0556 -0.7629
   90CHL1  H12A 9098   1.705   3.818   7.644  0.8292 -0.2145 -0.6843
   90CHL1  H12B 9099   1.603   3.672   7.606  2.0007  0.0850  2.1341
   90CHL1   C11 9100   1.607   3.819   7.449 -0.8508  0.5499  0.2689
   90CHL1  H11A 9101   1.632   3.927   7.447  3.2421 -0.2074  0.5183
   90CHL1  H11B 9102   1.691   3.764   7.402 -0.1729  0.9483  0.9898
   90CHL1    C9 9103   1.477   3.798   7.367 -0.0638 -0.6034  0.1219
   90CHL1    H9 9104   1.456   3.689   7.366  1.0175 -0.8257 -0.9829
   90CHL1   C10 9105   1.483   3.845   7.217  0.3780 -0.2096  0.0470
   90CHL1   C19 9106   1.550   3.988   7.220  0.4343  0.1734  0.2565
   90CHL1  H19A 9107   1.657   3.972   7.242  0.9390  0.9363 -1.5238
   90CHL1  H19B 9108   1.545   4.036   7.120  1.2573 -0.5180 -0.1206
   90CHL1  H19C 9109   1.503   4.063   7.288 -0.2504  1.3767 -1.4854
   90CHL1    C1 9110   1.567   3.738   7.138 -0.3571  0.1468 -0.8171
   90CHL1   H1A 9111   1.669   3.735   7.184  0.2786 -1.9842 -2.2359
   90CHL1   H1B 9112   1.513   3.643   7.158  0.8478 -0.1367  1.5904
   90CHL1    C2 9113   1.581   3.772   6.990 -1.2390 -0.3295  0.2791
   90CHL1   H2A 9114   1.652   3.692   6.956  0.3330  0.5674  1.3268
   90CHL1   H2B 9115   1.632   3.870   6.981  0.6243 -1.3089 -0.4345
   90CHL1   C20 9116   1.527   3.824   7.933 -0.4372 -0.4142  0.2263
   90CHL1   H20 9117   1.549   3.932   7.946 -3.3723  0.3350 -0.1659
   90CHL1   C21 9118   1.667   3.751   7.928 -0.5402  0.2201  0.2232
   90CHL1  H21A 9119   1.648   3.642   7.938 -0.3217  0.0556 -1.0089
   90CHL1  H21B 9120   1.733   3.788   8.010 -0.7396  1.0003  0.0368
   90CHL1  H21C 9121   1.724   3.778   7.837  0.1486  0.3295  0.6730
   90CHL1   C22 9122   1.448   3.793   8.059  0.8878  0.3988  0.5653
   90CHL1  H22A 9123   1.361   3.863   8.061  1.5104  1.2709 -0.9533
   90CHL1  H22B 9124   1.409   3.689   8.051 -2.3285  1.5591 -0.7172
   90CHL1   C23 9125   1.535   3.821   8.183 -0.2129 -0.3087 -0.4899
   90CHL1  H23A 9126   1.610   3.739   8.180  0.0105 -0.0869 -1.5394
   90CHL1  H23B 9127   1.580   3.923   8.181  1.7872 -0.9904  2.4658
   90CHL1   C24 9128   1.455   3.807   8.311 -0.2887  0.0554  0.6074
   90CHL1  H24A 9129   1.360   3.865   8.315 -0.7635 -0.4661 -1.5849
   90CHL1  H24B 9130   1.442   3.700   8.336  1.6545 -0.9686 -2.2986
   90CHL1   C25 9131   1.524   3.838   8.452  0.9348 -0.2247 -0.5371
   90CHL1   H25 9132   1.554   3.945   8.445 -0.1351  0.0861 -0.4997
   90CHL1   C26 9133   1.423   3.820   8.563  0.7323  0.4509  0.0931
   90CHL1  H26A 9134   1.338   3.892   8.564  0.7954  0.6200  3.4021
   90CHL1  H26B 9135   1.375   3.719   8.569  3.2583 -0.8328  0.0427
   90CHL1  H26C 9136   1.471   3.819   8.663 -1.8864 -1.5315  1.4705
   90CHL1   C27 9137   1.649   3.755   8.493 -0.0604  0.0879  0.0510
   90CHL1  H27A 9138   1.692   3.775   8.593  0.1332 -3.4814  0.8053
   90CHL1  H27B 9139   1.643   3.647   8.470  0.3756 -0.5086  2.4586
   90CHL1  H27C 9140   1.726   3.802   8.427 -1.0236  0.6227 -0.7175
   91CHL1    C3 9141   2.080   6.655   7.164 -0.0129  0.2984  0.8209
   91CHL1    H3 9142   2.109   6.761   7.185 -0.6560  0.9460 -1.3066
   91CHL1    O3 9143   2.103   6.626   7.025 -0.1865  0.0077  0.2702
   91CHL1   H3' 9144   2.060   6.540   7.022 -1.6960  0.6172  2.0716
   91CHL1    C4 9145   2.153   6.555   7.247 -1.0139  0.5036 -0.6132
   91CHL1   H4A 9146   2.119   6.453   7.221  0.9969 -0.1097 -1.0887
   91CHL1   H4B 9147   2.260   6.562   7.214 -0.3175 -0.7899  1.2254
   91CHL1    C5 9148   2.139   6.580   7.400  0.0694 -0.3874 -0.2665
   91CHL1    C6 9149   2.239   6.610   7.477 -0.1620 -0.0057 -0.0717
   91CHL1    H6 9150   2.337   6.618   7.428 -0.5891 -0.4459 -1.0339
   91CHL1    C7 9151   2.229   6.643   7.619  0.4426 -0.2530 -0.7300
   91CHL1   H7A 9152   2.310   6.594   7.677 -0.4932  0.8446  1.6483
   91CHL1   H7B 9153   2.242   6.754   7.621  2.2207 -0.3683 -2.5686
   91CHL1    C8 9154   2.097   6.602   7.681  0.0085 -0.0941 -0.6314
   91CHL1    H8 9155   2.095   6.493   7.702 -0.3310  0.3530  2.0934
   91CHL1   C14 9156   2.071   6.666   7.824  0.1838 -0.4818 -0.3430
   91CHL1   H14 9157   2.077   6.777   7.814 -2.8942 -0.1919 -0.0098
   91CHL1   C15 9158   2.175   6.630   7.931 -0.0232  0.4990  0.3260
   91CHL1  H15A 9159   2.210   6.525   7.931 -0.2828  0.2884  3.8624
   91CHL1  H15B 9160   2.264   6.696   7.939  1.0202 -1.0202  1.8207
   91CHL1   C16 9161   2.100   6.652   8.059 -0.1530 -0.6668  0.4201
   91CHL1  H16A 9162   2.099   6.565   8.129  0.2630  1.1383  2.7930
   91CHL1  H16B 9163   2.146   6.731   8.123  1.5561  0.2676 -1.8319
   91CHL1   C17 9164   1.953   6.687   8.023 -0.3339  0.1888  0.5421
   91CHL1   H17 9165   1.955   6.796   8.000  1.3566  0.0469 -0.1455
   91CHL1   C13 9166   1.936   6.619   7.883  0.5856  0.4855  0.4045
   91CHL1   C18 9167   1.937   6.465   7.899 -0.0797 -0.5010 -0.3465
   91CHL1  H18A 9168   1.838   6.442   7.943  0.7270 -2.3016  0.6688
   91CHL1  H18B 9169   1.947   6.414   7.801 -0.7532 -0.0657 -0.6467
   91CHL1  H18C 9170   2.003   6.430   7.981 -0.5200 -0.2980  0.1003
   91CHL1   C12 9171   1.825   6.668   7.797  0.1046  0.1251  0.2387
   91CHL1  H12A 9172   1.730   6.625   7.836 -0.6351  1.9403  0.5720
   91CHL1  H12B 9173   1.818   6.779   7.794  0.5106  0.1555  0.3422
   91CHL1   C11 9174   1.843   6.619   7.658  1.5092 -0.4119  0.3535
   91CHL1  H11A 9175   1.813   6.512   7.664 -0.1664 -0.0020 -0.1668
   91CHL1  H11B 9176   1.757   6.662   7.603  1.6446 -0.1311  0.3571
   91CHL1    C9 9177   1.985   6.640   7.593 -0.0922  0.2445  0.3649
   91CHL1    H9 9178   2.001   6.749   7.582  2.7910  0.2092  2.8011
   91CHL1   C10 9179   1.993   6.586   7.450  0.5961 -0.1769  0.2508
   91CHL1   C19 9180   1.950   6.435   7.442 -0.6189  0.0643  0.3771
   91CHL1  H19A 9181   1.999   6.372   7.518 -1.0105 -3.0251 -1.7587
   91CHL1  H19B 9182   1.842   6.420   7.465 -0.4120  0.8598  1.9990
   91CHL1  H19C 9183   1.958   6.387   7.342  1.3240 -1.6612  1.3131
   91CHL1    C1 9184   1.902   6.673   7.357 -0.3732  0.0258  0.1265
   91CHL1   H1A 9185   1.795   6.660   7.386 -0.7169  2.0269 -0.0904
   91CHL1   H1B 9186   1.928   6.779   7.377 -0.0249 -0.1779  0.7433
   91CHL1    C2 9187   1.928   6.660   7.200 -0.1805 -0.6365  0.1016
   91CHL1   H2A 9188   1.860   6.736   7.155 -1.2487 -1.7930 -0.2867
   91CHL1   H2B 9189   1.886   6.566   7.159 -1.6718  0.5371 -1.1604
   91CHL1   C20 9190   1.851   6.656   8.131 -0.0433  0.3101 -0.3783
   91CHL1   H20 9191   1.846   6.547   8.152 -2.6077  0.4314 -0.0641
   91CHL1   C21 9192   1.709   6.716   8.095  0.1332  0.9212  0.4718
   91CHL1  H21A 9193   1.653   6.630   8.052  2.1697 -1.2733  1.8876
   91CHL1  H21B 9194   1.715   6.798   8.020  1.2451  0.0749 -0.4076
   91CHL1  H21C 9195   1.656   6.745   8.188 -0.0666  0.0170  0.6551
   91CHL1   C22 9196   1.886   6.709   8.277 -0.4469 -0.1676 -0.0100
   91CHL1  H22A 9197   1.813   6.687   8.357 -1.2124 -0.3137 -0.7328
   91CHL1  H22B 9198   1.969   6.642   8.306  0.2234  0.4753 -0.3947
   91CHL1   C23 9199   1.939   6.848   8.294 -0.3686  0.0406 -0.1914
   91CHL1  H23A 9200   2.016   6.868   8.216 -1.4081  1.5572 -0.8789
   91CHL1  H23B 9201   1.855   6.910   8.258 -0.3559 -0.0357 -0.3576
   91CHL1   C24 9202   2.005   6.873   8.433  0.9452  0.9048 -0.2273
   91CHL1  H24A 9203   1.994   6.979   8.463  0.0423  1.0028 -0.8773
   91CHL1  H24B 9204   1.947   6.814   8.508 -0.7201  2.5875 -0.1318
   91CHL1   C25 9205   2.153   6.824   8.446 -0.1330  0.4172 -0.2416
   91CHL1   H25 9206   2.168   6.726   8.396 -2.7000  0.0080 -0.3407
   91CHL1   C26 9207   2.251   6.926   8.379  0.0581 -0.2752 -0.0175
   91CHL1  H26A 9208   2.354   6.887   8.369  0.6512  1.6664 -2.8664
   91CHL1  H26B 9209   2.215   6.958   8.279  0.4761  0.1385 -0.0351
   91CHL1  H26C 9210   2.259   7.010   8.451 -1.2852  0.0232 -0.1963
   91CHL1   C27 9211   2.181   6.799   8.597  0.1996 -0.5697 -0.1135
   91CHL1  H27A 9212   2.183   6.894   8.655  0.9615 -0.2435 -0.6604
   91CHL1  H27B 9213   2.111   6.727   8.644 -0.8595  0.0137 -0.7478
   91CHL1  H27C 9214   2.283   6.758   8.613  0.4634 -0.0255 -0.3503
   92CHL1    C3 9215   6.755   0.706   6.851 -0.5568 -0.2065  0.1158
   92CHL1    H3 9216   6.725   0.604   6.881  1.5185 -0.9517 -0.1406
   92CHL1    O3 9217   6.720   0.726   6.714 -0.7226 -0.1244  0.2191
   92CHL1   H3' 9218   6.750   0.815   6.692 -1.2869  0.0533  0.1637
   92CHL1    C4 9219   6.693   0.820   6.926 -0.1221  0.6064  0.4441
   92CHL1   H4A 9220   6.728   0.917   6.883  1.6336  0.4874  1.4874
   92CHL1   H4B 9221   6.583   0.825   6.915  0.0173  3.7345 -0.7547
   92CHL1    C5 9222   6.721   0.817   7.068  0.1191 -0.3137 -0.0465
   92CHL1    C6 9223   6.624   0.812   7.153 -0.3240  0.6762 -0.6825
   92CHL1    H6 9224   6.519   0.820   7.123 -0.7492 -2.5408 -0.3133
   92CHL1    C7 9225   6.653   0.808   7.303  0.2560  0.1168  0.5656
   92CHL1   H7A 9226   6.588   0.890   7.341 -2.1473 -0.4463 -1.9837
   92CHL1   H7B 9227   6.633   0.708   7.347  1.3461 -0.1031  0.5890
   92CHL1    C8 9228   6.796   0.856   7.336 -0.2040  0.7193 -0.6538
   92CHL1    H8 9229   6.792   0.967   7.331  0.4271  0.8139  0.5589
   92CHL1   C14 9230   6.829   0.819   7.482  0.2446 -0.0286  1.0861
   92CHL1   H14 9231   6.834   0.708   7.491  0.2910 -0.0125  1.2698
   92CHL1   C15 9232   6.727   0.856   7.592  0.5888  0.3365  0.3732
   92CHL1  H15A 9233   6.691   0.960   7.575  3.8898  1.6306  0.5345
   92CHL1  H15B 9234   6.643   0.784   7.589  0.4393  0.5196  0.1660
   92CHL1   C16 9235   6.816   0.854   7.717 -0.6983  0.1025 -0.0486
   92CHL1  H16A 9236   6.792   0.951   7.767 -0.8566  0.1206 -0.1581
   92CHL1  H16B 9237   6.799   0.767   7.783  0.1175  0.3059  0.4411
   92CHL1   C17 9238   6.967   0.853   7.675 -0.6317 -0.1861 -0.2667
   92CHL1   H17 9239   6.990   0.745   7.690 -1.2567 -0.3325 -0.3486
   92CHL1   C13 9240   6.960   0.886   7.534 -0.4719  0.3634 -0.1566
   92CHL1   C18 9241   6.964   1.041   7.515 -0.1735 -0.2060 -0.4723
   92CHL1  H18A 9242   6.974   1.070   7.408  4.0772 -1.6886 -0.6595
   92CHL1  H18B 9243   6.868   1.078   7.557 -0.2950 -1.5117  0.4374
   92CHL1  H18C 9244   7.057   1.083   7.560  0.6013 -0.6944 -1.5640
   92CHL1   C12 9245   7.063   0.812   7.445 -0.1255  0.2743 -0.3489
   92CHL1  H12A 9246   7.167   0.849   7.460 -0.1734  0.9002 -1.4364
   92CHL1  H12B 9247   7.059   0.704   7.469 -1.6763  0.5997  1.0324
   92CHL1   C11 9248   7.048   0.825   7.289  0.3877 -0.2067  0.3831
   92CHL1  H11A 9249   7.072   0.932   7.273  0.8782 -0.7495 -3.2632
   92CHL1  H11B 9250   7.133   0.776   7.237  0.1096 -1.5930  1.1874
   92CHL1    C9 9251   6.902   0.791   7.240 -0.0431  0.7634  0.0749
   92CHL1    H9 9252   6.888   0.681   7.248  0.4157  0.8110  2.0379
   92CHL1   C10 9253   6.871   0.827   7.093  0.4392 -0.3494 -1.1886
   92CHL1   C19 9254   6.917   0.970   7.062 -0.0522  0.6763  0.3352
   92CHL1  H19A 9255   6.857   1.044   7.119 -1.2025  0.6460 -0.8073
   92CHL1  H19B 9256   7.027   0.982   7.074 -0.1507  2.2634 -0.0941
   92CHL1  H19C 9257   6.908   0.993   6.954 -0.3465  1.9365  0.6185
   92CHL1    C1 9258   6.954   0.720   7.011 -0.1372 -0.1430  0.4544
   92CHL1   H1A 9259   7.064   0.734   7.015 -0.0275 -1.0679  3.0027
   92CHL1   H1B 9260   6.932   0.618   7.051 -1.1275 -0.5677 -1.0950
   92CHL1    C2 9261   6.911   0.711   6.864 -0.1158  0.3287  0.6658
   92CHL1   H2A 9262   6.963   0.620   6.826  0.3303 -0.2651  2.5833
   92CHL1   H2B 9263   6.950   0.804   6.818 -1.5749 -0.3054 -2.0275
   92CHL1   C20 9264   7.058   0.921   7.780 -0.6861 -0.1280  0.1899
   92CHL1   H20 9265   7.028   1.027   7.794 -2.4034 -0.7141  1.3759
   92CHL1   C21 9266   7.210   0.916   7.741  0.5209 -0.2211  0.8754
   92CHL1  H21A 9267   7.278   0.945   7.824  1.5168 -0.1741  0.0752
   92CHL1  H21B 9268   7.219   0.978   7.649 -4.2046 -1.7648 -0.8986
   92CHL1  H21C 9269   7.241   0.820   7.694  1.2742  0.6108 -0.3898
   92CHL1   C22 9270   7.039   0.843   7.918  0.3650 -0.2558  0.2499
   92CHL1  H22A 9271   6.931   0.825   7.938 -0.0652 -1.5089 -2.7198
   92CHL1  H22B 9272   7.081   0.741   7.906  2.0759  0.5928 -1.4295
   92CHL1   C23 9273   7.093   0.909   8.043  0.2803 -0.3355 -0.1907
   92CHL1  H23A 9274   7.066   0.862   8.140  0.1645  0.3833  0.1359
   92CHL1  H23B 9275   7.203   0.920   8.035  0.1038  1.7240 -0.3927
   92CHL1   C24 9276   7.028   1.047   8.062  0.3588 -0.3361  0.1592
   92CHL1  H24A 9277   7.060   1.113   7.979  2.9906 -1.5079  0.1315
   92CHL1  H24B 9278   6.917   1.046   8.057  0.3483  1.5530 -0.6228
   92CHL1   C25 9279   7.066   1.121   8.197 -0.9547  0.0747 -0.7062
   92CHL1   H25 9280   7.175   1.112   8.218 -0.9100  2.3339  0.4340
   92CHL1   C26 9281   7.038   1.274   8.192 -0.8901  0.0390  0.0481
   92CHL1  H26A 9282   7.116   1.326   8.133 -0.2190 -0.5608  0.3964
   92CHL1  H26B 9283   6.945   1.304   8.138 -0.5351  0.1757 -0.4911
   92CHL1  H26C 9284   7.033   1.306   8.298 -0.7657 -3.1378  1.1086
   92CHL1   C27 9285   7.001   1.071   8.328 -0.2042 -0.1655 -0.5416
   92CHL1  H27A 9286   7.025   0.963   8.341 -0.3619 -0.1176  0.1543
   92CHL1  H27B 9287   7.036   1.131   8.414 -0.6609 -0.9789  0.2256
   92CHL1  H27C 9288   6.891   1.082   8.335 -0.3272 -1.0958 -0.7894
   93CHL1    C3 9289   5.471   1.571   6.659 -0.0163  0.6030 -0.2356
   93CHL1    H3 9290   5.366   1.609   6.658 -0.4176 -0.4017  1.0465
   93CHL1    O3 9291   5.496   1.512   6.528 -0.1952 -0.0375  0.3588
   93CHL1   H3' 9292   5.556   1.438   6.542  1.7728  1.7022  1.7555
   93CHL1    C4 9293   5.564   1.689   6.685  0.4142 -0.5666 -1.3497
   93CHL1   H4A 9294   5.671   1.662   6.670  0.0278 -2.1168 -1.5678
   93CHL1   H4B 9295   5.538   1.764   6.607 -0.9880  0.4139  0.0060
   93CHL1    C5 9296   5.547   1.750   6.825 -0.4441 -0.9818 -0.1469
   93CHL1    C6 9297   5.510   1.875   6.841 -0.4835  0.2704  0.5364
   93CHL1    H6 9298   5.505   1.945   6.756 -1.7166 -1.9501 -1.3287
   93CHL1    C7 9299   5.489   1.937   6.977  1.6282 -0.6047  1.1840
   93CHL1   H7A 9300   5.538   2.036   6.976  0.1579  0.2708 -2.8765
   93CHL1   H7B 9301   5.379   1.950   6.987  1.2720 -2.3235 -0.0171
   93CHL1    C8 9302   5.534   1.854   7.098 -0.0906 -0.2951  0.1060
   93CHL1    H8 9303   5.644   1.870   7.107 -0.3560  2.0118 -0.1700
   93CHL1   C14 9304   5.478   1.905   7.226  0.4445 -0.4076 -0.3932
   93CHL1   H14 9305   5.370   1.892   7.203  0.1169 -1.3974  1.5843
   93CHL1   C15 9306   5.494   2.058   7.255 -0.6493  0.4496 -0.6129
   93CHL1  H15A 9307   5.592   2.101   7.223  0.7414 -1.6415  0.6183
   93CHL1  H15B 9308   5.417   2.128   7.215  2.7376  4.0738 -1.5410
   93CHL1   C16 9309   5.479   2.056   7.408  0.2606 -0.6493 -0.5840
   93CHL1  H16A 9310   5.576   2.099   7.442 -0.4024  0.1185  0.4068
   93CHL1  H16B 9311   5.399   2.123   7.447  0.4959 -1.0503  0.6589
   93CHL1   C17 9312   5.452   1.917   7.456 -0.4861 -0.0919 -0.1203
   93CHL1   H17 9313   5.344   1.891   7.444  0.0386 -2.7095  0.3188
   93CHL1   C13 9314   5.512   1.828   7.353  0.5470  0.0044 -0.0243
   93CHL1   C18 9315   5.667   1.830   7.361  0.5146 -0.2371 -0.5464
   93CHL1  H18A 9316   5.715   1.930   7.354  2.3831 -1.1088 -0.8676
   93CHL1  H18B 9317   5.708   1.787   7.456  1.5606 -0.3488 -1.0327
   93CHL1  H18C 9318   5.714   1.765   7.284  0.0101 -1.0887 -0.1520
   93CHL1   C12 9319   5.459   1.678   7.335 -0.8357  0.1490 -0.6611
   93CHL1  H12A 9320   5.504   1.627   7.423 -0.7311  0.2085 -0.6814
   93CHL1  H12B 9321   5.347   1.678   7.333 -0.8693 -1.6856 -0.5354
   93CHL1   C11 9322   5.508   1.618   7.205 -0.2571 -0.6157  0.0545
   93CHL1  H11A 9323   5.618   1.601   7.204  0.5648  3.5990 -1.3279
   93CHL1  H11B 9324   5.468   1.516   7.189  0.5532 -0.7024 -1.5961
   93CHL1    C9 9325   5.495   1.705   7.073 -0.0750 -0.5737  0.0826
   93CHL1    H9 9326   5.386   1.718   7.060 -0.1182  2.5763  2.4647
   93CHL1   C10 9327   5.554   1.652   6.942  0.1157  0.0172 -0.0640
   93CHL1   C19 9328   5.712   1.633   6.961  0.0907 -0.0977  0.1851
   93CHL1  H19A 9329   5.750   1.571   6.877 -2.5361 -4.0303  1.5916
   93CHL1  H19B 9330   5.764   1.731   6.972  2.3255 -1.4485  2.7939
   93CHL1  H19C 9331   5.735   1.574   7.053  2.3756 -1.4459 -1.1751
   93CHL1    C1 9332   5.480   1.515   6.906 -0.8092 -0.0625 -0.2241
   93CHL1   H1A 9333   5.512   1.439   6.980  1.2007  0.2430 -0.7389
   93CHL1   H1B 9334   5.372   1.537   6.921 -0.6552 -0.3453  1.5039
   93CHL1    C2 9335   5.494   1.461   6.760 -0.0442 -0.0224  0.7186
   93CHL1   H2A 9336   5.430   1.374   6.733  1.7260 -1.4409  0.8727
   93CHL1   H2B 9337   5.600   1.428   6.756 -0.2969 -0.8689  0.7569
   93CHL1   C20 9338   5.482   1.887   7.605  0.3405 -0.0986  0.8912
   93CHL1   H20 9339   5.499   1.778   7.612  1.2711 -0.0397 -0.1183
   93CHL1   C21 9340   5.350   1.922   7.674 -0.4516  0.2927  0.1258
   93CHL1  H21A 9341   5.261   1.880   7.623  0.5751 -0.6445 -0.9830
   93CHL1  H21B 9342   5.339   2.032   7.669  0.2544  0.3340 -3.2900
   93CHL1  H21C 9343   5.359   1.882   7.777  0.9262 -0.5072 -0.2693
   93CHL1   C22 9344   5.602   1.956   7.668  0.0735 -0.3173  0.0226
   93CHL1  H22A 9345   5.690   1.948   7.601 -0.0029 -3.2667  0.1401
   93CHL1  H22B 9346   5.566   2.060   7.678  0.3152 -0.1748 -0.5780
   93CHL1   C23 9347   5.651   1.897   7.802  0.0977 -0.5837 -0.0353
   93CHL1  H23A 9348   5.569   1.853   7.864  0.6638 -3.5756 -1.2224
   93CHL1  H23B 9349   5.715   1.810   7.775 -0.4346 -0.0930 -3.1923
   93CHL1   C24 9350   5.744   1.999   7.872 -0.3680  0.0275  0.2278
   93CHL1  H24A 9351   5.838   2.009   7.814 -0.8916  0.2386 -0.5935
   93CHL1  H24B 9352   5.692   2.096   7.889 -0.3017 -0.1680  1.7423
   93CHL1   C25 9353   5.769   1.956   8.022  0.0116 -0.0956 -0.7178
   93CHL1   H25 9354   5.678   1.915   8.071  0.8564  0.7781  1.7363
   93CHL1   C26 9355   5.868   1.835   8.031  0.4859 -0.2905 -0.6910
   93CHL1  H26A 9356   5.843   1.753   7.962  2.6369 -0.8755 -0.8427
   93CHL1  H26B 9357   5.967   1.876   8.003 -0.0095  0.8292 -0.8689
   93CHL1  H26C 9358   5.868   1.791   8.133  0.7266 -1.4196 -1.1637
   93CHL1   C27 9359   5.814   2.070   8.113 -0.0272 -0.1382  0.4791
   93CHL1  H27A 9360   5.871   2.043   8.205  0.0353  1.5335  0.9522
   93CHL1  H27B 9361   5.895   2.116   8.052 -0.1472 -2.2897 -1.4588
   93CHL1  H27C 9362   5.737   2.146   8.138 -0.0975  0.2983 -0.9532
   94CHL1    C3 9363   4.768   2.601   7.031  0.5402 -0.0503 -0.9074
   94CHL1    H3 9364   4.723   2.697   7.063 -1.3268 -1.4699  1.0590
   94CHL1    O3 9365   4.728   2.579   6.896 -0.3340  0.1940  0.0771
   94CHL1   H3' 9366   4.782   2.506   6.865 -0.7032 -0.0104 -0.0884
   94CHL1    C4 9367   4.920   2.605   7.039  0.2068 -0.3030 -0.6167
   94CHL1   H4A 9368   4.967   2.519   6.987 -0.8239 -1.1420 -0.2188
   94CHL1   H4B 9369   4.949   2.698   6.987  0.2910 -0.1462 -0.2891
   94CHL1    C5 9370   4.973   2.615   7.189  0.4106  1.1800 -0.1155
   94CHL1    C6 9371   5.043   2.721   7.234  0.1295 -0.7894  0.3560
   94CHL1    H6 9372   5.064   2.800   7.161 -0.8334  0.5323  1.4580
   94CHL1    C7 9373   5.093   2.743   7.370 -0.2701  0.6315 -0.4655
   94CHL1   H7A 9374   5.198   2.781   7.365  0.0118  0.2417  1.4594
   94CHL1   H7B 9375   5.037   2.816   7.432 -1.4636 -1.1720  0.6822
   94CHL1    C8 9376   5.078   2.613   7.457 -0.1084 -0.3710  0.2900
   94CHL1    H8 9377   5.155   2.540   7.424  1.3251  1.9186 -1.7359
   94CHL1   C14 9378   5.095   2.635   7.604 -0.2253  0.0449 -0.0685
   94CHL1   H14 9379   5.014   2.703   7.636  0.4077  0.5239  0.5466
   94CHL1   C15 9380   5.230   2.710   7.646  0.0467  0.0021  0.1068
   94CHL1  H15A 9381   5.315   2.669   7.588 -0.2848  0.0759 -0.4460
   94CHL1  H15B 9382   5.220   2.818   7.622 -1.5129 -0.0937  0.2254
   94CHL1   C16 9383   5.236   2.687   7.798 -0.4266  0.1327 -0.4682
   94CHL1  H16A 9384   5.343   2.675   7.823  0.3087  3.2202 -1.6326
   94CHL1  H16B 9385   5.208   2.779   7.853  0.1846 -0.3704  0.7107
   94CHL1   C17 9386   5.140   2.573   7.838  0.1867 -0.2934  0.1612
   94CHL1   H17 9387   5.046   2.620   7.872  0.9765  1.5291 -0.0369
   94CHL1   C13 9388   5.096   2.512   7.697 -0.1113  0.2501 -1.2106
   94CHL1   C18 9389   5.208   2.408   7.659 -0.0555  0.0938  0.0656
   94CHL1  H18A 9390   5.309   2.451   7.644  0.9971 -1.9898  0.8785
   94CHL1  H18B 9391   5.205   2.327   7.734 -0.1654  0.9239  0.9821
   94CHL1  H18C 9392   5.180   2.369   7.559 -1.8866  0.5880  0.3482
   94CHL1   C12 9393   4.946   2.463   7.683  0.8696  0.1420  0.3817
   94CHL1  H12A 9394   4.946   2.379   7.755  2.4899 -0.5665 -0.3894
   94CHL1  H12B 9395   4.861   2.529   7.708  0.0897 -1.6014  2.6050
   94CHL1   C11 9396   4.928   2.423   7.540 -0.2610  0.6198 -0.0048
   94CHL1  H11A 9397   5.005   2.348   7.512  0.9816  2.2811 -1.2071
   94CHL1  H11B 9398   4.829   2.378   7.519  0.8486 -1.9425 -0.0367
   94CHL1    C9 9399   4.943   2.541   7.432 -0.6742 -0.8590 -0.2249
   94CHL1    H9 9400   4.866   2.619   7.456 -0.7128 -1.9213  3.9173
   94CHL1   C10 9401   4.918   2.507   7.286  0.3557 -0.5461 -0.4936
   94CHL1   C19 9402   4.986   2.383   7.251  0.2897 -0.7771  0.0385
   94CHL1  H19A 9403   4.942   2.296   7.302 -3.7397  0.9237 -0.1234
   94CHL1  H19B 9404   4.983   2.369   7.140  2.5094 -2.7677  0.1701
   94CHL1  H19C 9405   5.095   2.389   7.269  0.6690  1.6906 -2.3379
   94CHL1    C1 9406   4.761   2.503   7.264 -0.9336 -0.7053 -0.4485
   94CHL1   H1A 9407   4.714   2.425   7.327  1.1414 -2.7783 -1.3559
   94CHL1   H1B 9408   4.719   2.603   7.291  1.4959 -0.5216  3.3061
   94CHL1    C2 9409   4.715   2.488   7.122  0.5459  0.1849 -0.1920
   94CHL1   H2A 9410   4.604   2.487   7.118  0.4969  1.9397 -0.0350
   94CHL1   H2B 9411   4.753   2.390   7.085  0.7922 -0.4645  1.6602
   94CHL1   C20 9412   5.184   2.488   7.960 -0.6099 -0.0581 -0.7237
   94CHL1   H20 9413   5.284   2.448   7.932  0.1781  1.5178 -0.2807
   94CHL1   C21 9414   5.094   2.368   7.991 -0.0255 -0.3668  0.1549
   94CHL1  H21A 9415   5.140   2.319   8.079  1.2361  1.6609  0.6879
   94CHL1  H21B 9416   5.105   2.303   7.901  2.6125  3.2301 -2.4329
   94CHL1  H21C 9417   4.987   2.396   8.000 -0.4335 -1.2454 -1.4480
   94CHL1   C22 9418   5.198   2.558   8.102  0.4086 -0.3382  0.0536
   94CHL1  H22A 9419   5.236   2.660   8.080  0.4576 -0.5477 -0.8875
   94CHL1  H22B 9420   5.100   2.556   8.154 -0.0418  0.0490 -0.7648
   94CHL1   C23 9421   5.318   2.498   8.180  0.3255  0.1162 -0.3376
   94CHL1  H23A 9422   5.297   2.391   8.197  0.0726  0.0562 -1.0131
   94CHL1  H23B 9423   5.413   2.510   8.123  0.2066 -0.3032 -0.6262
   94CHL1   C24 9424   5.340   2.573   8.310  0.8719 -0.3566 -0.2957
   94CHL1  H24A 9425   5.368   2.678   8.288  0.9690 -0.9229 -3.3006
   94CHL1  H24B 9426   5.244   2.577   8.366  0.8974 -2.7656  0.0393
   94CHL1   C25 9427   5.448   2.515   8.402  0.2060  0.6916  0.0157
   94CHL1   H25 9428   5.416   2.414   8.433 -0.5085  0.9416  0.1079
   94CHL1   C26 9429   5.586   2.510   8.333  0.4672 -0.1842  0.6353
   94CHL1  H26A 9430   5.659   2.475   8.409  0.7636  2.7955  1.8557
   94CHL1  H26B 9431   5.584   2.429   8.257 -1.9672  1.1772 -0.9309
   94CHL1  H26C 9432   5.613   2.608   8.288 -0.3396  0.7893  2.1631
   94CHL1   C27 9433   5.450   2.594   8.537 -0.3317 -0.1214 -0.1877
   94CHL1  H27A 9434   5.477   2.699   8.514  1.5610 -0.0902  1.9152
   94CHL1  H27B 9435   5.352   2.584   8.589  0.3662 -2.3329  0.8093
   94CHL1  H27C 9436   5.530   2.560   8.606  0.0330  0.8016 -0.1321
   95CHL1    C3 9437   0.068   4.818   6.591  0.7020  0.1889  0.7206
   95CHL1    H3 9438   0.179   4.821   6.589  0.6743  0.8984 -0.2360
   95CHL1    O3 9439   0.025   4.815   6.456 -0.1526  0.4493 -0.0615
   95CHL1   H3' 9440   0.084   4.756   6.409 -0.8999  0.2383 -0.7351
   95CHL1    C4 9441   0.016   4.690   6.666 -0.3510  0.3139  0.8982
   95CHL1   H4A 9442  -0.094   4.682   6.653 -0.1898  1.7550 -1.9682
   95CHL1   H4B 9443   0.050   4.595   6.619 -2.5266 -0.2702  0.3889
   95CHL1    C5 9444   0.055   4.701   6.811 -0.0636 -0.0099 -0.9891
   95CHL1    C6 9445   0.121   4.604   6.874 -0.0421  0.9801 -0.2848
   95CHL1    H6 9446   0.167   4.519   6.821 -1.0083  1.4932 -1.9962
   95CHL1    C7 9447   0.143   4.605   7.026  0.5343  0.0100 -0.2373
   95CHL1   H7A 9448   0.102   4.511   7.069  0.1955 -0.7216 -2.0744
   95CHL1   H7B 9449   0.251   4.612   7.050  1.1396 -1.0737 -2.4175
   95CHL1    C8 9450   0.063   4.713   7.106 -0.0794  0.3153  0.2281
   95CHL1    H8 9451  -0.041   4.676   7.112 -0.4227  0.8845 -1.5290
   95CHL1   C14 9452   0.123   4.734   7.242  0.0846  0.2798 -0.2072
   95CHL1   H14 9453   0.226   4.765   7.214  0.4417 -0.2594  0.4919
   95CHL1   C15 9454   0.124   4.605   7.334 -0.3756 -0.4313 -0.1712
   95CHL1  H15A 9455   0.023   4.558   7.335  0.1605 -1.6759 -1.3746
   95CHL1  H15B 9456   0.190   4.521   7.305 -0.3500  0.4936 -3.1574
   95CHL1   C16 9457   0.163   4.664   7.468  0.2893  0.7311 -0.0366
   95CHL1  H16A 9458   0.074   4.631   7.527 -0.2092 -0.9086 -1.6145
   95CHL1  H16B 9459   0.253   4.613   7.509 -0.1660 -0.8743 -0.9567
   95CHL1   C17 9460   0.163   4.823   7.453 -0.6883  0.1807  0.6429
   95CHL1   H17 9461   0.268   4.850   7.431 -1.3855  1.1016 -1.9409
   95CHL1   C13 9462   0.079   4.856   7.325 -0.3285 -0.4675 -0.2179
   95CHL1   C18 9463  -0.074   4.839   7.369  0.0995 -0.0808  0.5853
   95CHL1  H18A 9464  -0.102   4.742   7.414 -1.4631 -0.1848 -0.4979
   95CHL1  H18B 9465  -0.097   4.921   7.440 -1.5676 -0.9820  1.1406
   95CHL1  H18C 9466  -0.142   4.845   7.280  0.0554 -0.6890  0.5759
   95CHL1   C12 9467   0.105   4.984   7.244  0.1568  0.2309 -1.1156
   95CHL1  H12A 9468   0.072   5.076   7.297 -1.7799 -1.1223  0.1348
   95CHL1  H12B 9469   0.216   4.977   7.241  0.2931  0.1038  1.7402
   95CHL1   C11 9470   0.035   4.973   7.106  0.1848 -0.3234 -0.1844
   95CHL1  H11A 9471  -0.075   4.981   7.115  0.3762  0.4610  2.3420
   95CHL1  H11B 9472   0.074   5.060   7.049 -2.1118  0.5392 -0.5512
   95CHL1    C9 9473   0.073   4.846   7.028 -0.0575  0.4426 -0.3662
   95CHL1    H9 9474   0.183   4.847   7.012 -0.3112 -0.9654 -2.6936
   95CHL1   C10 9475   0.009   4.831   6.886  0.4866 -0.2318  1.1849
   95CHL1   C19 9476  -0.149   4.832   6.897  0.2503  0.3647 -0.2784
   95CHL1  H19A 9477  -0.194   4.814   6.797  2.5123 -1.1455 -1.1077
   95CHL1  H19B 9478  -0.182   4.752   6.966  0.7903  0.0100 -0.4276
   95CHL1  H19C 9479  -0.191   4.922   6.947  0.6257  0.5949 -0.3670
   95CHL1    C1 9480   0.055   4.956   6.807  0.1118  0.0636  0.0675
   95CHL1   H1A 9481   0.001   5.045   6.846 -1.4755 -0.2430 -1.3009
   95CHL1   H1B 9482   0.165   4.957   6.820  0.1513 -0.1037 -0.2531
   95CHL1    C2 9483   0.017   4.942   6.661  0.7451  0.1560 -0.2710
   95CHL1   H2A 9484   0.057   5.025   6.599 -0.1514  0.9646  0.2012
   95CHL1   H2B 9485  -0.094   4.943   6.658  0.7649 -0.0895 -1.3384
   95CHL1   C20 9486   0.125   4.887   7.590  0.6958 -0.1600  0.0489
   95CHL1   H20 9487   0.014   4.890   7.594  0.6583  2.1072 -0.8563
   95CHL1   C21 9488   0.206   5.019   7.576 -0.0954  0.0301 -0.2786
   95CHL1  H21A 9489   0.171   5.080   7.490  0.0917 -1.3361 -1.3626
   95CHL1  H21B 9490   0.314   4.994   7.570  0.1459  1.1112 -0.5434
   95CHL1  H21C 9491   0.187   5.081   7.666  0.2801  1.4843 -1.1753
   95CHL1   C22 9492   0.173   4.809   7.719  0.8299  0.0209  0.6035
   95CHL1  H22A 9493   0.120   4.711   7.718  1.1712 -0.1603  0.4418
   95CHL1  H22B 9494   0.283   4.797   7.714  0.7416 -0.4355 -0.4534
   95CHL1   C23 9495   0.159   4.884   7.848  0.3575 -0.2294 -0.1596
   95CHL1  H23A 9496   0.204   4.986   7.842  1.4435 -0.7730 -1.8161
   95CHL1  H23B 9497   0.051   4.886   7.874 -0.1161 -0.2790 -2.0054
   95CHL1   C24 9498   0.229   4.822   7.971 -0.1784  0.4315  0.5535
   95CHL1  H24A 9499   0.195   4.717   7.958  0.4959  0.2876 -0.0612
   95CHL1  H24B 9500   0.339   4.832   7.967  0.0472 -1.8720 -0.1239
   95CHL1   C25 9501   0.178   4.870   8.106 -0.3515  0.3754 -0.1757
   95CHL1   H25 9502   0.073   4.838   8.128 -0.6075  0.5883 -1.0676
   95CHL1   C26 9503   0.266   4.808   8.210 -0.2189  0.2092 -0.1867
   95CHL1  H26A 9504   0.372   4.827   8.180 -0.6631  0.9499 -1.3795
   95CHL1  H26B 9505   0.256   4.861   8.307 -1.1395 -1.2504  0.5444
   95CHL1  H26C 9506   0.250   4.701   8.234  1.6472  0.6066  3.4741
   95CHL1   C27 9507   0.185   5.027   8.107 -0.4827 -0.3057 -0.6768
   95CHL1  H27A 9508   0.116   5.080   8.037  2.4196  2.6502 -1.5613
   95CHL1  H27B 9509   0.158   5.058   8.211  0.8976 -0.5791 -0.2104
   95CHL1  H27C 9510   0.288   5.060   8.084  1.1445 -1.9879  3.2928
   96CHL1    C3 9511   2.338   4.034   6.657 -0.4157 -0.2124 -0.2847
   96CHL1    H3 9512   2.228   4.039   6.673 -0.4769 -2.1313  0.1752
   96CHL1    O3 9513   2.357   4.047   6.516 -0.1068  0.2947  0.1143
   96CHL1   H3' 9514   2.453   4.053   6.506 -0.4244  2.8190 -2.8571
   96CHL1    C4 9515   2.412   4.138   6.740 -0.2602  0.6183  0.3219
   96CHL1   H4A 9516   2.518   4.138   6.708 -0.8698  2.9537 -2.1216
   96CHL1   H4B 9517   2.369   4.240   6.726 -1.3746  0.0583 -0.5432
   96CHL1    C5 9518   2.405   4.109   6.887  0.2361 -0.3954 -0.5584
   96CHL1    C6 9519   2.355   4.194   6.977  0.1855  0.1695 -0.6719
   96CHL1    H6 9520   2.325   4.287   6.927  0.6151  0.0361 -1.1924
   96CHL1    C7 9521   2.342   4.168   7.129  0.2952 -0.4126  0.7153
   96CHL1   H7A 9522   2.372   4.262   7.180  1.2323 -1.8300  2.9665
   96CHL1   H7B 9523   2.239   4.140   7.161  0.0107 -3.3866 -2.2706
   96CHL1    C8 9524   2.436   4.059   7.181 -0.2734 -0.5519 -0.0828
   96CHL1    H8 9525   2.542   4.091   7.175 -0.2790 -0.2185  1.2791
   96CHL1   C14 9526   2.398   4.034   7.329 -0.3291  0.2244  0.3497
   96CHL1   H14 9527   2.289   4.013   7.331 -0.9126  2.6923 -1.0067
   96CHL1   C15 9528   2.421   4.148   7.432 -0.1098  0.0181  0.2038
   96CHL1  H15A 9529   2.513   4.204   7.405  0.3543  1.5390  4.2613
   96CHL1  H15B 9530   2.333   4.214   7.412 -0.0921  0.0681  0.2930
   96CHL1   C16 9531   2.406   4.067   7.561 -0.2813  0.2134  0.0551
   96CHL1  H16A 9532   2.501   4.089   7.612 -0.3995  0.7592  0.0465
   96CHL1  H16B 9533   2.312   4.100   7.611  0.0820  0.2140  0.7392
   96CHL1   C17 9534   2.410   3.915   7.526 -0.1835 -0.0872 -0.0339
   96CHL1   H17 9535   2.304   3.882   7.537  0.0051 -0.0985  2.1956
   96CHL1   C13 9536   2.465   3.910   7.386  0.0316  0.2466  0.6341
   96CHL1   C18 9537   2.619   3.939   7.395 -0.6931  0.5827 -0.5186
   96CHL1  H18A 9538   2.670   3.853   7.443 -0.9115  0.0185 -1.2675
   96CHL1  H18B 9539   2.662   3.943   7.292  0.6178 -1.3692 -0.0990
   96CHL1  H18C 9540   2.639   4.033   7.450 -3.9584  1.8011 -1.1899
   96CHL1   C12 9541   2.425   3.790   7.295 -0.8642  0.1697 -0.6896
   96CHL1  H12A 9542   2.468   3.698   7.340 -1.7302 -0.4803 -1.1791
   96CHL1  H12B 9543   2.315   3.776   7.290 -0.8399 -0.7154  0.6788
   96CHL1   C11 9544   2.469   3.800   7.153 -0.0867  0.1937 -0.3613
   96CHL1  H11A 9545   2.579   3.789   7.160 -0.0643  0.6186 -0.0125
   96CHL1  H11B 9546   2.442   3.720   7.080  1.1185  0.6699 -1.3516
   96CHL1    C9 9547   2.414   3.938   7.086 -0.5186  0.1403 -0.6577
   96CHL1    H9 9548   2.304   3.921   7.088 -0.3886 -1.1075  2.4601
   96CHL1   C10 9549   2.452   3.969   6.935  0.6169  0.0839  0.1786
   96CHL1   C19 9550   2.601   3.960   6.897  0.5361 -0.3327 -0.5399
   96CHL1  H19A 9551   2.619   3.959   6.787  2.2024 -2.2984 -0.3273
   96CHL1  H19B 9552   2.655   4.051   6.929 -1.0773  0.7091 -0.6887
   96CHL1  H19C 9553   2.648   3.870   6.943  0.3455  1.0716  2.6452
   96CHL1    C1 9554   2.377   3.861   6.850  0.3967  0.6742 -0.8760
   96CHL1   H1A 9555   2.405   3.756   6.872 -0.8469  0.8477  2.1349
   96CHL1   H1B 9556   2.268   3.868   6.874  0.3038 -1.1834 -0.6235
   96CHL1    C2 9557   2.386   3.887   6.694 -0.0011 -0.1164 -0.6075
   96CHL1   H2A 9558   2.325   3.811   6.640 -1.7959  1.2310 -0.6057
   96CHL1   H2B 9559   2.492   3.874   6.666 -0.0765 -1.7134 -0.2485
   96CHL1   C20 9560   2.478   3.838   7.643  0.1261 -0.3800 -0.0731
   96CHL1   H20 9561   2.582   3.875   7.658  0.3822 -1.0704 -0.1012
   96CHL1   C21 9562   2.493   3.694   7.598 -0.4349  0.1388  1.1626
   96CHL1  H21A 9563   2.562   3.688   7.511 -0.2386 -0.6828  1.3645
   96CHL1  H21B 9564   2.395   3.646   7.578  0.3359 -1.5975  1.4143
   96CHL1  H21C 9565   2.542   3.633   7.677  0.2119  2.2074  2.4248
   96CHL1   C22 9566   2.412   3.848   7.772 -0.1031  0.0655 -0.7116
   96CHL1  H22A 9567   2.398   3.950   7.815 -2.0344  0.1145 -1.3881
   96CHL1  H22B 9568   2.312   3.801   7.768  0.3649 -0.9748 -0.4237
   96CHL1   C23 9569   2.491   3.772   7.893 -0.1122  0.1535  0.7495
   96CHL1  H23A 9570   2.505   3.664   7.869 -1.3449 -0.1175  1.1506
   96CHL1  H23B 9571   2.596   3.807   7.900  0.5798 -1.8437  1.0488
   96CHL1   C24 9572   2.438   3.804   8.038 -0.0195  0.3867 -0.1321
   96CHL1  H24A 9573   2.452   3.914   8.049 -1.1076  0.2935  3.0410
   96CHL1  H24B 9574   2.328   3.790   8.033  0.0202  0.5086 -1.9343
   96CHL1   C25 9575   2.507   3.738   8.161 -0.2355 -0.6828  0.2874
   96CHL1   H25 9576   2.616   3.747   8.145 -0.0581 -1.3630  1.0008
   96CHL1   C26 9577   2.483   3.802   8.295  0.2905 -0.0051 -0.5932
   96CHL1  H26A 9578   2.483   3.913   8.291  4.4397  0.1964 -0.1184
   96CHL1  H26B 9579   2.386   3.773   8.339  0.0538  1.3726 -0.1517
   96CHL1  H26C 9580   2.565   3.776   8.366 -0.0901 -0.4338 -0.3102
   96CHL1   C27 9581   2.472   3.587   8.163  0.1110  0.2234  0.1131
   96CHL1  H27A 9582   2.368   3.577   8.123  0.0002 -0.2086  0.5011
   96CHL1  H27B 9583   2.541   3.534   8.094 -1.3493 -1.1423 -0.3756
   96CHL1  H27C 9584   2.480   3.530   8.258  1.8773 -1.4336 -0.9476
   97OSM      N 9585   4.533   5.808  11.417 -0.6848 -0.5981  0.7470
   97OSM    C15 9586   4.487   5.663  11.427 -0.8597  0.1534 -0.1248
   97OSM   H15A 9587   4.380   5.662  11.448 -0.7819 -1.1751  0.3551
   97OSM   H15B 9588   4.543   5.612  11.505 -0.3530  0.2173 -0.4487
   97OSM   H15C 9589   4.502   5.608  11.335  0.0989  0.6328 -0.2583
   97OSM    C14 9590   4.499   5.884  11.544  0.2026  0.1766  0.2836
   97OSM   H14A 9591   4.402   5.851  11.579  1.0255 -1.2268  1.3010
   97OSM   H14B 9592   4.493   5.992  11.532 -0.1719  0.0457 -0.8375
   97OSM   H14C 9593   4.561   5.855  11.627  2.8589  2.0566 -0.9175
   97OSM    C13 9594   4.682   5.803  11.402  0.5440 -0.1354 -0.3879
   97OSM   H13A 9595   4.713   5.903  11.376 -0.9477 -0.5444 -4.4861
   97OSM   H13B 9596   4.699   5.742  11.314 -2.9102 -0.2707 -1.1000
   97OSM   H13C 9597   4.733   5.761  11.487  0.0188 -0.8829 -0.4260
   97OSM    C12 9598   4.466   5.871  11.296 -0.4560  0.4497  0.0677
   97OSM   H12A 9599   4.520   5.963  11.279  0.6123  0.1844  1.7555
   97OSM   H12B 9600   4.364   5.906  11.303 -0.9218  0.2258 -3.5393
   97OSM    C11 9601   4.473   5.789  11.166  0.2171  0.1285  0.2284
   97OSM   H11A 9602   4.440   5.844  11.075  1.2278 -0.4433 -0.4997
   97OSM   H11B 9603   4.407   5.701  11.178 -0.0021  0.4962  1.8393
   97OSM      P 9604   4.646   5.631  11.045  0.2792 -0.0168  0.1241
   97OSM    O13 9605   4.791   5.609  11.063  0.1585 -0.2360  0.3420
   97OSM    O14 9606   4.560   5.512  11.057  0.1031  0.1021  0.2706
   97OSM    O11 9607   4.627   5.692  10.907 -0.2736  0.5487 -0.5835
   97OSM    O12 9608   4.604   5.736  11.146  0.0443 -0.5485 -0.0733
   97OSM    C1S 9609   4.654   5.825  10.873  0.4188 -0.5201  0.6263
   97OSM    H1S 9610   4.765   5.834  10.878  0.2065  2.4477  2.2662
   97OSM    H1T 9611   4.621   5.900  10.947  1.9437 -0.5121  1.3375
   97OSM     NF 9612   4.630   5.996  10.684  0.2583 -0.1682 -0.2020
   97OSM    HNF 9613   4.575   6.073  10.714 -1.6057 -1.2706 -0.6648
   97OSM    C2S 9614   4.586   5.866  10.733 -0.2370  0.2201  0.4650
   97OSM    H2S 9615   4.626   5.794  10.658  2.5602  2.2868 -0.2079
   97OSM    C3S 9616   4.436   5.860  10.747  0.0330 -0.5262  0.1900
   97OSM    H3S 9617   4.415   5.944  10.816  0.4805 -0.5887  0.4088
   97OSM     O3 9618   4.390   5.746  10.816 -0.4714 -0.2856 -0.3367
   97OSM    HO3 9619   4.470   5.729  10.866 -2.3371 -1.9512  2.4027
   97OSM    C4S 9620   4.377   5.884  10.605 -0.0279 -0.3310 -0.1124
   97OSM    H4S 9621   4.361   5.987  10.570 -0.9992 -0.8314 -1.1828
   97OSM    C5S 9622   4.371   5.778  10.521  0.2106 -0.4278  1.2652
   97OSM    H5S 9623   4.394   5.674  10.550  1.7404  0.0989  2.0614
   97OSM    C6S 9624   4.326   5.787  10.372 -0.4107  0.2950  0.4118
   97OSM    H6S 9625   4.242   5.716  10.359  0.8214 -1.0733 -0.4093
   97OSM    H6T 9626   4.410   5.749  10.310  0.7289 -0.2227  2.1784
   97OSM    C7S 9627   4.271   5.931  10.329 -0.3151  0.8905 -0.3016
   97OSM    H7S 9628   4.349   6.010  10.334  2.1226 -1.0915 -3.1291
   97OSM    H7T 9629   4.195   5.959  10.405 -0.6266 -0.2591 -0.1565
   97OSM    C8S 9630   4.199   5.929  10.191 -0.4664  0.4216 -0.1146
   97OSM    H8S 9631   4.237   5.843  10.131 -1.0907 -0.7920  1.1834
   97OSM    H8T 9632   4.233   6.023  10.141  0.4083  0.5639  0.7189
   97OSM    C9S 9633   4.047   5.924  10.191 -0.1274 -0.3606 -0.8720
   97OSM    H9S 9634   4.007   6.023  10.223 -0.0717 -0.2529 -1.1388
   97OSM    H9T 9635   4.016   5.843  10.261 -2.5630  2.3290  1.4683
   97OSM   C10S 9636   3.993   5.892  10.048  0.1882  0.6655 -0.0683
   97OSM   H10S 9637   4.065   5.949   9.985  2.5053 -2.7694 -0.7962
   97OSM   H10T 9638   3.891   5.920  10.015 -0.8726 -1.0355  1.5658
   97OSM   C11S 9639   4.019   5.740  10.011 -0.5692 -0.0932  0.2832
   97OSM   H11S 9640   3.973   5.675  10.089 -1.5608  0.0802 -0.1549
   97OSM   H11T 9641   4.128   5.716  10.011 -0.5152  0.1254 -0.4063
   97OSM   C12S 9642   3.970   5.693   9.867  0.3924 -0.7579  0.1175
   97OSM   H12S 9643   3.860   5.704   9.858  0.2868  0.4600  2.3068
   97OSM   H12T 9644   3.997   5.586   9.859  0.5137 -0.6116 -1.7845
   97OSM   C13S 9645   4.043   5.768   9.754  0.1188  0.1695 -0.7585
   97OSM   H13S 9646   4.141   5.716   9.749 -0.6031 -1.3475  0.0488
   97OSM   H13T 9647   4.070   5.876   9.760 -0.5494  0.3548 -0.9900
   97OSM   C14S 9648   3.971   5.741   9.616  0.9436 -0.2735  0.4433
   97OSM   H14S 9649   3.870   5.788   9.619  1.3251  0.5909 -0.0514
   97OSM   H14T 9650   3.959   5.632   9.602  0.9822 -0.2452  0.1977
   97OSM   C15S 9651   4.030   5.796   9.482 -0.5295 -0.1802 -0.5853
   97OSM   H15S 9652   4.136   5.766   9.473 -0.6064 -1.8475  2.7487
   97OSM   H15T 9653   4.036   5.907   9.483  0.9602 -0.2458 -0.6258
   97OSM   C16S 9654   3.951   5.767   9.351 -0.0084  1.2055  0.6194
   97OSM   H16S 9655   3.843   5.779   9.376 -0.0198 -0.5676  1.5978
   97OSM   H16T 9656   3.956   5.659   9.328 -1.0766  1.5425 -1.3971
   97OSM   C17S 9657   3.984   5.854   9.234 -0.0373  1.0862 -0.5635
   97OSM   H17S 9658   4.092   5.846   9.208 -0.0123  2.2189 -0.8375
   97OSM   H17T 9659   3.963   5.959   9.263  2.2735  1.2723  0.6954
   97OSM   C18S 9660   3.900   5.806   9.113 -0.1509  0.0933 -0.9574
   97OSM   H18S 9661   3.930   5.706   9.076 -3.9686 -0.6029 -2.5345
   97OSM   H18T 9662   3.901   5.885   9.035 -2.1522  0.6257 -0.4838
   97OSM   H18U 9663   3.793   5.798   9.139  0.0346 -2.1783 -0.6459
   97OSM    C1F 9664   4.754   6.006  10.636 -0.2202 -0.1408 -0.1239
   97OSM     OF 9665   4.829   5.910  10.627 -0.0024 -0.0952 -0.6567
   97OSM    C2F 9666   4.796   6.151  10.600  0.5609 -0.1947 -0.5617
   97OSM    H2F 9667   4.907   6.152  10.610  0.9391 -0.6925 -3.7318
   97OSM    H2G 9668   4.746   6.225  10.667 -3.6610 -2.1487 -1.2533
   97OSM    C3F 9669   4.772   6.183  10.457 -0.0212  0.3664  0.0600
   97OSM    H3F 9670   4.820   6.104  10.395  1.1956  2.0282 -1.2135
   97OSM    H3G 9671   4.837   6.272  10.441  3.3851 -2.2648 -2.2874
   97OSM    C4F 9672   4.625   6.205  10.415  0.2965  0.1174 -0.5835
   97OSM    H4F 9673   4.588   6.274  10.494 -3.4062  0.1721 -2.1692
   97OSM    H4G 9674   4.573   6.110  10.435  1.2534 -0.1179  1.0209
   97OSM    C5F 9675   4.606   6.265  10.278  0.2674  0.6854  0.8025
   97OSM    H5F 9676   4.686   6.340  10.261  1.4910 -0.0097  3.1555
   97OSM    H5G 9677   4.514   6.325  10.289  0.3542  0.4028  4.0116
   97OSM    C6F 9678   4.577   6.157  10.169 -0.1438 -0.1709 -1.0203
   97OSM    H6F 9679   4.494   6.091  10.201  1.0258 -0.6776  1.1936
   97OSM    H6G 9680   4.670   6.096  10.166  0.1624  0.3097 -3.6358
   97OSM    C7F 9681   4.563   6.215  10.030  0.8921  0.3101 -0.4642
   97OSM    H7F 9682   4.621   6.310  10.034  1.1172  0.1694  3.2323
   97OSM    H7G 9683   4.457   6.247  10.039  0.5385 -0.8260 -0.3968
   97OSM    C8F 9684   4.580   6.125   9.912  0.0649  0.3313  0.3893
   97OSM    H8F 9685   4.690   6.111   9.904 -0.1131 -1.0452  0.0383
   97OSM    H8G 9686   4.536   6.179   9.825 -2.1287 -1.4726  0.2707
   97OSM    C9F 9687   4.523   5.986   9.927 -0.5609  0.2726 -0.2806
   97OSM    H9F 9688   4.547   5.933  10.020  2.3973 -1.5945 -1.9410
   97OSM   C10F 9689   4.427   5.932   9.844  0.2223 -0.7749 -0.3933
   97OSM   H10F 9690   4.407   5.825   9.855  1.6180 -0.8974  1.6375
   97OSM   C11F 9691   4.368   6.006   9.723 -0.2352 -0.3138 -0.2582
   97OSM   H11F 9692   4.377   6.117   9.733 -0.1450 -0.5023  2.6820
   97OSM   H11G 9693   4.259   5.988   9.710 -0.2034 -2.0325  1.4241
   97OSM   C12F 9694   4.433   5.963   9.594 -0.1579 -0.4584 -0.3802
   97OSM   H12F 9695   4.421   5.854   9.578  1.1732 -0.5014 -1.2602
   97OSM   H12G 9696   4.544   5.970   9.586 -0.0472 -1.1499  0.4254
   97OSM   C13F 9697   4.373   6.032   9.463  0.2117 -0.2308 -0.0467
   97OSM   H13F 9698   4.408   6.137   9.448 -1.0142  0.4364  1.5269
   97OSM   H13G 9699   4.264   6.033   9.482 -0.1699 -0.7834 -2.0338
   97OSM   C14F 9700   4.405   5.951   9.329  0.8361 -0.0082  0.4509
   97OSM   H14F 9701   4.330   6.006   9.268  1.1825  1.2746  1.1482
   97OSM   H14G 9702   4.371   5.848   9.352  0.9057 -0.4724 -1.3850
   97OSM   C15F 9703   4.543   5.970   9.266  0.1525 -0.2710  0.5622
   97OSM   H15F 9704   4.624   5.924   9.327 -0.6336 -1.0045  1.0734
   97OSM   H15G 9705   4.561   6.079   9.262  2.5155 -0.6282 -0.4736
   97OSM   C16F 9706   4.564   5.917   9.121  0.3426 -0.1043  0.3031
   97OSM   H16F 9707   4.497   5.979   9.057 -0.3810 -0.7559  0.4090
   97OSM   H16G 9708   4.527   5.812   9.125 -1.7181  0.4236 -2.0156
   97OSM   C17F 9709   4.706   5.936   9.068 -0.2813 -0.9204 -0.2789
   97OSM   H17F 9710   4.775   5.895   9.145  0.5682  0.3969 -0.3102
   97OSM   H17G 9711   4.721   6.046   9.068 -2.1873 -0.5866 -2.3690
   97OSM   C18F 9712   4.726   5.879   8.927 -0.1184  0.7168 -0.2485
   97OSM   H18F 9713   4.809   5.926   8.869 -0.4583  0.2350 -1.1418
   97OSM   H18G 9714   4.633   5.893   8.869  0.2035  0.8662 -0.7333
   97OSM   H18H 9715   4.743   5.770   8.942 -0.0797  0.8644  0.8509
   98OSM      N 9716   0.984   0.118  10.928  0.0562 -0.5063  0.3598
   98OSM    C15 9717   0.947   0.248  10.976 -0.1587  0.9735 -0.9863
   98OSM   H15A 9718   0.999   0.329  10.926  3.4831 -0.5085  0.0493
   98OSM   H15B 9719   0.959   0.254  11.083 -0.8997 -2.5872 -0.5847
   98OSM   H15C 9720   0.840   0.259  10.968 -0.1974  2.3504  0.7073
   98OSM    C14 9721   1.131   0.097  10.952 -0.3432 -0.3202 -0.0725
   98OSM   H14A 9722   1.164  -0.004  10.936  1.0394  0.1718 -0.4817
   98OSM   H14B 9723   1.158   0.124  11.053 -3.3732 -0.2464  0.8394
   98OSM   H14C 9724   1.195   0.152  10.885 -1.3687 -0.4971 -1.2438
   98OSM    C13 9725   0.907   0.014  11.005  0.4004 -0.1626  0.1127
   98OSM   H13A 9726   0.939  -0.085  10.975  0.0988 -0.1441 -0.2792
   98OSM   H13B 9727   0.801   0.014  10.986  0.6050  0.7645 -1.1688
   98OSM   H13C 9728   0.918   0.004  11.112 -2.8466 -1.3541  0.4619
   98OSM    C12 9729   0.953   0.096  10.776 -0.8913 -0.1582 -0.0933
   98OSM   H12A 9730   0.847   0.083  10.761 -1.2982  1.0558  1.4494
   98OSM   H12B 9731   1.005   0.008  10.740  2.1743  1.2107  0.6720
   98OSM    C11 9732   0.994   0.202  10.664 -0.3347  0.1441 -0.4004
   98OSM   H11A 9733   1.002   0.148  10.568  2.4530 -0.4702  0.0870
   98OSM   H11B 9734   1.100   0.226  10.687 -0.0406  0.4676 -1.9751
   98OSM      P 9735   0.769   0.309  10.602  0.0054  0.3850 -0.0787
   98OSM    O13 9736   0.699   0.187  10.647 -0.0356  0.0254  0.1759
   98OSM    O14 9737   0.712   0.439  10.619  0.0206 -0.0820  0.1635
   98OSM    O11 9738   0.811   0.292  10.442  0.1285 -0.1339  0.4240
   98OSM    O12 9739   0.915   0.320  10.656 -0.0447 -0.1235 -0.6342
   98OSM    C1S 9740   0.904   0.393  10.389  0.2260  0.1152 -0.3307
   98OSM    H1S 9741   0.998   0.396  10.447 -0.9658  2.3114  1.6649
   98OSM    H1T 9742   0.854   0.491  10.370  0.2740 -0.3584 -3.5848
   98OSM     NF 9743   1.049   0.437  10.184  0.0584  0.0285 -0.5267
   98OSM    HNF 9744   1.022   0.504  10.116  0.8077 -1.1007 -2.0084
   98OSM    C2S 9745   0.942   0.352  10.247 -0.1739  0.3880  0.5002
   98OSM    H2S 9746   0.980   0.247  10.251 -2.3868 -0.4536  0.4854
   98OSM    C3S 9747   0.821   0.356  10.152 -0.2301 -0.5041 -0.0059
   98OSM    H3S 9748   0.802   0.464  10.135  0.8507 -0.3778 -0.5363
   98OSM     O3 9749   0.699   0.299  10.198 -0.2743  0.2934  0.2066
   98OSM    HO3 9750   0.720   0.274  10.289  0.2281 -2.8742 -0.6440
   98OSM    C4S 9751   0.859   0.303  10.018  0.6562 -0.1988  0.1293
   98OSM    H4S 9752   0.899   0.370   9.940 -0.9900 -1.3873 -1.8518
   98OSM    C5S 9753   0.824   0.176   9.975  0.0575  0.3403  0.0287
   98OSM    H5S 9754   0.756   0.113  10.034 -0.5678  0.3090 -0.7181
   98OSM    C6S 9755   0.842   0.118   9.841  0.9522 -0.1622 -0.0668
   98OSM    H6S 9756   0.750   0.058   9.822  0.7765 -0.8985  2.7653
   98OSM    H6T 9757   0.922   0.041   9.849  2.3091  1.1956 -0.0949
   98OSM    C7S 9758   0.870   0.217   9.727 -0.5294 -0.2300 -0.0362
   98OSM    H7S 9759   0.975   0.247   9.748  0.8340 -2.1804 -3.2806
   98OSM    H7T 9760   0.812   0.312   9.734 -1.4428 -0.8192  0.6525
   98OSM    C8S 9761   0.864   0.159   9.590  0.6920  0.0390  0.3145
   98OSM    H8S 9762   0.757   0.136   9.570  1.0709 -1.5711 -0.0637
   98OSM    H8T 9763   0.908   0.057   9.600 -0.7742 -0.4910  1.7162
   98OSM    C9S 9764   0.933   0.250   9.490 -0.5176 -0.1030 -0.2656
   98OSM    H9S 9765   1.039   0.269   9.517 -0.6192  0.7759 -0.4313
   98OSM    H9T 9766   0.880   0.346   9.468 -3.2586 -0.9250  2.1583
   98OSM   C10S 9767   0.938   0.190   9.347 -0.1609  0.0705  0.1318
   98OSM   H10S 9768   0.835   0.155   9.327  0.9849 -1.9916 -3.0595
   98OSM   H10T 9769   0.997   0.096   9.348 -0.3785 -0.1011  2.4192
   98OSM   C11S 9770   0.984   0.283   9.239 -0.0675 -0.4592  1.3572
   98OSM   H11S 9771   1.094   0.297   9.244 -0.2314  1.0864  1.3306
   98OSM   H11T 9772   0.942   0.386   9.242 -0.5693 -0.6736  1.8107
   98OSM   C12S 9773   0.962   0.225   9.096 -0.0144 -0.6973  0.3399
   98OSM   H12S 9774   0.852   0.221   9.079  0.0551 -6.2074 -0.5650
   98OSM   H12T 9775   1.001   0.121   9.104  0.7204 -0.4199  0.4068
   98OSM   C13S 9776   1.030   0.305   8.981  0.2405  0.2881 -0.0346
   98OSM   H13S 9777   1.140   0.317   8.995  0.5919 -3.3570  1.3554
   98OSM   H13T 9778   0.974   0.400   8.994  0.3313  0.2280  0.9021
   98OSM   C14S 9779   1.001   0.241   8.848 -0.4101  0.3682  0.2136
   98OSM   H14S 9780   1.028   0.313   8.767  1.2030  0.5266  0.8623
   98OSM   H14T 9781   0.894   0.213   8.848 -0.2026 -0.4563 -0.2855
   98OSM   C15S 9782   1.088   0.116   8.823  0.7210  0.2727  0.7909
   98OSM   H15S 9783   1.102   0.062   8.919  0.4761  0.9909  1.2332
   98OSM   H15T 9784   1.190   0.148   8.794 -0.0785  1.9607 -0.3614
   98OSM   C16S 9785   1.014   0.021   8.722 -0.2726  0.0801  0.2186
   98OSM   H16S 9786   0.916  -0.011   8.764 -0.7442  0.1312 -0.8040
   98OSM   H16T 9787   1.062  -0.079   8.715 -2.3170 -0.8338 -2.1872
   98OSM   C17S 9788   1.011   0.067   8.574  0.1201  0.8079 -0.1951
   98OSM   H17S 9789   1.106   0.096   8.525 -0.6456  3.8217 -0.0998
   98OSM   H17T 9790   0.951   0.161   8.568 -0.0972  0.8319  1.6923
   98OSM   C18S 9791   0.955  -0.035   8.478  0.3558  0.5981 -0.0922
   98OSM   H18S 9792   0.937   0.007   8.377  0.4383 -0.0540 -0.3809
   98OSM   H18T 9793   0.857  -0.064   8.521 -0.0977  0.2551 -1.3113
   98OSM   H18U 9794   1.024  -0.120   8.459 -1.5049 -1.5794  2.2411
   98OSM    C1F 9795   1.175   0.435  10.225 -0.1999 -0.1524  0.1751
   98OSM     OF 9796   1.210   0.373  10.323 -0.7424 -0.3795  0.5130
   98OSM    C2F 9797   1.270   0.523  10.151 -0.0179 -0.2902 -0.3073
   98OSM    H2F 9798   1.256   0.631  10.173  0.1286 -0.3179 -0.0693
   98OSM    H2G 9799   1.266   0.497  10.043  0.1950 -0.9094 -0.1706
   98OSM    C3F 9800   1.421   0.509  10.204  0.8730 -0.6733 -0.1496
   98OSM    H3F 9801   1.457   0.406  10.183  1.2874 -0.6333  0.3341
   98OSM    H3G 9802   1.431   0.526  10.314  0.8041  2.5272 -0.5483
   98OSM    C4F 9803   1.511   0.612  10.134 -0.3026 -0.2773 -0.1425
   98OSM    H4F 9804   1.614   0.609  10.176 -0.4530 -1.1002  0.1915
   98OSM    H4G 9805   1.481   0.717  10.153  0.5916 -0.1443  0.5875
   98OSM    C5F 9806   1.525   0.583   9.982 -0.4148 -0.2191  0.1565
   98OSM    H5F 9807   1.430   0.568   9.926 -1.0738  0.3031  1.1120
   98OSM    H5G 9808   1.575   0.484   9.972 -1.7905 -0.9148 -0.1459
   98OSM    C6F 9809   1.611   0.684   9.889 -0.5203 -0.8197 -0.1716
   98OSM    H6F 9810   1.700   0.708   9.950 -1.4262 -1.7309  1.5976
   98OSM    H6G 9811   1.555   0.775   9.858  2.2605  1.1138  0.2033
   98OSM    C7F 9812   1.667   0.611   9.769 -0.0316 -0.5376  0.9323
   98OSM    H7F 9813   1.591   0.556   9.709  0.3503  1.7094 -1.8442
   98OSM    H7G 9814   1.749   0.541   9.796 -0.4030 -0.9364  1.0384
   98OSM    C8F 9815   1.720   0.707   9.655 -0.0883  0.2926  0.5029
   98OSM    H8F 9816   1.643   0.787   9.653 -0.1522  0.2182 -0.5062
   98OSM    H8G 9817   1.723   0.651   9.559 -0.3281  1.6192 -0.2987
   98OSM    C9F 9818   1.848   0.773   9.688 -0.0787  0.2793  0.8759
   98OSM    H9F 9819   1.842   0.841   9.775 -0.2651  3.4908 -1.4579
   98OSM   C10F 9820   1.966   0.756   9.631  0.2994  0.3089  0.2615
   98OSM   H10F 9821   2.057   0.798   9.676  1.1928 -1.0940 -0.1571
   98OSM   C11F 9822   2.000   0.668   9.513  0.2227 -0.0341  0.1973
   98OSM   H11F 9823   1.939   0.577   9.494 -0.8575  0.4775  1.1386
   98OSM   H11G 9824   2.104   0.629   9.521 -0.1598 -1.1772 -0.1485
   98OSM   C12F 9825   2.004   0.759   9.388 -0.2339  0.1955 -0.6568
   98OSM   H12F 9826   2.057   0.716   9.301 -1.1201 -0.3689 -0.9351
   98OSM   H12G 9827   2.043   0.860   9.408  1.3788 -0.3682 -0.8597
   98OSM   C13F 9828   1.854   0.766   9.339  0.9861 -0.6620 -0.0905
   98OSM   H13F 9829   1.796   0.826   9.413  2.6240  1.2116 -0.2268
   98OSM   H13G 9830   1.802   0.670   9.323 -0.2549 -0.7195  3.4220
   98OSM   C14F 9831   1.839   0.850   9.218  0.2852 -0.6945  0.3792
   98OSM   H14F 9832   1.928   0.914   9.195 -1.0137 -0.0354 -3.5320
   98OSM   H14G 9833   1.754   0.919   9.239  0.3784 -0.7563  0.9716
   98OSM   C15F 9834   1.819   0.768   9.095  0.1007 -0.2613 -0.5898
   98OSM   H15F 9835   1.723   0.713   9.096  0.3206 -0.6421 -0.3316
   98OSM   H15G 9836   1.903   0.696   9.087  2.3844  1.8897  1.8056
   98OSM   C16F 9837   1.814   0.856   8.968  0.0850 -0.5247  0.2792
   98OSM   H16F 9838   1.910   0.911   8.957 -0.0805 -0.0354  1.2302
   98OSM   H16G 9839   1.729   0.926   8.978  0.3695 -0.0037 -0.7751
   98OSM   C17F 9840   1.801   0.766   8.851 -0.0804 -0.9637  0.8165
   98OSM   H17F 9841   1.720   0.690   8.862 -2.4515  1.0320 -1.6086
   98OSM   H17G 9842   1.895   0.708   8.839  0.5862  0.2838 -0.1954
   98OSM   C18F 9843   1.778   0.830   8.708  0.1934  0.5012  0.3837
   98OSM   H18F 9844   1.672   0.859   8.695  0.2432 -0.2033 -2.1182
   98OSM   H18G 9845   1.784   0.744   8.638 -2.4810  0.1208  0.5131
   98OSM   H18H 9846   1.854   0.908   8.688  2.7927 -1.2679  2.5281
   99OSM      N 9847   5.060   0.005  10.804  0.5157  0.1514 -0.2550
   99OSM    C15 9848   4.995  -0.019  10.672 -0.2213 -0.3048  0.0375
   99OSM   H15A 9849   4.940  -0.111  10.667 -0.5747 -0.1532  0.9808
   99OSM   H15B 9850   5.062  -0.019  10.588  0.4503 -0.9712  0.5581
   99OSM   H15C 9851   4.927   0.062  10.651 -0.6970 -1.0039 -1.1855
   99OSM    C14 9852   5.140  -0.124  10.837 -0.3608 -0.1258 -0.2541
   99OSM   H14A 9853   5.184  -0.169  10.749 -1.0479 -2.3668  0.4802
   99OSM   H14B 9854   5.069  -0.190  10.884 -1.8394  3.3649  2.8924
   99OSM   H14C 9855   5.224  -0.110  10.903  0.4640 -2.0286 -0.8523
   99OSM    C13 9856   5.158   0.117  10.801 -0.6531 -0.0377  0.0663
   99OSM   H13A 9857   5.223   0.123  10.887  2.6196 -0.9983 -2.1311
   99OSM   H13B 9858   5.101   0.208  10.807 -0.1301  0.2514  0.8286
   99OSM   H13C 9859   5.219   0.112  10.711 -0.5151  0.0519  0.1540
   99OSM    C12 9860   4.957   0.028  10.913  0.2282 -0.1995 -0.3668
   99OSM   H12A 9861   5.010   0.026  11.007  1.4896  0.2032 -1.0496
   99OSM   H12B 9862   4.885  -0.053  10.910  0.2173 -0.1668 -1.5963
   99OSM    C11 9863   4.866   0.155  10.905 -0.1711  1.2951  0.6378
   99OSM   H11A 9864   4.933   0.244  10.900  1.2241  0.2926  0.8192
   99OSM   H11B 9865   4.800   0.167  10.993 -0.9981  3.0408 -0.1731
   99OSM      P 9866   4.642   0.076  10.778  0.0800  0.0443  0.2324
   99OSM    O13 9867   4.642  -0.051  10.856 -0.4541 -0.1488 -0.3540
   99OSM    O14 9868   4.540   0.176  10.812  0.0203  0.0491  0.0236
   99OSM    O11 9869   4.628   0.039  10.628 -0.7581 -0.0848  0.1255
   99OSM    O12 9870   4.786   0.151  10.782 -0.1336 -0.4565  0.9958
   99OSM    C1S 9871   4.663   0.134  10.524 -0.2159  0.0103 -0.1970
   99OSM    H1S 9872   4.774   0.145  10.518  0.0426 -1.1934  1.5294
   99OSM    H1T 9873   4.625   0.236  10.544 -0.7398 -0.3440  0.6623
   99OSM     NF 9874   4.674   0.177  10.277  0.7616  0.9610 -0.9535
   99OSM    HNF 9875   4.601   0.228  10.232 -1.2180 -0.1825  0.7688
   99OSM    C2S 9876   4.634   0.073  10.379 -1.4192  0.4397 -0.2105
   99OSM    H2S 9877   4.701  -0.014  10.365  0.3599  2.0211 -2.0694
   99OSM    C3S 9878   4.495   0.021  10.366 -0.2037  0.2441 -0.0685
   99OSM    H3S 9879   4.432   0.113  10.371 -1.5766 -0.6512 -0.3418
   99OSM     O3 9880   4.442  -0.057  10.476 -0.0645 -0.6980  0.0955
   99OSM    HO3 9881   4.505  -0.038  10.546  0.1217 -4.0495  1.0558
   99OSM    C4S 9882   4.463  -0.040  10.230 -1.3350 -0.5458 -0.0116
   99OSM    H4S 9883   4.410   0.028  10.161 -1.3706 -0.8323 -0.2672
   99OSM    C5S 9884   4.496  -0.167  10.197 -0.6096  0.1260 -0.7677
   99OSM    H5S 9885   4.537  -0.238  10.270  1.1165  0.4863 -1.3281
   99OSM    C6S 9886   4.477  -0.240  10.066 -0.4580  0.7954 -0.2148
   99OSM    H6S 9887   4.422  -0.335  10.082 -0.7242  1.0064  0.1370
   99OSM    H6T 9888   4.580  -0.276  10.042 -1.6037 -2.2020 -1.0427
   99OSM    C7S 9889   4.405  -0.164   9.955  0.4089  0.5104  0.2844
   99OSM    H7S 9890   4.455  -0.072   9.916  0.7169  1.3768  2.5346
   99OSM    H7T 9891   4.308  -0.132   9.999  0.8856  0.9869  1.0296
   99OSM    C8S 9892   4.386  -0.254   9.830 -0.4749 -0.1835 -0.6588
   99OSM    H8S 9893   4.294  -0.225   9.774 -1.5785 -1.8802  0.1761
   99OSM    H8T 9894   4.367  -0.357   9.869 -0.1445  0.8006  2.3530
   99OSM    C9S 9895   4.499  -0.248   9.727 -0.3409 -0.0314 -0.4807
   99OSM    H9S 9896   4.587  -0.271   9.790 -0.6044  0.2561  0.0030
   99OSM    H9T 9897   4.504  -0.144   9.690  2.3408  0.3807  0.8406
   99OSM   C10S 9898   4.488  -0.348   9.607  0.2088 -0.3071  0.2996
   99OSM   H10S 9899   4.489  -0.452   9.648  2.8179 -0.6875 -0.4975
   99OSM   H10T 9900   4.580  -0.344   9.545 -0.1217  0.0646 -0.1740
   99OSM   C11S 9901   4.372  -0.326   9.501 -0.6212  0.1215 -0.2598
   99OSM   H11S 9902   4.274  -0.295   9.544 -0.4583  0.6866 -0.2842
   99OSM   H11T 9903   4.354  -0.432   9.476 -0.2250 -0.2988  1.1191
   99OSM   C12S 9904   4.401  -0.240   9.382 -0.0470 -0.4757  0.0104
   99OSM   H12S 9905   4.317  -0.247   9.310  2.7362  0.3504 -3.5949
   99OSM   H12T 9906   4.401  -0.138   9.426  0.6437 -0.4500 -0.0277
   99OSM   C13S 9907   4.533  -0.255   9.303  0.0157 -0.2539 -0.5927
   99OSM   H13S 9908   4.611  -0.196   9.355  0.2333 -1.2331  0.2220
   99OSM   H13T 9909   4.519  -0.195   9.210 -2.2697  1.0814  0.5099
   99OSM   C14S 9910   4.571  -0.398   9.261 -0.4474  1.1619 -0.2076
   99OSM   H14S 9911   4.558  -0.470   9.344 -2.0867  1.5341 -0.1102
   99OSM   H14T 9912   4.679  -0.410   9.235 -0.6974 -2.2181 -0.0440
   99OSM   C15S 9913   4.486  -0.446   9.141  0.7792 -0.1817 -0.6429
   99OSM   H15S 9914   4.382  -0.408   9.145  0.6030 -0.7224  0.5467
   99OSM   H15T 9915   4.480  -0.557   9.150  0.9499 -0.6160 -4.4832
   99OSM   C16S 9916   4.551  -0.414   9.007 -0.2265  0.1603 -0.4409
   99OSM   H16S 9917   4.652  -0.458   8.997 -0.5725 -0.7591 -0.0384
   99OSM   H16T 9918   4.568  -0.304   9.009  4.0302 -0.3033  2.9269
   99OSM   C17S 9919   4.462  -0.456   8.895 -0.4063  0.5474 -0.7717
   99OSM   H17S 9920   4.379  -0.381   8.898  0.9068  2.1180 -1.6627
   99OSM   H17T 9921   4.428  -0.561   8.901 -1.3734  0.8834 -0.1107
   99OSM   C18S 9922   4.539  -0.443   8.762 -0.8539 -0.0850 -0.3315
   99OSM   H18S 9923   4.478  -0.469   8.673 -2.5939  2.7834 -0.1071
   99OSM   H18T 9924   4.628  -0.510   8.760 -1.4383 -0.8598 -2.7052
   99OSM   H18U 9925   4.568  -0.337   8.746 -0.3577 -0.1641  0.0120
   99OSM    C1F 9926   4.801   0.206  10.246  0.2066  0.2238 -0.1996
   99OSM     OF 9927   4.887   0.131  10.285  0.3703  0.1471  0.0719
   99OSM    C2F 9928   4.821   0.318  10.160 -0.2175 -0.9359  0.3231
   99OSM    H2F 9929   4.796   0.409  10.218  0.4441  0.2815 -1.2381
   99OSM    H2G 9930   4.763   0.316  10.065  1.6613 -2.1190 -0.8640
   99OSM    C3F 9931   4.962   0.325  10.103  0.2076  0.9188 -0.6549
   99OSM    H3F 9932   5.024   0.359  10.188 -0.3367 -1.1897  0.6473
   99OSM    H3G 9933   5.003   0.227  10.069 -0.8589  0.3147 -0.2292
   99OSM    C4F 9934   4.974   0.432   9.993  0.0065 -0.2409 -0.1349
   99OSM    H4F 9935   4.906   0.514  10.022  0.4599 -0.0678  0.4669
   99OSM    H4G 9936   4.936   0.388   9.898  2.3277 -1.6831 -0.4733
   99OSM    C5F 9937   5.119   0.476   9.954  0.0633 -0.1630 -0.5945
   99OSM    H5F 9938   5.176   0.383   9.930  2.3251  1.2581 -1.0405
   99OSM    H5G 9939   5.169   0.524  10.041  0.4698 -2.5698  0.6007
   99OSM    C6F 9940   5.117   0.564   9.829 -0.1508  0.8671  0.1142
   99OSM    H6F 9941   5.095   0.488   9.751 -1.1255  1.5189 -0.2566
   99OSM    H6G 9942   5.222   0.600   9.821  0.5282 -1.0408 -0.0649
   99OSM    C7F 9943   5.020   0.684   9.827  0.1452 -1.1871 -0.2685
   99OSM    H7F 9944   5.006   0.716   9.933 -1.9547  2.6291 -1.5269
   99OSM    H7G 9945   4.918   0.654   9.795 -1.1046  3.1230 -0.8744
   99OSM    C8F 9946   5.060   0.804   9.735 -0.0173  0.8181  0.3225
   99OSM    H8F 9947   5.151   0.841   9.787  1.9616 -0.4699 -2.0183
   99OSM    H8G 9948   4.983   0.884   9.733 -1.1917 -0.2777 -0.8230
   99OSM    C9F 9949   5.104   0.758   9.597  0.1176 -0.2888  0.5315
   99OSM    H9F 9950   5.173   0.673   9.587  0.9557  0.5864 -1.6766
   99OSM   C10F 9951   5.077   0.817   9.479  0.4167  0.6407 -0.7712
   99OSM   H10F 9952   5.119   0.776   9.385 -2.5542 -0.6414 -1.6491
   99OSM   C11F 9953   4.982   0.933   9.449 -0.1659  0.2664  0.6009
   99OSM   H11F 9954   4.931   0.968   9.542 -0.4405  1.7552 -0.0748
   99OSM   H11G 9955   4.895   0.901   9.387 -0.1076  1.3621 -0.0725
   99OSM   C12F 9956   5.055   1.054   9.381  0.2939  0.2057  0.2015
   99OSM   H12F 9957   4.991   1.142   9.359 -1.3370 -1.1321 -0.7136
   99OSM   H12G 9958   5.075   1.006   9.282 -1.6258 -0.4728  0.1054
   99OSM   C13F 9959   5.193   1.111   9.440  0.0881  0.0937 -0.2736
   99OSM   H13F 9960   5.236   1.167   9.355  2.0259  0.0890  0.6574
   99OSM   H13G 9961   5.265   1.032   9.468 -0.4525  0.3432  2.0618
   99OSM   C14F 9962   5.168   1.213   9.553  0.1260  0.4055 -0.0656
   99OSM   H14F 9963   5.082   1.283   9.551 -0.7982 -0.5711  2.4175
   99OSM   H14G 9964   5.261   1.275   9.556  0.1166  0.4193 -0.0577
   99OSM   C15F 9965   5.167   1.138   9.688 -0.1135 -0.2818  0.1424
   99OSM   H15F 9966   5.243   1.058   9.704  2.0270  1.8188  0.9378
   99OSM   H15G 9967   5.074   1.077   9.691 -0.3821  0.1030 -0.3305
   99OSM   C16F 9968   5.170   1.226   9.809  0.5972 -0.2311 -0.3701
   99OSM   H16F 9969   5.163   1.163   9.900 -0.5829 -0.5062 -0.6268
   99OSM   H16G 9970   5.087   1.301   9.806 -0.1092 -0.9952 -0.3169
   99OSM   C17F 9971   5.295   1.310   9.818 -0.0742  0.0175 -0.2542
   99OSM   H17F 9972   5.293   1.382   9.734  0.9782  2.9121  2.0083
   99OSM   H17G 9973   5.382   1.241   9.809 -0.4522 -0.7176  1.3590
   99OSM   C18F 9974   5.310   1.393   9.949 -0.3660 -0.4544  0.6663
   99OSM   H18F 9975   5.413   1.433   9.962 -0.4740 -0.2801  0.9946
   99OSM   H18G 9976   5.297   1.331  10.040  0.2056  1.6977  2.2925
   99OSM   H18H 9977   5.241   1.480   9.946  1.1901  0.8166 -2.4150
  100OSM      N 9978   0.007   2.487  10.954 -0.8451  0.5570  0.1826
  100OSM    C15 9979   0.159   2.506  10.996  0.8648 -0.4638  0.0221
  100OSM   H15A 9980   0.167   2.559  11.089  1.2101 -0.4954  0.0114
  100OSM   H15B 9981   0.198   2.574  10.921 -0.3336  1.3064  0.9319
  100OSM   H15C 9982   0.204   2.409  11.006 -0.1383 -1.1430 -1.6526
  100OSM    C14 9983  -0.056   2.421  11.069 -0.3374  0.1464  0.2745
  100OSM   H14A 9984  -0.004   2.328  11.084 -1.7665 -1.1608 -2.2526
  100OSM   H14B 9985  -0.159   2.391  11.054 -0.0073 -1.2907  0.6793
  100OSM   H14C 9986  -0.046   2.465  11.168 -1.5657 -1.6295  1.2462
  100OSM    C13 9987  -0.054   2.614  10.929  0.0095 -0.3640  0.2417
  100OSM   H13A 9988  -0.004   2.670  10.852 -2.3405  2.5782  0.6845
  100OSM   H13B 9989  -0.045   2.681  11.013 -1.7541  0.4488 -0.1680
  100OSM   H13C 9990  -0.160   2.606  10.910  0.2777 -2.4497 -0.6216
  100OSM    C12 9991   0.001   2.396  10.834 -0.4046 -0.8461  0.4793
  100OSM   H12A 9992  -0.101   2.377  10.805  0.0369 -2.1161 -0.3330
  100OSM   H12B 9993   0.041   2.302  10.868 -1.5100 -1.6537 -0.3742
  100OSM    C11 9994   0.068   2.419  10.698 -0.8991  0.2844 -0.0067
  100OSM   H11A 9995   0.024   2.338  10.635 -0.6080 -0.9110  1.2764
  100OSM   H11B 9996   0.178   2.410  10.703 -0.6963  1.8561 -0.8436
  100OSM      P 9997   0.103   2.617  10.529  0.5015  0.1012 -0.2371
  100OSM    O13 9998   0.016   2.677  10.429  0.0787  0.0133 -0.2260
  100OSM    O14 9999   0.204   2.698  10.598 -0.2344  0.1414  0.3627
  100OSM    O1110000   0.187   2.509  10.459  0.4595 -0.6710 -0.2892
  100OSM    O1210001   0.020   2.539  10.633 -0.8123  0.3083 -0.4364
  100OSM    C1S10002   0.137   2.398  10.376  0.4471 -0.2792  0.0379
  100OSM    H1S10003   0.034   2.373  10.407 -0.0560  0.7421 -0.7523
  100OSM    H1T10004   0.189   2.301  10.390  0.9050 -0.6072 -3.1635
  100OSM     NF10005   0.036   2.353  10.161 -0.2087 -0.0912  0.3102
  100OSM    HNF10006   0.074   2.296  10.088  0.8786  1.5673 -0.4773
  100OSM    C2S10007   0.120   2.444  10.233 -0.0154 -0.1041  0.0004
  100OSM    H2S10008   0.062   2.539  10.232 -0.1312 -0.1417 -2.4501
  100OSM    C3S10009   0.257   2.468  10.167 -0.6522 -0.0210 -0.7475
  100OSM    H3S10010   0.298   2.371  10.131  1.9238  1.1194 -1.0897
  100OSM     O310011   0.357   2.516  10.261  0.1937 -0.1241 -0.0199
  100OSM    HO310012   0.303   2.529  10.340 -0.0196 -0.9222 -0.0272
  100OSM    C4S10013   0.249   2.554  10.041 -0.0484  0.2446 -0.0355
  100OSM    H4S10014   0.181   2.640  10.050  1.2294  1.3948 -1.0411
  100OSM    C5S10015   0.301   2.530   9.919 -0.3873  0.4483 -0.1726
  100OSM    H5S10016   0.354   2.436   9.900 -0.1728  0.6748 -0.7231
  100OSM    C6S10017   0.293   2.605   9.795 -0.3879  0.3328  0.5755
  100OSM    H6S10018   0.207   2.573   9.732 -0.3224  2.0526 -0.4521
  100OSM    H6T10019   0.382   2.587   9.731 -1.0441 -0.0149 -0.2525
  100OSM    C7S10020   0.290   2.757   9.816  0.1534 -0.2789 -0.1253
  100OSM    H7S10021   0.371   2.777   9.890 -0.0815 -0.5117  0.1972
  100OSM    H7T10022   0.192   2.793   9.853  0.3607  0.0517  0.1159
  100OSM    C8S10023   0.319   2.834   9.682 -0.4249  0.3254  0.2668
  100OSM    H8S10024   0.416   2.802   9.638 -1.3591 -0.3363 -1.3792
  100OSM    H8T10025   0.323   2.944   9.694  0.7717  0.5726 -1.8975
  100OSM    C9S10026   0.206   2.813   9.584 -0.0244  0.7431  0.8944
  100OSM    H9S10027   0.111   2.829   9.640 -0.7584 -3.4535  1.1103
  100OSM    H9T10028   0.217   2.707   9.555  0.1591  0.5334  1.7140
  100OSM   C10S10029   0.211   2.889   9.449 -0.2520 -0.0351  0.0989
  100OSM   H10S10030   0.224   2.996   9.477  0.8494  0.5953 -2.4492
  100OSM   H10T10031   0.114   2.873   9.397 -0.0608  2.1745 -1.0539
  100OSM   C11S10032   0.327   2.846   9.366  0.1837 -0.5080  0.3383
  100OSM   H11S10033   0.418   2.821   9.425 -0.0532 -0.8786  0.5497
  100OSM   H11T10034   0.354   2.924   9.291 -3.7284  0.4091 -0.3321
  100OSM   C12S10035   0.296   2.720   9.279 -0.2932 -0.0377  0.3463
  100OSM   H12S10036   0.262   2.636   9.345 -0.2315 -1.1266 -0.9718
  100OSM   H12T10037   0.397   2.684   9.253 -0.5339 -1.9175  1.7549
  100OSM   C13S10038   0.208   2.733   9.152 -0.0502 -0.2490  0.3664
  100OSM   H13S10039   0.237   2.826   9.098 -0.2808 -0.9775 -1.0505
  100OSM   H13T10040   0.100   2.743   9.173  0.0359  0.8277  0.3317
  100OSM   C14S10041   0.216   2.613   9.062  0.3434 -0.8416  0.3969
  100OSM   H14S10042   0.193   2.521   9.120 -0.3591 -0.4553  0.7358
  100OSM   H14T10043   0.320   2.604   9.024 -0.1737  0.8761 -1.6418
  100OSM   C15S10044   0.132   2.625   8.931 -0.4628  0.5401 -0.6191
  100OSM   H15S10045   0.173   2.713   8.877  2.7914  0.6581  1.7635
  100OSM   H15T10046   0.027   2.637   8.966  0.2389  4.1221  0.7629
  100OSM   C16S10047   0.133   2.488   8.854  0.1993 -0.2613 -0.7607
  100OSM   H16S10048   0.065   2.412   8.898 -0.3540 -0.9091 -2.6192
  100OSM   H16T10049   0.238   2.452   8.859  1.4428  3.2306  2.5132
  100OSM   C17S10050   0.090   2.512   8.707 -0.1335 -0.3166  0.0885
  100OSM   H17S10051   0.164   2.579   8.658 -1.1554 -0.0748 -1.1660
  100OSM   H17T10052  -0.008   2.562   8.697  0.7569  1.0666 -3.0461
  100OSM   C18S10053   0.074   2.381   8.637  0.3649 -0.6317  0.4902
  100OSM   H18S10054   0.167   2.328   8.663  1.4098  1.0632  0.3874
  100OSM   H18T10055   0.063   2.391   8.526 -1.6244  1.5861  0.7898
  100OSM   H18U10056  -0.008   2.314   8.671  1.1407 -2.8572 -1.7717
  100OSM    C1F10057  -0.092   2.322  10.192  0.2461 -0.2940  0.1832
  100OSM     OF10058  -0.165   2.394  10.261  0.1016 -0.0178 -0.6976
  100OSM    C2F10059  -0.149   2.196  10.128  0.3635 -0.1147 -0.4602
  100OSM    H2F10060  -0.100   2.111  10.180 -0.5090 -0.7199 -0.5980
  100OSM    H2G10061  -0.119   2.193  10.021 -0.9806 -1.9782 -0.8363
  100OSM    C3F10062  -0.304   2.192  10.144  0.0193  0.3086  0.4782
  100OSM    H3F10063  -0.330   2.222  10.248  0.8342  1.9642  0.2366
  100OSM    H3G10064  -0.340   2.090  10.119  1.2933 -0.3193  1.0797
  100OSM    C4F10065  -0.375   2.281  10.042  0.5973  0.0132 -0.3077
  100OSM    H4F10066  -0.345   2.255   9.938  0.5949 -0.2589 -0.2416
  100OSM    H4G10067  -0.356   2.388  10.064  1.1556  0.0775 -1.0607
  100OSM    C5F10068  -0.524   2.275  10.049  0.6964 -0.0552 -0.5216
  100OSM    H5F10069  -0.563   2.290  10.152 -0.2931 -2.3074 -0.5181
  100OSM    H5G10070  -0.568   2.176  10.025 -3.4629  1.5691 -0.5071
  100OSM    C6F10071  -0.588   2.375   9.952  0.1945  0.2490 -0.3097
  100OSM    H6F10072  -0.550   2.345   9.852  1.0284  0.6482 -0.1214
  100OSM    H6G10073  -0.554   2.479   9.973 -0.9501  0.4337  0.7582
  100OSM    C7F10074  -0.742   2.358   9.963  0.5645 -0.5682  0.1342
  100OSM    H7F10075  -0.781   2.429  10.039 -2.1026 -1.3835 -0.3537
  100OSM    H7G10076  -0.759   2.257  10.005 -1.6074 -0.4914 -0.4328
  100OSM    C8F10077  -0.823   2.384   9.837 -0.4285 -0.1087 -0.5322
  100OSM    H8F10078  -0.925   2.343   9.854 -0.3716 -0.3365 -0.7264
  100OSM    H8G10079  -0.783   2.320   9.755 -1.8700 -1.2778 -0.3730
  100OSM    C9F10080  -0.835   2.533   9.811 -0.0509  0.4574 -0.4220
  100OSM    H9F10081  -0.895   2.584   9.887 -0.4065 -0.1782 -0.2660
  100OSM   C10F10082  -0.771   2.605   9.714 -1.1375  0.0277 -0.2909
  100OSM   H10F10083  -0.780   2.715   9.710 -0.0071  0.2464  1.9763
  100OSM   C11F10084  -0.678   2.538   9.613 -0.0161  0.2291 -0.4920
  100OSM   H11F10085  -0.734   2.458   9.561 -0.3929 -0.3225  0.7425
  100OSM   H11G10086  -0.607   2.467   9.659 -2.0902 -1.0787  0.8512
  100OSM   C12F10087  -0.612   2.629   9.504 -0.1781  0.2903  0.0202
  100OSM   H12F10088  -0.544   2.568   9.441  1.2504  1.1365  0.6922
  100OSM   H12G10089  -0.546   2.702   9.556 -1.0722  0.7712  0.5163
  100OSM   C13F10090  -0.725   2.684   9.413  0.4749  0.3265  0.5138
  100OSM   H13F10091  -0.755   2.784   9.451 -0.0042  0.3313  0.1328
  100OSM   H13G10092  -0.819   2.625   9.405  0.4606  0.5265 -1.1169
  100OSM   C14F10093  -0.676   2.683   9.264  0.1014 -0.0920 -0.9581
  100OSM   H14F10094  -0.570   2.716   9.261  0.4034 -0.7298  0.9185
  100OSM   H14G10095  -0.739   2.763   9.219 -1.9132 -1.3452 -0.5061
  100OSM   C15F10096  -0.703   2.548   9.204 -0.7024 -0.2904 -0.2224
  100OSM   H15F10097  -0.808   2.512   9.214 -0.9764  0.7918  1.0523
  100OSM   H15G10098  -0.650   2.477   9.271 -0.6136 -1.2395 -1.2634
  100OSM   C16F10099  -0.656   2.538   9.055  0.0940  1.1630  0.0134
  100OSM   H16F10100  -0.580   2.613   9.024  1.4462 -0.9784 -2.1350
  100OSM   H16G10101  -0.742   2.571   8.994 -1.3943 -0.4229  1.1526
  100OSM   C17F10102  -0.609   2.395   9.001  0.8113 -0.4151  0.4052
  100OSM   H17F10103  -0.502   2.386   9.026  1.5213  0.7300 -1.8927
  100OSM   H17G10104  -0.622   2.389   8.891  2.1524  0.7771  0.1525
  100OSM   C18F10105  -0.687   2.281   9.059 -0.6025  0.1583  0.4723
  100OSM   H18F10106  -0.796   2.293   9.041 -0.7828 -1.1154  0.6339
  100OSM   H18G10107  -0.658   2.266   9.165 -0.4983 -1.5876  0.2262
  100OSM   H18H10108  -0.658   2.187   9.008 -0.6101  1.1487 -1.4553
  101OSM      N10109   3.278   0.804  11.028 -0.0243 -0.2221 -0.1954
  101OSM    C1510110   3.319   0.892  11.149 -0.5644  0.2771 -0.2040
  101OSM   H15A10111   3.256   0.979  11.164  2.1118  2.1654  0.9501
  101OSM   H15B10112   3.414   0.934  11.120 -0.6901 -0.9547 -2.5958
  101OSM   H15C10113   3.327   0.827  11.235  1.3615  0.4553 -0.2204
  101OSM    C1410114   3.144   0.743  11.054 -0.8821 -0.3271  1.1439
  101OSM   H14A10115   3.109   0.707  10.959  0.4649 -1.6021  1.0949
  101OSM   H14B10116   3.078   0.818  11.096 -0.8896 -0.5950  1.6176
  101OSM   H14C10117   3.157   0.654  11.113 -2.0511 -0.3468  1.4017
  101OSM    C1310118   3.263   0.904  10.911  0.1877 -0.4212  0.0195
  101OSM   H13A10119   3.239   0.858  10.817 -1.9205 -1.1872  0.8743
  101OSM   H13B10120   3.360   0.952  10.908  0.6603 -1.3093  0.5070
  101OSM   H13C10121   3.186   0.976  10.934 -0.1836  0.4278 -3.3942
  101OSM    C1210122   3.380   0.704  11.003 -0.4308  0.3085  0.4063
  101OSM   H12A10123   3.398   0.647  11.093  3.2039 -0.7139 -0.7726
  101OSM   H12B10124   3.469   0.756  10.971 -2.4223  1.3446 -4.2994
  101OSM    C1110125   3.353   0.592  10.899 -0.7000  0.3668 -0.4334
  101OSM   H11A10126   3.449   0.546  10.868  0.5134  1.9120  0.8917
  101OSM   H11B10127   3.311   0.625  10.801  0.4379 -0.8080 -1.3576
  101OSM      P10128   3.148   0.412  10.905 -0.0297  0.3044  0.2105
  101OSM    O1310129   3.140   0.283  10.972 -0.0726 -0.5581 -0.0076
  101OSM    O1410130   3.032   0.491  10.939  0.0289 -0.0227  0.5344
  101OSM    O1110131   3.162   0.405  10.750  0.0594  0.4756  0.3789
  101OSM    O1210132   3.277   0.486  10.951  0.3109  0.1582  0.3416
  101OSM    C1S10133   3.285   0.343  10.713  0.1795 -0.6271 -0.6507
  101OSM    H1S10134   3.290   0.237  10.745  0.5761 -0.4953 -0.2639
  101OSM    H1T10135   3.381   0.390  10.745 -1.1240 -0.2067  3.0701
  101OSM     NF10136   3.402   0.258  10.513 -0.0856  0.5064 -0.0846
  101OSM    HNF10137   3.479   0.302  10.469 -1.0217  0.3858 -1.9528
  101OSM    C2S10138   3.289   0.341  10.563 -0.2246 -0.6280  0.3426
  101OSM    H2S10139   3.197   0.291  10.526 -0.9405  0.0861  1.1386
  101OSM    C3S10140   3.304   0.483  10.505  0.5658  0.5113 -0.3035
  101OSM    H3S10141   3.398   0.532  10.539  0.5960 -0.3393  0.9267
  101OSM     O310142   3.200   0.568  10.548 -0.4250 -0.0138  0.0780
  101OSM    HO310143   3.154   0.513  10.613  0.0443 -0.0528  0.3790
  101OSM    C4S10144   3.281   0.481  10.355 -0.0357 -0.4868 -0.8121
  101OSM    H4S10145   3.179   0.471  10.316 -0.0238  0.3108 -1.0738
  101OSM    C5S10146   3.386   0.498  10.269 -0.2035 -0.9169 -0.3870
  101OSM    H5S10147   3.489   0.489  10.306 -0.8773 -2.7220  1.2082
  101OSM    C6S10148   3.378   0.516  10.120 -0.4089 -0.4181 -0.8776
  101OSM    H6S10149   3.378   0.416  10.071  1.7686 -0.0320 -1.7898
  101OSM    H6T10150   3.463   0.581  10.088  0.7471 -2.1015 -1.3504
  101OSM    C7S10151   3.261   0.598  10.058 -0.5282 -0.5071 -0.3962
  101OSM    H7S10152   3.269   0.699  10.103  1.8672 -0.7398 -0.1551
  101OSM    H7T10153   3.162   0.554  10.083  0.2628 -4.7531 -3.6023
  101OSM    C8S10154   3.267   0.593   9.908  0.0072 -0.3000 -0.2472
  101OSM    H8S10155   3.242   0.492   9.867 -0.2406  0.3656 -1.8020
  101OSM    H8T10156   3.374   0.605   9.879 -0.1623 -0.3622 -0.9140
  101OSM    C9S10157   3.185   0.694   9.831  0.6149  0.1223  0.2983
  101OSM    H9S10158   3.220   0.799   9.843 -0.6835  0.4487  1.4474
  101OSM    H9T10159   3.085   0.685   9.880 -0.3632 -0.4997 -1.7215
  101OSM   C10S10160   3.169   0.659   9.676 -0.1090 -0.0374 -0.5171
  101OSM   H10S10161   3.130   0.560   9.709 -0.8578  0.0648 -1.0695
  101OSM   H10T10162   3.272   0.659   9.636 -0.3021 -2.2733 -1.1090
  101OSM   C11S10163   3.078   0.757   9.600  0.0701 -1.2710 -0.3402
  101OSM   H11S10164   3.130   0.854   9.583 -0.9290 -0.7269 -0.3917
  101OSM   H11T10165   2.994   0.772   9.672 -0.8909 -1.4667 -1.3944
  101OSM   C12S10166   3.035   0.710   9.455 -0.1346  0.4603 -0.5506
  101OSM   H12S10167   2.994   0.803   9.412  1.0170  1.2431 -0.0006
  101OSM   H12T10168   2.951   0.638   9.473  0.2163  0.1594 -0.0829
  101OSM   C13S10169   3.145   0.632   9.377 -0.1329 -0.0857 -0.1365
  101OSM   H13S10170   3.137   0.523   9.393 -1.4107  0.0745  0.4494
  101OSM   H13T10171   3.242   0.662   9.423  0.5287  0.6706 -1.9011
  101OSM   C14S10172   3.126   0.671   9.229 -0.0363  0.1469  0.4234
  101OSM   H14S10173   3.018   0.675   9.203 -0.2382  2.6470  1.4134
  101OSM   H14T10174   3.153   0.590   9.158 -2.7364  0.0929 -0.6471
  101OSM   C15S10175   3.189   0.804   9.189  0.1639 -0.4913  0.3235
  101OSM   H15S10176   3.300   0.807   9.194  0.2188 -0.3575 -0.7010
  101OSM   H15T10177   3.162   0.881   9.264 -0.5746  0.0928 -0.5206
  101OSM   C16S10178   3.151   0.849   9.048 -0.1195 -0.0219 -0.6553
  101OSM   H16S10179   3.041   0.858   9.052 -0.3953 -0.6329 -3.8998
  101OSM   H16T10180   3.173   0.762   8.982 -0.4258  0.6256 -1.6226
  101OSM   C17S10181   3.223   0.972   9.005  0.5798 -0.2285  0.0632
  101OSM   H17S10182   3.329   0.944   8.985  0.3125 -0.7188 -0.6873
  101OSM   H17T10183   3.232   1.048   9.086  3.3862 -0.3851  0.0073
  101OSM   C18S10184   3.150   1.039   8.889  0.4504  0.5335 -0.3858
  101OSM   H18S10185   3.199   1.134   8.860 -0.2878  0.3056 -2.5388
  101OSM   H18T10186   3.044   1.065   8.905  0.6905  0.8636  0.7957
  101OSM   H18U10187   3.157   0.967   8.805  0.0422  0.8271 -0.6700
  101OSM    C1F10188   3.401   0.122  10.504  0.3247 -1.1165  0.1445
  101OSM     OF10189   3.306   0.054  10.533 -0.3377 -0.2355 -0.7020
  101OSM    C2F10190   3.526   0.056  10.442  0.3066 -0.0413  0.3452
  101OSM    H2F10191   3.577  -0.020  10.504  2.4462  1.6016  0.7273
  101OSM    H2G10192   3.605   0.132  10.423 -0.6307  0.7696 -0.4025
  101OSM    C3F10193   3.487  -0.032  10.315 -0.0899  0.2248  0.0295
  101OSM    H3F10194   3.410  -0.104  10.351 -0.3679  1.3389  1.7872
  101OSM    H3G10195   3.566  -0.088  10.262 -0.6104 -0.1083 -0.3988
  101OSM    C4F10196   3.433   0.060  10.212  0.1909  0.3916 -0.4667
  101OSM    H4F10197   3.505   0.142  10.192 -1.6683  1.7405 -2.0280
  101OSM    H4G10198   3.340   0.109  10.249  1.3601  1.4210  1.2122
  101OSM    C5F10199   3.414  -0.004  10.072 -0.8768 -0.3936 -0.2378
  101OSM    H5F10200   3.345  -0.090  10.085  2.0243 -3.1394 -1.7070
  101OSM    H5G10201   3.507  -0.056  10.039 -0.9800 -2.4551  2.3946
  101OSM    C6F10202   3.367   0.090   9.957 -0.2471  0.6130  0.1486
  101OSM    H6F10203   3.263   0.118   9.983 -0.4406 -1.4939  1.9235
  101OSM    H6G10204   3.431   0.181   9.968  1.3009 -0.3268 -0.6339
  101OSM    C7F10205   3.397   0.044   9.810  0.1718 -0.0015 -0.6579
  101OSM    H7F10206   3.380  -0.066   9.805  1.5543 -0.2089 -1.1516
  101OSM    H7G10207   3.502   0.070   9.786  0.2414 -0.4050 -0.7974
  101OSM    C8F10208   3.304   0.099   9.699 -0.1264 -0.6814  0.2503
  101OSM    H8F10209   3.196   0.078   9.718 -0.5313  0.3086 -0.7861
  101OSM    H8G10210   3.320   0.043   9.605 -2.7123 -0.5925 -0.3192
  101OSM    C9F10211   3.319   0.248   9.680  0.7316 -0.3247 -0.3956
  101OSM    H9F10212   3.297   0.301   9.774 -0.4034 -0.5667 -0.5101
  101OSM   C10F10213   3.340   0.328   9.581 -0.2346  0.5200  0.3995
  101OSM   H10F10214   3.334   0.436   9.599 -1.8384  0.3538  1.0215
  101OSM   C11F10215   3.361   0.275   9.440  0.1145  0.4114  0.1534
  101OSM   H11F10216   3.299   0.325   9.362  1.2591 -0.1744 -1.1849
  101OSM   H11G10217   3.326   0.171   9.427 -1.9955  1.0414  0.4008
  101OSM   C12F10218   3.505   0.272   9.398  0.3713 -0.4391  0.7921
  101OSM   H12F10219   3.555   0.191   9.456  2.3969 -0.3734 -0.7713
  101OSM   H12G10220   3.551   0.371   9.417 -1.3912  1.4152 -3.3437
  101OSM   C13F10221   3.515   0.250   9.248  0.4496  0.2898 -0.2179
  101OSM   H13F10222   3.493   0.339   9.185  2.1218  0.1916 -0.9918
  101OSM   H13G10223   3.439   0.174   9.220  1.3099  0.1496 -2.3502
  101OSM   C14F10224   3.646   0.189   9.188 -0.7494 -0.5631 -0.9746
  101OSM   H14F10225   3.676   0.095   9.240 -0.4782 -1.0502 -1.9998
  101OSM   H14G10226   3.736   0.250   9.212 -2.1318  0.5740  1.9156
  101OSM   C15F10227   3.644   0.166   9.038 -0.3594  0.6485  0.0626
  101OSM   H15F10228   3.609   0.259   8.989  0.2759 -0.3515 -2.4169
  101OSM   H15G10229   3.564   0.089   9.025  1.1553 -0.7012 -1.8444
  101OSM   C16F10230   3.778   0.102   8.979  0.1380  0.0833 -0.3378
  101OSM   H16F10231   3.798   0.021   9.052  1.1689  1.0586  0.5072
  101OSM   H16G10232   3.868   0.167   8.978  0.6747 -0.5715 -3.4833
  101OSM   C17F10233   3.766   0.047   8.841  0.2483 -0.6582  0.3457
  101OSM   H17F10234   3.767   0.140   8.781  1.6863 -0.0564  1.2545
  101OSM   H17G10235   3.663   0.010   8.821 -0.5992  1.8404 -0.3020
  101OSM   C18F10236   3.875  -0.052   8.791  0.0019  0.2336 -0.5015
  101OSM   H18F10237   3.842  -0.091   8.692 -1.3766  0.0745 -0.0026
  101OSM   H18G10238   3.884  -0.148   8.846  1.4439  0.6003 -0.0587
  101OSM   H18H10239   3.981  -0.023   8.778  1.0128 -3.0898 -0.6109
  102OSM      N10240   5.006   2.687  11.164 -0.2530  1.0691  0.1204
  102OSM    C1510241   5.002   2.832  11.181  0.1225  1.0187  0.3829
  102OSM   H15A10242   4.903   2.871  11.159  0.4938  1.9461  0.2971
  102OSM   H15B10243   5.070   2.875  11.109 -0.8826 -0.1584 -1.3511
  102OSM   H15C10244   5.031   2.873  11.276 -1.5700  1.1994  0.8523
  102OSM    C1410245   5.140   2.630  11.216  0.4801  0.2864  0.1984
  102OSM   H14A10246   5.216   2.686  11.164 -0.1983 -0.1044 -1.2741
  102OSM   H14B10247   5.158   2.524  11.211  1.5055  0.3748  1.6137
  102OSM   H14C10248   5.147   2.654  11.321 -0.0748  0.0640  0.2921
  102OSM    C1310249   4.900   2.624  11.253 -0.8999 -0.0851 -0.0088
  102OSM   H13A10250   4.905   2.655  11.356 -1.4680 -0.3416  0.0978
  102OSM   H13B10251   4.905   2.516  11.250 -0.9195 -0.1224  1.0462
  102OSM   H13C10252   4.804   2.663  11.221 -0.3407  0.2356 -1.4016
  102OSM    C1210253   4.979   2.644  11.021  0.0480  0.8749 -0.4154
  102OSM   H12A10254   4.891   2.689  10.978  1.3916  4.8071  0.5536
  102OSM   H12B10255   4.958   2.538  11.033 -0.5889  1.2612  2.8942
  102OSM    C1110256   5.100   2.670  10.916 -0.2387  0.0921  1.0062
  102OSM   H11A10257   5.081   2.609  10.825 -1.6691 -0.4237  1.6183
  102OSM   H11B10258   5.193   2.626  10.957  1.3526  0.1385 -2.2461
  102OSM      P10259   5.021   2.874  10.772  0.2092 -0.1105  0.2531
  102OSM    O1310260   4.912   2.782  10.731 -0.0238 -0.3110  0.4739
  102OSM    O1410261   4.994   3.015  10.798  0.1564 -0.3354 -0.1681
  102OSM    O1110262   5.136   2.865  10.661 -0.2529 -0.0660  0.1754
  102OSM    O1210263   5.112   2.811  10.891  0.2529 -0.7273 -0.0405
  102OSM    C1S10264   5.167   2.741  10.597 -0.7875 -0.4743 -0.4127
  102OSM    H1S10265   5.084   2.667  10.599  0.4439 -1.8866  0.3904
  102OSM    H1T10266   5.261   2.699  10.639 -1.4247 -1.3816  0.1409
  102OSM     NF10267   5.205   2.618  10.389  0.5988 -0.0168  0.2817
  102OSM    HNF10268   5.298   2.583  10.386  0.6985  0.2182  0.6586
  102OSM    C2S10269   5.191   2.749  10.449  0.4732  0.0212 -0.5405
  102OSM    H2S10270   5.109   2.800  10.394  1.0609  0.7063 -0.7932
  102OSM    C3S10271   5.314   2.847  10.427  0.6941 -0.4058 -0.1078
  102OSM    H3S10272   5.402   2.815  10.488 -0.0912 -0.4302  1.0345
  102OSM     O310273   5.287   2.982  10.476  0.3771 -0.2812  0.6139
  102OSM    HO310274   5.210   2.958  10.528 -0.4591 -1.6672 -1.1511
  102OSM    C4S10275   5.358   2.847  10.282 -0.3089  0.7808 -0.8890
  102OSM    H4S10276   5.425   2.763  10.260  1.0797  1.6469 -0.1158
  102OSM    C5S10277   5.314   2.937  10.189  0.4696 -0.1136 -0.3851
  102OSM    H5S10278   5.238   3.010  10.220  0.7196 -0.3729  0.8771
  102OSM    C6S10279   5.355   2.950  10.044  0.3040 -0.0910 -0.3884
  102OSM    H6S10280   5.425   3.035  10.031 -0.8397  1.1538  1.1642
  102OSM    H6T10281   5.264   2.962   9.981  0.1028 -3.4798 -0.9461
  102OSM    C7S10282   5.431   2.828   9.982 -0.0206 -0.2035 -0.3972
  102OSM    H7S10283   5.367   2.742  10.008  0.2539 -0.9804 -2.1305
  102OSM    H7T10284   5.526   2.818  10.039 -1.1261 -0.1609  1.4976
  102OSM    C8S10285   5.464   2.855   9.833  0.2274 -0.2552 -0.7885
  102OSM    H8S10286   5.530   2.944   9.824  0.2020 -0.0920  0.4275
  102OSM    H8T10287   5.371   2.883   9.780  0.2936  0.7898 -0.3742
  102OSM    C9S10288   5.536   2.733   9.771  0.0432 -0.0533 -0.0184
  102OSM    H9S10289   5.472   2.645   9.790 -0.7054  0.0245 -1.9792
  102OSM    H9T10290   5.629   2.712   9.829 -1.0153 -3.8840  0.5016
  102OSM   C10S10291   5.571   2.750   9.621 -0.4038 -0.8207 -0.6806
  102OSM   H10S10292   5.664   2.810   9.623  0.2715 -1.7367  2.7269
  102OSM   H10T10293   5.487   2.800   9.569 -0.0027  3.0137  1.9584
  102OSM   C11S10294   5.616   2.615   9.563 -0.5914  0.1394  0.2358
  102OSM   H11S10295   5.540   2.535   9.561  0.8268 -1.3192 -2.7987
  102OSM   H11T10296   5.707   2.586   9.620  0.3939 -0.6644 -1.6339
  102OSM   C12S10297   5.667   2.641   9.417  0.2774  0.1134  0.7883
  102OSM   H12S10298   5.769   2.685   9.427  0.3110  0.1681  0.2707
  102OSM   H12T10299   5.602   2.720   9.372 -1.0202 -2.1556 -1.5965
  102OSM   C13S10300   5.670   2.510   9.335  0.0071 -0.1980  0.1444
  102OSM   H13S10301   5.567   2.473   9.311  1.0200 -1.9979 -1.7948
  102OSM   H13T10302   5.726   2.440   9.400 -1.9164 -0.9219  1.1185
  102OSM   C14S10303   5.732   2.529   9.193  0.4189  0.6217  0.6936
  102OSM   H14S10304   5.750   2.429   9.151 -0.6952  2.0418 -3.6608
  102OSM   H14T10305   5.829   2.583   9.201  1.1467 -0.4879 -0.3924
  102OSM   C15S10306   5.651   2.623   9.096  0.1660 -0.5928 -0.5549
  102OSM   H15S10307   5.644   2.728   9.133 -1.0102 -0.6292 -0.6158
  102OSM   H15T10308   5.547   2.588   9.075 -0.3996  1.5018 -1.4734
  102OSM   C16S10309   5.716   2.621   8.956 -0.7926 -0.1799  0.2247
  102OSM   H16S10310   5.826   2.633   8.972 -0.8336  0.0069  0.3662
  102OSM   H16T10311   5.701   2.709   8.889  1.0811  0.3018  0.3655
  102OSM   C17S10312   5.678   2.490   8.880 -0.4020  0.5313  0.0455
  102OSM   H17S10313   5.573   2.488   8.844  0.0441  0.0471 -1.2660
  102OSM   H17T10314   5.693   2.406   8.951  1.0383 -0.8764 -1.8336
  102OSM   C18S10315   5.760   2.450   8.753  0.7262  0.1351  0.5257
  102OSM   H18S10316   5.715   2.358   8.708 -0.0087  0.5438  0.4076
  102OSM   H18T10317   5.867   2.437   8.777  0.9742  0.8523 -0.1410
  102OSM   H18U10318   5.744   2.521   8.669  0.9962 -0.0518  0.3129
  102OSM    C1F10319   5.105   2.537  10.377 -0.0664  0.3134 -0.8349
  102OSM     OF10320   4.997   2.578  10.413  0.1887  0.3917 -0.8739
  102OSM    C2F10321   5.119   2.396  10.325 -0.3541  0.5321  0.5403
  102OSM    H2F10322   5.024   2.342  10.344 -0.1235  0.2122  0.7857
  102OSM    H2G10323   5.197   2.333  10.373 -0.4664  1.1364  1.5552
  102OSM    C3F10324   5.152   2.389  10.173 -0.7522  0.0875 -1.0315
  102OSM    H3F10325   5.162   2.282  10.144 -3.6626 -1.0575  1.6270
  102OSM    H3G10326   5.254   2.432  10.157 -0.5997 -0.1579 -0.7215
  102OSM    C4F10327   5.050   2.454  10.080  0.8334 -0.0878  0.2551
  102OSM    H4F10328   5.020   2.557  10.112 -2.4291 -1.0924  0.7675
  102OSM    H4G10329   4.951   2.403  10.083  0.8877 -0.3068 -1.2211
  102OSM    C5F10330   5.096   2.441   9.930  0.4074 -1.3485 -0.6942
  102OSM    H5F10331   5.153   2.346   9.921  0.1312 -1.4662 -1.2003
  102OSM    H5G10332   5.177   2.514   9.910  0.4231 -1.8163 -2.5111
  102OSM    C6F10333   4.982   2.434   9.830  0.6401  0.6967 -0.1036
  102OSM    H6F10334   4.928   2.531   9.841  0.8792  0.6306  2.4245
  102OSM    H6G10335   4.916   2.349   9.860  2.2765 -0.9100 -0.9460
  102OSM    C7F10336   5.042   2.406   9.690  0.7971 -0.5251  0.0773
  102OSM    H7F10337   5.111   2.319   9.695 -2.0531 -2.9114  0.9477
  102OSM    H7G10338   5.106   2.495   9.669  0.6302 -0.2433  0.7383
  102OSM    C8F10339   4.920   2.390   9.598 -0.9352  0.8747 -0.0788
  102OSM    H8F10340   4.877   2.492   9.594 -0.0518  1.2294 -0.7881
  102OSM    H8G10341   4.853   2.309   9.635 -0.0587 -0.2404 -0.8694
  102OSM    C9F10342   4.971   2.345   9.465 -0.5771 -0.0129 -0.0294
  102OSM    H9F10343   5.075   2.309   9.472 -0.4153  0.4741  0.0953
  102OSM   C10F10344   4.911   2.347   9.343 -0.5803  0.2822  0.3164
  102OSM   H10F10345   4.966   2.308   9.256 -2.6129  1.7890 -1.7871
  102OSM   C11F10346   4.773   2.389   9.301 -0.1888  0.8813 -0.1066
  102OSM   H11F10347   4.747   2.481   9.358 -1.2644  1.1345 -0.9612
  102OSM   H11G10348   4.694   2.315   9.322 -1.3720  2.0498 -0.2625
  102OSM   C12F10349   4.790   2.408   9.145 -0.3151 -0.1142  0.2787
  102OSM   H12F10350   4.886   2.450   9.109  0.2593 -0.4207  1.3985
  102OSM   H12G10351   4.725   2.494   9.120 -3.2585 -1.6645  2.0723
  102OSM   C13F10352   4.758   2.282   9.067  0.1794 -0.4558  0.1513
  102OSM   H13F10353   4.653   2.258   9.094 -0.8396  2.0297 -1.2260
  102OSM   H13G10354   4.820   2.194   9.094 -2.4943 -1.9391  1.9282
  102OSM   C14F10355   4.764   2.315   8.912 -0.3409  0.8070 -0.0827
  102OSM   H14F10356   4.743   2.216   8.866  1.6620  0.2705  0.0556
  102OSM   H14G10357   4.864   2.338   8.870 -1.0210  0.4766 -1.9805
  102OSM   C15F10358   4.658   2.415   8.865 -0.2067  0.8465 -0.4164
  102OSM   H15F10359   4.663   2.513   8.918 -1.1528  2.3041 -2.8674
  102OSM   H15G10360   4.557   2.372   8.882  1.3302 -3.3319 -0.7325
  102OSM   C16F10361   4.688   2.445   8.717 -0.2041 -0.3217  0.1524
  102OSM   H16F10362   4.662   2.352   8.662 -1.9829 -0.8028  1.7049
  102OSM   H16G10363   4.797   2.452   8.699 -0.1847  0.1599  0.4306
  102OSM   C17F10364   4.605   2.560   8.667 -0.0924  0.1699  0.3911
  102OSM   H17F10365   4.640   2.588   8.565  2.2424 -0.5361  0.9328
  102OSM   H17G10366   4.620   2.651   8.729  1.4665 -0.0607  0.4020
  102OSM   C18F10367   4.456   2.522   8.664  0.2560  0.0377  0.5477
  102OSM   H18F10368   4.441   2.451   8.579 -2.1743  2.1285 -0.9166
  102OSM   H18G10369   4.386   2.602   8.631  0.6989 -0.0117 -0.5708
  102OSM   H18H10370   4.408   2.471   8.751 -0.6114 -0.8575 -0.4144
  103OSM      N10371   3.772   6.467  11.398 -0.6818  0.2789 -0.2016
  103OSM    C1510372   3.634   6.504  11.424  0.4141 -0.4720 -0.3707
  103OSM   H15A10373   3.593   6.565  11.345  0.6330 -0.1275 -0.2176
  103OSM   H15B10374   3.632   6.577  11.503  0.7159 -0.6662 -0.1785
  103OSM   H15C10375   3.567   6.424  11.451 -0.9467  0.1606 -1.7313
  103OSM    C1410376   3.867   6.578  11.362  0.7456 -0.2169 -0.2378
  103OSM   H14A10377   3.831   6.620  11.270 -0.8247  1.7663  1.1744
  103OSM   H14B10378   3.968   6.542  11.356  0.7796 -0.4008  0.9968
  103OSM   H14C10379   3.868   6.650  11.443 -1.7264 -1.6445  1.1810
  103OSM    C1310380   3.834   6.401  11.518 -0.0788  0.3454  0.0891
  103OSM   H13A10381   3.857   6.474  11.595  0.3450 -0.4952  0.7686
  103OSM   H13B10382   3.918   6.343  11.483 -0.1357  1.3272 -1.8177
  103OSM   H13C10383   3.759   6.336  11.560 -1.1896  1.3527 -0.2638
  103OSM    C1210384   3.774   6.360  11.288 -0.1735 -0.4397 -0.5476
  103OSM   H12A10385   3.708   6.278  11.312 -1.2094  0.4765 -0.2100
  103OSM   H12B10386   3.868   6.306  11.279 -0.7447 -1.7429  0.8733
  103OSM    C1110387   3.744   6.406  11.139  0.5706 -0.9025  0.0972
  103OSM   H11A10388   3.648   6.460  11.153  0.4757 -0.9093 -0.5076
  103OSM   H11B10389   3.729   6.323  11.066  3.9812 -1.2629 -0.3442
  103OSM      P10390   3.979   6.420  11.037 -0.5833 -0.3650  0.0825
  103OSM    O1310391   4.090   6.498  11.097  0.2452 -0.5532  0.5907
  103OSM    O1410392   3.970   6.273  11.050  0.1522  0.1215  0.1103
  103OSM    O1110393   3.979   6.457  10.882 -0.3368 -1.2073  0.2767
  103OSM    O1210394   3.844   6.489  11.075  0.4253  0.0226  0.3848
  103OSM    C1S10395   3.864   6.449  10.795 -0.7091 -0.0033 -0.0733
  103OSM    H1S10396   3.800   6.539  10.806 -0.6141  0.0992 -0.3615
  103OSM    H1T10397   3.794   6.365  10.817 -0.6458 -0.3187 -1.0200
  103OSM     NF10398   3.809   6.423  10.552  0.6138  0.4239  0.1291
  103OSM    HNF10399   3.791   6.334  10.511 -2.6731  0.7578  0.6214
  103OSM    C2S10400   3.912   6.429  10.646 -0.1693 -0.1239 -0.1607
  103OSM    H2S10401   3.972   6.519  10.623 -2.4846  1.6146  0.1935
  103OSM    C3S10402   4.009   6.304  10.633  0.1406 -0.4162 -0.8801
  103OSM    H3S10403   3.942   6.216  10.640 -1.9302  1.2259  1.4709
  103OSM     O310404   4.112   6.296  10.737 -0.1672 -0.0022 -0.5122
  103OSM    HO310405   4.077   6.362  10.798 -1.0231 -1.7369  1.0076
  103OSM    C4S10406   4.066   6.293  10.499  0.3503 -0.2233  0.2149
  103OSM    H4S10407   4.039   6.199  10.450 -0.5860  0.6510 -0.9968
  103OSM    C5S10408   4.157   6.377  10.439 -0.4413  0.0026 -0.2228
  103OSM    H5S10409   4.176   6.473  10.490  1.6688 -0.1063 -0.7308
  103OSM    C6S10410   4.211   6.360  10.299 -0.0683 -0.4555  0.5215
  103OSM    H6S10411   4.299   6.291  10.294  0.9060  0.8281 -0.8274
  103OSM    H6T10412   4.238   6.459  10.256 -1.5734 -0.7917 -1.3309
  103OSM    C7S10413   4.102   6.318  10.201  0.8176  0.1724 -0.1245
  103OSM    H7S10414   4.019   6.392  10.201  1.8206  1.3480 -1.0657
  103OSM    H7T10415   4.067   6.213  10.211 -0.9554  0.8267  0.9473
  103OSM    C8S10416   4.149   6.321  10.051  0.2753 -0.1630  0.1765
  103OSM    H8S10417   4.233   6.250  10.042  1.0129  0.6188  0.7939
  103OSM    H8T10418   4.180   6.422  10.016  1.0993 -0.3633  0.3116
  103OSM    C9S10419   4.026   6.281   9.964 -0.3797  0.1877  0.6006
  103OSM    H9S10420   3.958   6.369   9.963 -0.4651  0.1226  0.5817
  103OSM    H9T10421   3.974   6.188   9.995  1.6071 -0.2123  3.0845
  103OSM   C10S10422   4.079   6.256   9.820  0.3051 -0.4956  0.6476
  103OSM   H10S10423   4.135   6.160   9.825 -1.3647 -1.5370  0.4133
  103OSM   H10T10424   4.148   6.334   9.782 -1.1938  1.1064  1.0822
  103OSM   C11S10425   3.971   6.240   9.711 -0.0467  0.1481  0.2090
  103OSM   H11S10426   3.898   6.321   9.729  1.3021  1.9675 -2.0474
  103OSM   H11T10427   3.921   6.140   9.710 -2.8028  1.4526 -0.3025
  103OSM   C12S10428   4.017   6.255   9.563  0.0045  0.6799  1.0734
  103OSM   H12S10429   4.112   6.201   9.545  0.2973  1.1597  1.1591
  103OSM   H12T10430   4.042   6.360   9.538 -3.0151  1.1161 -0.7454
  103OSM   C13S10431   3.905   6.209   9.470 -0.3728  0.5326  0.1119
  103OSM   H13S10432   3.813   6.251   9.515 -1.3050 -0.5629 -0.7297
  103OSM   H13T10433   3.891   6.099   9.475 -1.8856  0.7352  0.6015
  103OSM   C14S10434   3.917   6.253   9.322  0.6925  0.4385  0.7613
  103OSM   H14S10435   3.904   6.363   9.321 -3.8637  0.1076  0.7217
  103OSM   H14T10436   3.829   6.205   9.273  2.0306 -0.1227 -1.2129
  103OSM   C15S10437   4.050   6.233   9.259 -0.5801 -0.4362 -0.6639
  103OSM   H15S10438   4.075   6.125   9.246 -0.1583 -0.2563 -1.4123
  103OSM   H15T10439   4.135   6.269   9.320  0.4685 -2.5197 -0.7752
  103OSM   C16S10440   4.080   6.297   9.123  0.5032  0.3129 -0.8544
  103OSM   H16S10441   4.173   6.358   9.132 -0.4761  1.5659  3.1453
  103OSM   H16T10442   3.997   6.361   9.086  1.8177  1.9278 -1.1038
  103OSM   C17S10443   4.094   6.182   9.027 -0.5702  0.1971 -0.1592
  103OSM   H17S10444   4.021   6.098   9.034  3.0579 -3.3074 -0.6297
  103OSM   H17T10445   4.194   6.138   9.046 -0.5480  0.1434 -0.3928
  103OSM   C18S10446   4.090   6.232   8.881  0.0755  0.0538  0.2440
  103OSM   H18S10447   3.997   6.291   8.862  0.1341  1.0809  2.7386
  103OSM   H18T10448   4.100   6.142   8.817  2.1088 -0.7549  1.5852
  103OSM   H18U10449   4.178   6.295   8.859  0.4613  0.6171  2.9949
  103OSM    C1F10450   3.717   6.513  10.537  0.2966 -0.2194  0.4800
  103OSM     OF10451   3.737   6.629  10.563 -0.3460 -0.1218 -0.1930
  103OSM    C2F10452   3.586   6.457  10.485 -0.2299 -0.2095  0.0118
  103OSM    H2F10453   3.507   6.535  10.491 -1.4459 -1.4567  0.9566
  103OSM    H2G10454   3.561   6.371  10.551 -0.0342  1.4163  2.3110
  103OSM    C3F10455   3.601   6.408  10.341 -0.0343 -0.4031 -0.7049
  103OSM    H3F10456   3.691   6.349  10.314  1.2703  0.7183  0.9556
  103OSM    H3G10457   3.624   6.501  10.284  0.9894  0.8109  1.5277
  103OSM    C4F10458   3.470   6.360  10.283  0.2359  0.4348 -0.0766
  103OSM    H4F10459   3.399   6.444  10.296 -0.8342  0.2849 -3.7580
  103OSM    H4G10460   3.421   6.266  10.318  1.8189 -0.1486  0.6366
  103OSM    C5F10461   3.484   6.316  10.138  0.6261  0.8380  0.2069
  103OSM    H5F10462   3.385   6.296  10.092  0.6726  1.0230  0.0249
  103OSM    H5G10463   3.538   6.219  10.146 -2.8357 -1.1467  3.8510
  103OSM    C6F10464   3.550   6.411  10.029  0.7120 -0.9246 -0.5880
  103OSM    H6F10465   3.652   6.433  10.064  0.0040  1.8111 -0.0040
  103OSM    H6G10466   3.492   6.505  10.043  0.0786 -0.7732 -3.5692
  103OSM    C7F10467   3.549   6.347   9.893  0.0462  0.8567  0.1322
  103OSM    H7F10468   3.451   6.345   9.840  1.0575 -0.4443 -1.8278
  103OSM    H7G10469   3.587   6.243   9.900  0.4494  0.8964 -1.1138
  103OSM    C8F10470   3.644   6.425   9.794 -1.4416 -0.2743  0.1819
  103OSM    H8F10471   3.655   6.355   9.708  3.3910 -0.8013  0.9155
  103OSM    H8G10472   3.742   6.434   9.845 -0.9422  0.3174 -0.8402
  103OSM    C9F10473   3.602   6.563   9.754  0.2872 -0.1785 -0.4985
  103OSM    H9F10474   3.632   6.638   9.827  0.2874 -0.5164 -0.1507
  103OSM   C10F10475   3.544   6.603   9.644  0.0561  0.2070  0.2000
  103OSM   H10F10476   3.525   6.709   9.625 -0.6905 -0.2581 -1.8887
  103OSM   C11F10477   3.510   6.516   9.526  0.1538 -0.1122 -0.5353
  103OSM   H11F10478   3.399   6.509   9.523  0.1279 -1.0108  1.1925
  103OSM   H11G10479   3.545   6.411   9.535 -1.0754 -0.5668 -0.8952
  103OSM   C12F10480   3.567   6.580   9.396 -0.2417  0.4257 -0.1431
  103OSM   H12F10481   3.677   6.583   9.413 -0.4467  1.3429  1.2257
  103OSM   H12G10482   3.528   6.682   9.374  0.0544  0.3083 -1.2302
  103OSM   C13F10483   3.562   6.491   9.276  0.2865 -0.0911 -0.3281
  103OSM   H13F10484   3.456   6.472   9.250  0.4087 -0.7681 -0.3695
  103OSM   H13G10485   3.608   6.394   9.307  1.2360  0.9642  1.7185
  103OSM   C14F10486   3.623   6.548   9.144 -0.0651  0.0330 -0.1245
  103OSM   H14F10487   3.730   6.567   9.167 -0.6777  2.0315  1.2710
  103OSM   H14G10488   3.582   6.648   9.117 -1.0027 -0.6906 -1.5218
  103OSM   C15F10489   3.620   6.448   9.023 -0.5444  0.6339  0.1444
  103OSM   H15F10490   3.515   6.448   8.985  0.4408  0.8103 -2.7596
  103OSM   H15G10491   3.640   6.341   9.044 -1.1914 -0.2529 -3.2893
  103OSM   C16F10492   3.702   6.490   8.902 -0.5825 -0.2503 -0.3764
  103OSM   H16F10493   3.810   6.489   8.929 -0.7249 -1.3219  0.1858
  103OSM   H16G10494   3.679   6.598   8.896 -1.4490 -0.4597 -1.1071
  103OSM   C17F10495   3.678   6.409   8.778 -0.3909  0.5019  0.0451
  103OSM   H17F10496   3.569   6.405   8.755 -0.1612  0.4767 -1.0665
  103OSM   H17G10497   3.718   6.306   8.789  0.7330  1.0989  2.1936
  103OSM   C18F10498   3.754   6.484   8.657 -0.5574 -0.0756 -0.0762
  103OSM   H18F10499   3.732   6.442   8.556 -1.2581 -0.7224  0.3346
  103OSM   H18G10500   3.865   6.477   8.664 -0.6957 -0.7159  2.7747
  103OSM   H18H10501   3.723   6.589   8.641 -0.2240  0.0816  0.3049
  104OSM      N10502   6.473   6.528  10.901  0.0956 -0.7064  0.1138
  104OSM    C1510503   6.611   6.519  10.953  0.1555  0.2988 -0.5103
  104OSM   H15A10504   6.688   6.545  10.883  0.2747 -0.6092 -0.7350
  104OSM   H15B10505   6.633   6.425  11.003  1.3089 -0.1869 -1.8816
  104OSM   H15C10506   6.606   6.587  11.037 -0.4456  1.3040 -1.3313
  104OSM    C1410507   6.379   6.494  11.010  0.0782 -0.5238 -0.6342
  104OSM   H14A10508   6.346   6.582  11.064 -0.2625 -1.8325  1.3964
  104OSM   H14B10509   6.403   6.419  11.083  1.6131  0.0855 -0.4790
  104OSM   H14C10510   6.290   6.465  10.957  0.5897  1.0858 -2.4908
  104OSM    C1310511   6.449   6.670  10.863 -0.8830 -0.3209  0.5625
  104OSM   H13A10512   6.514   6.697  10.781 -0.9747  2.2071  1.2618
  104OSM   H13B10513   6.472   6.729  10.950 -1.7752  0.1147  0.5157
  104OSM   H13C10514   6.350   6.698  10.833 -1.2412 -0.6774  1.3896
  104OSM    C1210515   6.452   6.431  10.792 -0.2076 -0.0982  0.7031
  104OSM   H12A10516   6.450   6.333  10.835  2.2526 -0.8642 -0.7481
  104OSM   H12B10517   6.538   6.441  10.728 -0.3898 -0.9307  0.3208
  104OSM    C1110518   6.322   6.451  10.710  0.1658  0.2711 -0.1935
  104OSM   H11A10519   6.315   6.379  10.626 -1.1320  2.1821 -1.8079
  104OSM   H11B10520   6.310   6.548  10.658 -1.4312  0.5931  0.6928
  104OSM      P10521   6.126   6.289  10.788  0.1315 -0.0035  0.0614
  104OSM    O1310522   6.181   6.194  10.894 -0.7134 -0.1911  0.3203
  104OSM    O1410523   5.982   6.331  10.809 -0.7072 -0.6596  0.4987
  104OSM    O1110524   6.144   6.213  10.660  0.2358  0.2763 -0.0883
  104OSM    O1210525   6.212   6.424  10.789  0.0057  0.6659 -0.0869
  104OSM    C1S10526   6.077   6.248  10.537  0.3257  0.1810  0.0513
  104OSM    H1S10527   6.106   6.353  10.516 -2.6241  0.9368 -0.6423
  104OSM    H1T10528   5.967   6.245  10.550  0.4932 -2.2729  1.6088
  104OSM     NF10529   6.036   6.172  10.296  0.2872  0.3257  0.6109
  104OSM    HNF10530   5.953   6.120  10.273  0.4241  0.6771 -0.7786
  104OSM    C2S10531   6.107   6.142  10.417 -0.2804  0.3491  0.3538
  104OSM    H2S10532   6.214   6.153  10.391 -0.6154 -0.4800 -1.5444
  104OSM    C3S10533   6.087   5.995  10.473  0.8064  0.8209  0.6587
  104OSM    H3S10534   5.983   5.991  10.512  0.1664 -1.5339 -1.0455
  104OSM     O310535   6.175   5.966  10.584  0.2738 -0.0542 -0.8501
  104OSM    HO310536   6.184   6.054  10.620 -3.2090  0.7049 -1.5286
  104OSM    C4S10537   6.100   5.889  10.365  0.3429  0.1364  0.2674
  104OSM    H4S10538   6.004   5.847  10.332  0.2968 -0.4950  1.1577
  104OSM    C5S10539   6.211   5.840  10.319 -0.5834  0.0457 -0.0393
  104OSM    H5S10540   6.308   5.880  10.354  0.2556 -1.0928 -0.9871
  104OSM    C6S10541   6.208   5.736  10.215  0.1168 -0.1469 -0.4637
  104OSM    H6S10542   6.104   5.698  10.213  0.2847 -0.6124 -0.5853
  104OSM    H6T10543   6.274   5.653  10.248 -1.6855 -1.4525  0.0249
  104OSM    C7S10544   6.245   5.788  10.073  0.4105  0.5628 -0.4696
  104OSM    H7S10545   6.218   5.699  10.011  0.3545  0.9257 -0.9651
  104OSM    H7T10546   6.353   5.796  10.049  0.2996 -3.0813 -3.0831
  104OSM    C8S10547   6.155   5.908  10.036  0.7163 -0.3035  0.5060
  104OSM    H8S10548   6.194   6.005  10.076 -1.0190  1.1666 -1.1931
  104OSM    H8T10549   6.052   5.888  10.073  1.1060  0.1376  1.8819
  104OSM    C9S10550   6.159   5.954   9.886  0.1623 -0.4986 -0.1678
  104OSM    H9S10551   6.269   5.952   9.870  0.8613 -2.1427  3.6270
  104OSM    H9T10552   6.116   6.054   9.864  3.0437  0.5324 -1.6293
  104OSM   C10S10553   6.093   5.861   9.790  0.0995  0.1134 -0.2630
  104OSM   H10S10554   5.986   5.864   9.823 -0.1352  2.8085 -0.9615
  104OSM   H10T10555   6.134   5.759   9.797  0.2580  0.2514  1.0800
  104OSM   C11S10556   6.107   5.912   9.644 -0.3135 -0.0157 -0.7171
  104OSM   H11S10557   6.213   5.941   9.628 -0.8299  2.3506 -0.2149
  104OSM   H11T10558   6.043   6.000   9.622 -1.7662 -0.4811  1.3537
  104OSM   C12S10559   6.077   5.824   9.520 -0.1547 -0.1640 -0.6778
  104OSM   H12S10560   6.069   5.720   9.556 -2.6287  0.7060  1.6431
  104OSM   H12T10561   6.157   5.847   9.446 -0.1669  1.9308 -0.1230
  104OSM   C13S10562   5.947   5.846   9.459  0.8252  0.0395  0.2363
  104OSM   H13S10563   5.944   5.945   9.410 -0.0186  0.7606  1.6634
  104OSM   H13T10564   5.868   5.839   9.537 -0.2811  0.2411 -0.8353
  104OSM   C14S10565   5.920   5.733   9.348 -0.1278  0.3326 -0.3533
  104OSM   H14S10566   5.877   5.649   9.407  2.5121 -1.6524 -1.0747
  104OSM   H14T10567   6.016   5.701   9.302  0.0332  2.0597 -1.2968
  104OSM   C15S10568   5.827   5.780   9.235 -0.3873  0.2490  0.4291
  104OSM   H15S10569   5.870   5.870   9.187  0.1911  0.9696  2.2291
  104OSM   H15T10570   5.732   5.804   9.287  0.4633  0.4084  1.9504
  104OSM   C16S10571   5.815   5.659   9.140 -0.4244 -0.2369  0.0210
  104OSM   H16S10572   5.760   5.577   9.190 -2.6945  0.6771 -0.8582
  104OSM   H16T10573   5.910   5.618   9.100 -0.8865 -0.8452 -0.4712
  104OSM   C17S10574   5.745   5.711   9.013  0.2352 -0.2691 -0.2523
  104OSM   H17S10575   5.818   5.774   8.959  0.0020  1.1261  1.0183
  104OSM   H17T10576   5.659   5.779   9.031  0.8271  1.5312 -3.3414
  104OSM   C18S10577   5.693   5.591   8.941  0.7034 -0.2350 -0.1610
  104OSM   H18S10578   5.631   5.627   8.856  1.2073 -0.8725 -0.8094
  104OSM   H18T10579   5.626   5.527   9.003  0.3938  0.1899 -0.0527
  104OSM   H18U10580   5.774   5.531   8.894  0.6951 -1.8148  1.7068
  104OSM    C1F10581   6.059   6.276  10.217 -0.9349  0.3113 -0.1319
  104OSM     OF10582   6.160   6.349  10.239  0.1646 -0.2281 -0.3758
  104OSM    C2F10583   5.969   6.297  10.104 -0.2997 -0.5972  0.0299
  104OSM    H2F10584   5.884   6.363  10.130  0.0409 -0.1104 -0.0678
  104OSM    H2G10585   5.927   6.198  10.076  0.7212 -1.2460  0.7252
  104OSM    C3F10586   6.048   6.345   9.978  0.2342  0.0309 -0.1157
  104OSM    H3F10587   6.133   6.275   9.961 -0.1801 -0.6675  0.6792
  104OSM    H3G10588   6.088   6.446  10.003  0.9767 -0.0045 -1.0966
  104OSM    C4F10589   5.954   6.346   9.855  0.1412 -0.5285  0.1825
  104OSM    H4F10590   5.875   6.424   9.849 -0.6044 -1.3951 -3.0580
  104OSM    H4G10591   5.900   6.250   9.842 -0.2184 -0.0984 -1.8662
  104OSM    C5F10592   6.040   6.364   9.724  0.2141  0.5280 -0.2525
  104OSM    H5F10593   6.123   6.290   9.728  0.2244  0.5374 -0.2992
  104OSM    H5G10594   6.083   6.465   9.705  3.8380 -1.0251 -1.3301
  104OSM    C6F10595   5.969   6.329   9.587 -0.1400  0.1138  0.0277
  104OSM    H6F10596   5.876   6.387   9.565 -0.5318  0.2452  1.9032
  104OSM    H6G10597   5.939   6.223   9.595 -2.0587  0.6659  0.8198
  104OSM    C7F10598   6.054   6.349   9.467 -0.8451  0.6838 -0.1630
  104OSM    H7F10599   6.147   6.290   9.483 -1.4106  0.1609  1.3530
  104OSM    H7G10600   6.078   6.453   9.436  0.4536  0.1917 -0.9285
  104OSM    C8F10601   5.995   6.279   9.346  0.0610  0.2519  0.8754
  104OSM    H8F10602   5.955   6.184   9.390  0.2608  0.1728  0.8892
  104OSM    H8G10603   6.077   6.266   9.272  0.5668  1.3830  1.2199
  104OSM    C9F10604   5.889   6.359   9.281  0.0714 -0.2125  0.6757
  104OSM    H9F10605   5.915   6.466   9.282  0.4987 -0.1846  4.9225
  104OSM   C10F10606   5.767   6.322   9.235  0.8066 -0.3139 -0.3740
  104OSM   H10F10607   5.701   6.407   9.210  2.4648  1.1855  0.1244
  104OSM   C11F10608   5.699   6.181   9.241  0.5745  0.3304  0.1477
  104OSM   H11F10609   5.605   6.191   9.300 -0.2022  1.1471 -1.1749
  104OSM   H11G10610   5.758   6.109   9.301  0.6000 -0.6927 -1.0661
  104OSM   C12F10611   5.669   6.115   9.101  0.3697 -1.1029 -0.2449
  104OSM   H12F10612   5.660   6.010   9.135 -0.2974 -1.3588 -1.1920
  104OSM   H12G10613   5.763   6.111   9.042 -0.5124 -0.9798 -1.7134
  104OSM   C13F10614   5.542   6.170   9.033 -0.2937 -0.6499 -0.4308
  104OSM   H13F10615   5.561   6.277   9.009  2.8282 -1.4587 -2.0156
  104OSM   H13G10616   5.464   6.156   9.111  0.3920 -2.4289 -0.0311
  104OSM   C14F10617   5.506   6.083   8.907  0.1201 -0.1555  0.3869
  104OSM   H14F10618   5.405   6.112   8.870  0.1473 -2.0041 -1.3297
  104OSM   H14G10619   5.496   5.977   8.937  3.0924 -0.2948  1.1809
  104OSM   C15F10620   5.617   6.094   8.794 -0.2355 -0.8506  0.0004
  104OSM   H15F10621   5.597   6.024   8.710  2.1241 -1.1408 -0.3841
  104OSM   H15G10622   5.718   6.074   8.836 -1.2905 -2.5768  1.8415
  104OSM   C16F10623   5.609   6.239   8.735  0.1661  0.4653 -0.3430
  104OSM   H16F10624   5.691   6.244   8.660 -0.7890  0.3996 -1.4108
  104OSM   H16G10625   5.613   6.318   8.813 -0.8937  0.4610 -0.2698
  104OSM   C17F10626   5.485   6.272   8.653 -0.3014  0.4040  0.4088
  104OSM   H17F10627   5.399   6.285   8.722 -0.3432  0.1928  0.3947
  104OSM   H17G10628   5.460   6.184   8.590  0.0112 -0.8347  1.9808
  104OSM   C18F10629   5.501   6.397   8.574  0.1646 -0.0096 -0.4391
  104OSM   H18F10630   5.536   6.476   8.644 -0.7666 -1.8710  2.2993
  104OSM   H18G10631   5.404   6.426   8.529  1.0221  0.9228 -1.7677
  104OSM   H18H10632   5.572   6.402   8.488  2.2691  2.0918  1.2844
  105OSM      N10633   3.456   3.217  11.115  0.1937 -0.0320 -0.6990
  105OSM    C1510634   3.386   3.087  11.122 -0.3793 -0.3486  0.1254
  105OSM   H15A10635   3.294   3.084  11.067 -0.8208 -0.0139  0.8320
  105OSM   H15B10636   3.353   3.082  11.225  0.9789  0.9807  0.6635
  105OSM   H15C10637   3.457   3.015  11.083 -0.2528  0.0232 -0.3383
  105OSM    C1410638   3.379   3.315  11.202 -0.7654  0.5848  0.6394
  105OSM   H14A10639   3.279   3.328  11.161 -1.3496 -2.9695  0.5892
  105OSM   H14B10640   3.437   3.406  11.202  2.0831 -1.0855 -0.9626
  105OSM   H14C10641   3.383   3.274  11.302 -1.4444  0.1219  0.4860
  105OSM    C1310642   3.589   3.200  11.186  0.3550  0.3017  0.6681
  105OSM   H13A10643   3.667   3.154  11.127 -0.0901  0.4498 -0.0429
  105OSM   H13B10644   3.578   3.125  11.263  1.6698  0.5992  1.1648
  105OSM   H13C10645   3.630   3.295  11.218 -1.2178  1.5150 -0.7345
  105OSM    C1210646   3.478   3.258  10.973  0.3498  0.3307  0.3989
  105OSM   H12A10647   3.529   3.353  10.970 -0.2943  0.6695 -0.9044
  105OSM   H12B10648   3.380   3.288  10.938  0.9210  0.0327 -1.5900
  105OSM    C1110649   3.542   3.151  10.884 -0.0029  0.4416  0.0811
  105OSM   H11A10650   3.562   3.197  10.785 -1.5702 -1.8182 -1.3893
  105OSM   H11B10651   3.466   3.071  10.868 -1.2352  1.2878  1.4466
  105OSM      P10652   3.797   3.176  10.917  0.3206  0.2635 -0.0244
  105OSM    O1310653   3.786   3.320  10.945  0.6276 -0.2226 -0.9968
  105OSM    O1410654   3.909   3.111  10.983  0.0704 -0.0228 -0.6794
  105OSM    O1110655   3.819   3.155  10.761  0.0513 -0.2892 -0.5937
  105OSM    O1210656   3.660   3.103  10.941 -0.9525  0.1076 -0.1014
  105OSM    C1S10657   3.806   3.019  10.710 -0.7893 -0.2465  0.2213
  105OSM    H1S10658   3.703   2.980  10.726 -0.3563 -2.2202 -1.4204
  105OSM    H1T10659   3.885   2.948  10.745  0.0244  0.8223  0.5943
  105OSM     NF10660   3.806   2.887  10.500 -0.2085 -0.2556  0.3149
  105OSM    HNF10661   3.884   2.828  10.481  1.5001  2.4048 -1.6266
  105OSM    C2S10662   3.842   3.022  10.557  0.4472  0.1829 -0.0264
  105OSM    H2S10663   3.771   3.090  10.506  1.3215 -1.1898 -3.3627
  105OSM    C3S10664   3.994   3.059  10.537  0.0742  0.4356 -0.0025
  105OSM    H3S10665   4.056   2.977  10.578  0.0488 -0.0250 -0.8544
  105OSM     O310666   4.032   3.190  10.587 -0.4613  0.5193 -0.1136
  105OSM    HO310667   3.959   3.209  10.645 -0.6323  1.6186 -0.6598
  105OSM    C4S10668   4.024   3.063  10.387  0.1289  0.1366 -0.4650
  105OSM    H4S10669   4.072   2.972  10.350  0.9779 -0.3267  1.6566
  105OSM    C5S10670   4.002   3.162  10.305  0.1575  0.4820 -0.0746
  105OSM    H5S10671   3.962   3.258  10.341  1.6732  1.6569 -1.3697
  105OSM    C6S10672   4.033   3.165  10.156 -0.7298 -0.0337  0.1813
  105OSM    H6S10673   4.086   3.257  10.121 -1.6701 -0.2263 -1.9254
  105OSM    H6T10674   3.934   3.146  10.110 -0.4485 -1.3107  0.0645
  105OSM    C7S10675   4.115   3.048  10.107 -0.5740  0.1006  0.9166
  105OSM    H7S10676   4.080   2.949  10.143 -0.1898 -0.3485  0.0933
  105OSM    H7T10677   4.216   3.060  10.152 -0.3621  1.9397  0.0242
  105OSM    C8S10678   4.096   3.012   9.959  0.4549  0.0294  0.6672
  105OSM    H8S10679   3.990   2.979   9.958  0.6654 -0.8725  2.8316
  105OSM    H8T10680   4.163   2.931   9.922  0.7314  0.9372 -0.9540
  105OSM    C9S10681   4.108   3.130   9.866 -0.1740 -0.5746 -0.3350
  105OSM    H9S10682   4.208   3.178   9.875 -0.1887 -0.5871 -0.0991
  105OSM    H9T10683   4.037   3.213   9.885 -0.9619 -1.6454  1.6908
  105OSM   C10S10684   4.076   3.095   9.714  0.1801  0.1918  0.1489
  105OSM   H10S10685   3.976   3.047   9.707 -0.3397  1.0076  1.5034
  105OSM   H10T10686   4.143   3.011   9.686 -0.6131 -0.3714 -0.1013
  105OSM   C11S10687   4.070   3.221   9.628  0.2541 -0.4882 -0.4138
  105OSM   H11S10688   4.172   3.260   9.609  0.3535 -0.9467 -0.8365
  105OSM   H11T10689   4.013   3.302   9.677 -1.6434 -1.0849 -1.5361
  105OSM   C12S10690   4.023   3.190   9.487  0.1346  0.0973 -0.0124
  105OSM   H12S10691   3.923   3.142   9.501  0.2559 -0.2993 -0.4864
  105OSM   H12T10692   4.088   3.114   9.438 -2.3252 -0.7071 -2.2303
  105OSM   C13S10693   4.006   3.312   9.403 -0.4887 -0.4833  0.3460
  105OSM   H13S10694   4.097   3.373   9.384 -1.5261  0.6728 -1.1642
  105OSM   H13T10695   3.940   3.381   9.459 -1.0952  0.7355 -1.7444
  105OSM   C14S10696   3.930   3.294   9.274  0.0533  0.3219  0.0459
  105OSM   H14S10697   3.825   3.288   9.309 -0.0726  1.6136 -0.0572
  105OSM   H14T10698   3.965   3.194   9.241 -0.7685  0.0946 -0.1763
  105OSM   C15S10699   3.940   3.412   9.179  0.8069 -0.6097 -0.4520
  105OSM   H15S10700   4.044   3.441   9.155 -0.0720  1.7378 -1.7350
  105OSM   H15T10701   3.902   3.504   9.229  0.2254 -0.5426 -1.0018
  105OSM   C16S10702   3.851   3.381   9.056 -0.1755 -0.5300 -0.1793
  105OSM   H16S10703   3.754   3.345   9.095  0.0225 -1.1013 -0.2054
  105OSM   H16T10704   3.901   3.300   8.998 -0.6676 -0.0307 -1.3262
  105OSM   C17S10705   3.822   3.507   8.964  0.0503  0.2834  0.2019
  105OSM   H17S10706   3.920   3.543   8.925  0.1477  0.4646  0.6070
  105OSM   H17T10707   3.783   3.581   9.038  0.2627  0.3640  0.2336
  105OSM   C18S10708   3.709   3.483   8.852 -0.1572  0.8037 -0.3164
  105OSM   H18S10709   3.737   3.409   8.774 -0.3197 -1.9949  2.1072
  105OSM   H18T10710   3.680   3.580   8.806  2.1140  0.1177 -3.5523
  105OSM   H18U10711   3.614   3.457   8.904  0.8663 -2.6515  0.0546
  105OSM    C1F10712   3.686   2.847  10.480 -0.9801  0.3123 -0.1858
  105OSM     OF10713   3.594   2.922  10.491  0.0538 -0.4792 -0.1317
  105OSM    C2F10714   3.658   2.711  10.429 -0.3295  0.2510 -0.1375
  105OSM    H2F10715   3.612   2.641  10.503  0.9461 -2.3021 -1.5976
  105OSM    H2G10716   3.749   2.660  10.389 -0.9628 -2.1171  1.2458
  105OSM    C3F10717   3.568   2.690  10.310  0.0559  0.4547 -0.7727
  105OSM    H3F10718   3.575   2.584  10.279  2.4017 -0.1663  1.5675
  105OSM    H3G10719   3.603   2.749  10.222 -0.2591  1.9677  0.0691
  105OSM    C4F10720   3.419   2.725  10.324  0.0241 -0.1371  0.1769
  105OSM    H4F10721   3.406   2.834  10.337 -0.0580 -0.0724 -0.4275
  105OSM    H4G10722   3.386   2.680  10.420 -1.1761 -1.4837 -0.8194
  105OSM    C5F10723   3.339   2.678  10.208  0.0139 -0.1951 -0.2119
  105OSM    H5F10724   3.238   2.713  10.237  0.5604  1.0087  0.2902
  105OSM    H5G10725   3.324   2.568  10.210 -2.8527  0.0946 -1.3023
  105OSM    C6F10726   3.375   2.739  10.069 -0.6143 -0.1770  0.4669
  105OSM    H6F10727   3.483   2.742  10.043 -0.6521 -3.1475 -0.4840
  105OSM    H6G10728   3.341   2.844  10.078 -1.8227 -0.3557 -1.4207
  105OSM    C7F10729   3.280   2.674   9.961  0.0424 -0.6842 -0.5703
  105OSM    H7F10730   3.192   2.629  10.011 -0.2523 -0.9183 -1.2907
  105OSM    H7G10731   3.328   2.590   9.907 -2.5146 -2.8411  0.2742
  105OSM    C8F10732   3.232   2.780   9.860 -0.5313 -0.2764  0.6302
  105OSM    H8F10733   3.178   2.864   9.909 -2.0883  0.1606 -1.7138
  105OSM    H8G10734   3.165   2.734   9.785 -0.4981 -2.4100  1.8319
  105OSM    C9F10735   3.353   2.856   9.804 -0.9852 -0.2294 -0.0374
  105OSM    H9F10736   3.385   2.938   9.870 -1.4267  1.0453 -1.3406
  105OSM   C10F10737   3.409   2.846   9.680  0.3255  0.0680 -1.0164
  105OSM   H10F10738   3.494   2.912   9.654  1.1001 -0.9603 -1.1506
  105OSM   C11F10739   3.364   2.768   9.562 -0.1409 -0.4461 -0.3599
  105OSM   H11F10740   3.276   2.706   9.591 -1.4646  1.0609 -0.9945
  105OSM   H11G10741   3.450   2.707   9.527  2.0830  2.4538 -0.2790
  105OSM   C12F10742   3.333   2.859   9.439  0.7230  0.9752 -0.6319
  105OSM   H12F10743   3.414   2.931   9.415  0.9496  0.4572 -1.4458
  105OSM   H12G10744   3.243   2.919   9.462  1.4398  1.6816  0.4273
  105OSM   C13F10745   3.311   2.769   9.314  0.3425  0.2734 -0.2386
  105OSM   H13F10746   3.238   2.687   9.332  1.4375 -0.5216  0.7076
  105OSM   H13G10747   3.406   2.714   9.299 -0.2671 -1.8540  2.8029
  105OSM   C14F10748   3.284   2.844   9.187 -0.5853  0.0907 -0.0082
  105OSM   H14F10749   3.374   2.904   9.164 -0.2102 -0.7210 -0.7201
  105OSM   H14G10750   3.193   2.908   9.183 -0.8589 -0.2418  0.7006
  105OSM   C15F10751   3.286   2.750   9.067  0.6868  0.6589  0.1447
  105OSM   H15F10752   3.191   2.693   9.077  0.8434  0.5654  1.1237
  105OSM   H15G10753   3.376   2.687   9.053  1.7680  2.3026 -0.6617
  105OSM   C16F10754   3.288   2.837   8.935  0.6067  0.5755  0.2584
  105OSM   H16F10755   3.361   2.920   8.941 -0.6068  1.6676  0.3780
  105OSM   H16G10756   3.186   2.880   8.920 -0.2192 -1.5415 -0.6899
  105OSM   C17F10757   3.324   2.748   8.811 -0.0647 -0.2364  0.0319
  105OSM   H17F10758   3.267   2.654   8.796  2.7170 -1.7522 -1.6977
  105OSM   H17G10759   3.432   2.726   8.805 -0.0641 -0.5144  0.9275
  105OSM   C18F10760   3.286   2.840   8.686  0.9035 -0.8498  0.0497
  105OSM   H18F10761   3.318   2.804   8.586 -0.2678 -0.3015 -0.5468
  105OSM   H18G10762   3.304   2.949   8.704  1.5525 -0.7988 -0.8511
  105OSM   H18H10763   3.175   2.840   8.676  0.9776  1.1290 -1.4323
  106OSM      N10764   1.636   1.192  10.752  0.4696  0.2446  0.1436
  106OSM    C1510765   1.498   1.161  10.800 -0.0894 -0.3156  0.6503
  106OSM   H15A10766   1.439   1.250  10.815 -3.4055 -2.3631  0.8539
  106OSM   H15B10767   1.506   1.109  10.894 -2.8378 -2.5133 -0.1612
  106OSM   H15C10768   1.438   1.095  10.738 -2.4192 -1.2503  3.6353
  106OSM    C1410769   1.684   1.278  10.854  0.3364  0.0408  0.2267
  106OSM   H14A10770   1.790   1.288  10.840 -0.0951  1.9254 -2.2966
  106OSM   H14B10771   1.661   1.242  10.954 -0.3274  0.1614  0.1216
  106OSM   H14C10772   1.636   1.374  10.841 -0.1024  0.2246  2.6196
  106OSM    C1310773   1.715   1.065  10.747  0.2798 -0.2869 -0.3399
  106OSM   H13A10774   1.734   1.034  10.848  2.3974 -1.5987 -1.0666
  106OSM   H13B10775   1.815   1.082  10.709  0.9439 -1.5575  0.7543
  106OSM   H13C10776   1.667   0.987  10.690 -1.2797  0.2322  0.2246
  106OSM    C1210777   1.635   1.270  10.618 -0.2490  0.1373 -0.3590
  106OSM   H12A10778   1.567   1.354  10.623 -0.9900 -0.4598 -0.1998
  106OSM   H12B10779   1.598   1.206  10.539 -0.6703  3.2102 -2.8554
  106OSM    C1110780   1.765   1.340  10.573 -0.3442 -0.5902 -0.1637
  106OSM   H11A10781   1.750   1.378  10.469 -2.5125  2.7087  1.1787
  106OSM   H11B10782   1.847   1.266  10.574 -0.0710 -0.3079 -0.9601
  106OSM      P10783   1.753   1.588  10.662  0.5250 -0.0189  0.3504
  106OSM    O1310784   1.604   1.580  10.654 -0.2021 -0.1644  0.8964
  106OSM    O1410785   1.813   1.652  10.781  0.2241  0.2559 -0.1173
  106OSM    O1110786   1.812   1.629  10.520  0.3018 -0.1123  0.4654
  106OSM    O1210787   1.805   1.440  10.663 -0.0966 -0.2523  0.0722
  106OSM    C1S10788   1.948   1.645  10.492 -1.1303 -0.2327  0.7549
  106OSM    H1S10789   2.008   1.591  10.569  0.0780  1.6153  1.1721
  106OSM    H1T10790   1.976   1.751  10.511 -1.8280 -0.4366  3.2632
  106OSM     NF10791   2.132   1.567  10.340 -0.0578  0.1566 -0.2144
  106OSM    HNF10792   2.184   1.644  10.304  0.6064 -0.5169 -0.7247
  106OSM    C2S10793   1.990   1.595  10.351 -0.0609  0.1501  0.0154
  106OSM    H2S10794   1.935   1.503  10.319  0.2900 -0.9889  2.4969
  106OSM    C3S10795   1.927   1.699  10.255  0.5620  0.3005  0.4989
  106OSM    H3S10796   1.969   1.799  10.276 -0.6594  0.4874  2.3913
  106OSM     O310797   1.784   1.717  10.265  0.2175  0.3205  0.3012
  106OSM    HO310798   1.770   1.683  10.354  2.6410 -1.1468  0.2217
  106OSM    C4S10799   1.944   1.644  10.113 -0.7064 -0.0462  0.4012
  106OSM    H4S10800   1.864   1.578  10.077 -1.3240  1.2303 -0.6618
  106OSM    C5S10801   2.044   1.660  10.032 -0.1468  0.5074  0.0450
  106OSM    H5S10802   2.127   1.724  10.067 -0.6791  0.3176  1.6901
  106OSM    C6S10803   2.079   1.600   9.895  0.5531  0.5220 -0.3970
  106OSM    H6S10804   2.004   1.523   9.865 -0.8684  1.9904 -0.7622
  106OSM    H6T10805   2.173   1.540   9.889 -0.6727 -1.5336  0.0107
  106OSM    C7S10806   2.086   1.701   9.779 -0.3416  0.1816  0.0978
  106OSM    H7S10807   2.160   1.781   9.804  1.0127 -1.0748  0.2741
  106OSM    H7T10808   1.985   1.746   9.774 -0.3488  0.3494  1.3646
  106OSM    C8S10809   2.102   1.645   9.643 -1.4226  0.5439  0.1144
  106OSM    H8S10810   2.039   1.556   9.622 -0.7931  0.3933 -1.2767
  106OSM    H8T10811   2.210   1.623   9.629 -1.7338 -0.1988 -1.2243
  106OSM    C9S10812   2.070   1.750   9.537 -0.1953  0.1655  1.4167
  106OSM    H9S10813   2.128   1.844   9.552 -0.8215  1.0310 -1.0106
  106OSM    H9T10814   1.963   1.778   9.535 -0.1289  0.3875  0.3078
  106OSM   C10S10815   2.092   1.712   9.391  0.9584  0.3518 -0.3529
  106OSM   H10S10816   2.026   1.626   9.364  1.8968 -0.0719 -1.4128
  106OSM   H10T10817   2.195   1.674   9.372  0.8971  0.5642 -1.1725
  106OSM   C11S10818   2.080   1.827   9.294 -1.0092 -0.6364 -0.1481
  106OSM   H11S10819   2.178   1.879   9.296 -1.8519  1.2313 -2.5946
  106OSM   H11T10820   2.006   1.899   9.336 -0.0842  1.2400 -1.5712
  106OSM   C12S10821   2.048   1.776   9.154  0.5191  0.6509  0.6027
  106OSM   H12S10822   1.943   1.742   9.167  0.7932  0.5518  2.8717
  106OSM   H12T10823   2.096   1.683   9.117 -1.2221  1.2579 -3.8307
  106OSM   C13S10824   2.030   1.883   9.043 -0.0464 -0.3995  0.1842
  106OSM   H13S10825   2.128   1.912   9.000 -1.3075  0.1415 -2.5667
  106OSM   H13T10826   1.988   1.977   9.087 -1.3153 -0.0097 -1.7407
  106OSM   C14S10827   1.945   1.850   8.921  0.2695  0.1985 -0.3218
  106OSM   H14S10828   1.840   1.859   8.955  0.4555 -1.6789  0.8979
  106OSM   H14T10829   1.962   1.742   8.904  2.4141  0.2991  0.7553
  106OSM   C15S10830   1.976   1.941   8.806  0.0123  0.0598  0.8475
  106OSM   H15S10831   2.082   1.921   8.778  0.3202  0.3194  1.7921
  106OSM   H15T10832   1.962   2.050   8.826 -2.1454  0.1280 -0.7250
  106OSM   C16S10833   1.887   1.922   8.685 -0.3074 -0.1106  0.2119
  106OSM   H16S10834   1.784   1.953   8.714 -0.3442  0.6667 -0.7127
  106OSM   H16T10835   1.880   1.819   8.644 -1.2554  0.6726 -1.7027
  106OSM   C17S10836   1.950   2.022   8.580 -0.4750 -0.6557 -0.4948
  106OSM   H17S10837   1.966   2.120   8.629 -2.5642  0.3841 -1.7848
  106OSM   H17T10838   1.863   2.037   8.513  0.9411  0.4792 -2.1586
  106OSM   C18S10839   2.074   1.975   8.502 -0.0895  0.1667 -0.2846
  106OSM   H18S10840   2.152   1.939   8.572 -0.3729  0.9262  0.4452
  106OSM   H18T10841   2.108   2.062   8.441  0.7775  0.7245  0.9536
  106OSM   H18U10842   2.037   1.901   8.428 -0.5234  1.9393 -1.9185
  106OSM    C1F10843   2.182   1.454  10.386  1.0290 -0.4140 -0.0043
  106OSM     OF10844   2.113   1.386  10.460 -0.1804 -0.5187  0.4922
  106OSM    C2F10845   2.321   1.405  10.333 -0.5142  0.6113 -0.3632
  106OSM    H2F10846   2.372   1.381  10.429  0.8740 -0.2687 -1.2858
  106OSM    H2G10847   2.371   1.484  10.273 -1.0463  2.1120  1.0817
  106OSM    C3F10848   2.302   1.273  10.258  0.2012 -0.0201 -0.3266
  106OSM    H3F10849   2.234   1.203  10.310 -0.7292  0.0754 -1.3833
  106OSM    H3G10850   2.401   1.227  10.234 -0.0863 -0.3239 -0.9600
  106OSM    C4F10851   2.237   1.293  10.122  0.5469  0.0164 -0.0532
  106OSM    H4F10852   2.311   1.357  10.070  1.6209  2.4632  4.0926
  106OSM    H4G10853   2.139   1.344  10.136  0.3013 -0.9564  2.3500
  106OSM    C5F10854   2.209   1.154  10.052 -0.2744 -0.2122 -0.0306
  106OSM    H5F10855   2.127   1.090  10.092 -1.4072  0.7202 -0.7997
  106OSM    H5G10856   2.304   1.099  10.071 -0.1110  0.4371  1.1625
  106OSM    C6F10857   2.182   1.180   9.904 -0.0156 -0.0817  0.2197
  106OSM    H6F10858   2.272   1.238   9.877  0.1717 -1.0898 -1.4406
  106OSM    H6G10859   2.090   1.241   9.887  1.7147  2.2928 -1.1682
  106OSM    C7F10860   2.190   1.055   9.822 -0.7078 -0.0813 -0.1815
  106OSM    H7F10861   2.102   0.990   9.841 -1.3771  0.9036  0.1505
  106OSM    H7G10862   2.270   0.988   9.861 -0.1074  1.1236  0.7246
  106OSM    C8F10863   2.196   1.089   9.672  0.1878 -0.0847 -0.8481
  106OSM    H8F10864   2.245   1.188   9.659  2.1843 -1.1046 -1.5148
  106OSM    H8G10865   2.090   1.098   9.640  0.2160  0.8541 -0.6903
  106OSM    C9F10866   2.270   0.993   9.593 -0.4851 -0.5951  0.0431
  106OSM    H9F10867   2.276   0.897   9.645 -1.7458 -0.3675  0.6369
  106OSM   C10F10868   2.332   1.018   9.479 -0.6469 -0.1885 -0.0974
  106OSM   H10F10869   2.392   0.939   9.432 -2.7976 -1.2556 -1.1983
  106OSM   C11F10870   2.324   1.150   9.410  0.2602  0.6328 -0.5120
  106OSM   H11F10871   2.427   1.174   9.377  0.2573  1.7060  0.2282
  106OSM   H11G10872   2.289   1.231   9.476  1.0106  0.2195  0.4075
  106OSM   C12F10873   2.231   1.150   9.288  0.5836 -0.1396  0.3161
  106OSM   H12F10874   2.226   1.255   9.251 -0.0231 -0.5293 -0.7595
  106OSM   H12G10875   2.128   1.108   9.294  0.5970 -0.4247 -1.1065
  106OSM   C13F10876   2.287   1.071   9.161 -0.2550  0.6949 -0.4583
  106OSM   H13F10877   2.311   0.967   9.188 -1.3270 -0.0299 -2.1081
  106OSM   H13G10878   2.380   1.124   9.129  0.5750 -0.8832 -0.7254
  106OSM   C14F10879   2.185   1.072   9.045  0.5628 -0.0345  0.5202
  106OSM   H14F10880   2.184   1.179   9.015  2.1039  0.6445  2.7087
  106OSM   H14G10881   2.091   1.040   9.096  1.9498 -0.0405  3.2514
  106OSM   C15F10882   2.213   0.987   8.919 -0.2110 -0.0349  0.5515
  106OSM   H15F10883   2.311   1.014   8.874  1.0111  0.8044  3.4686
  106OSM   H15G10884   2.148   1.020   8.835  1.3745  1.9240  0.0161
  106OSM   C16F10885   2.207   0.834   8.957 -0.4110 -0.0674  0.7089
  106OSM   H16F10886   2.103   0.802   8.980 -0.7230  1.6624  1.9020
  106OSM   H16G10887   2.281   0.805   9.034 -1.1214 -1.3145  0.9506
  106OSM   C17F10888   2.247   0.751   8.833 -0.4532  0.0991 -0.0868
  106OSM   H17F10889   2.346   0.775   8.788 -1.0903  0.3920 -1.3485
  106OSM   H17G10890   2.172   0.759   8.752 -3.0446 -2.5598  1.8378
  106OSM   C18F10891   2.253   0.597   8.860 -0.2069 -0.1271  0.1701
  106OSM   H18F10892   2.324   0.568   8.940  0.6935  1.5470  0.0174
  106OSM   H18G10893   2.278   0.554   8.761 -1.3869 -0.5808  0.0496
  106OSM   H18H10894   2.151   0.559   8.882  0.2340 -2.5366 -1.5487
  107OSM      N10895   4.420   4.967  11.249  0.1154  1.3933 -0.3020
  107OSM    C1510896   4.556   4.960  11.306  0.0239  0.1794  0.3671
  107OSM   H15A10897   4.602   4.863  11.295 -0.4925  0.0794 -1.2059
  107OSM   H15B10898   4.548   4.998  11.407 -2.0203  2.8789 -0.6974
  107OSM   H15C10899   4.614   5.029  11.246 -1.6937  1.0275 -0.3721
  107OSM    C1410900   4.325   4.891  11.351 -0.4318 -0.8568  0.1618
  107OSM   H14A10901   4.351   4.787  11.363 -0.5811 -1.0215 -0.9200
  107OSM   H14B10902   4.223   4.904  11.319 -0.3628  0.0954  0.3136
  107OSM   H14C10903   4.328   4.932  11.451 -1.4295  2.6803 -1.1051
  107OSM    C1310904   4.373   5.099  11.245  0.3519 -0.2261 -0.8491
  107OSM   H13A10905   4.430   5.156  11.173  0.4132 -0.2802 -0.8433
  107OSM   H13B10906   4.391   5.152  11.338 -1.8915  0.1656 -0.5735
  107OSM   H13C10907   4.267   5.106  11.225  0.5732  0.6807 -1.7662
  107OSM    C1210908   4.413   4.894  11.119 -0.3118  0.4220 -0.5002
  107OSM   H12A10909   4.308   4.890  11.091 -0.5993  1.8964  0.2794
  107OSM   H12B10910   4.456   4.796  11.134 -0.9264  0.2827  0.5188
  107OSM    C1110911   4.490   4.954  11.000 -0.0370 -0.0082  0.0322
  107OSM   H11A10912   4.467   5.062  11.003  2.5523  0.5890  1.1133
  107OSM   H11B10913   4.457   4.917  10.901 -0.4366  2.7207 -0.9357
  107OSM      P10914   4.711   4.816  11.000 -0.1671 -0.5072  0.0124
  107OSM    O1310915   4.851   4.848  11.015 -0.1961 -0.2226 -0.0368
  107OSM    O1410916   4.658   4.705  11.079  0.2124 -1.2886  0.0920
  107OSM    O1110917   4.674   4.801  10.853  0.8106  0.1249  0.3743
  107OSM    O1210918   4.628   4.939  11.036 -1.0473 -0.5901 -0.1311
  107OSM    C1S10919   4.716   4.891  10.751 -0.3650 -0.6539 -0.0330
  107OSM    H1S10920   4.798   4.961  10.779  0.8572 -2.1048  0.1842
  107OSM    H1T10921   4.628   4.946  10.713  0.5560  2.6810  2.1658
  107OSM     NF10922   4.830   4.890  10.529 -0.2949 -0.7344  0.4434
  107OSM    HNF10923   4.772   4.892  10.447 -2.1371 -1.8776  1.6451
  107OSM    C2S10924   4.774   4.805  10.631 -0.3365  0.1103  0.0039
  107OSM    H2S10925   4.851   4.732  10.664 -0.7593 -1.1413 -1.6435
  107OSM    C3S10926   4.660   4.722  10.578  0.3029  0.6958  0.6237
  107OSM    H3S10927   4.571   4.784  10.557 -1.9800 -1.3169  3.3978
  107OSM     O310928   4.603   4.641  10.677  0.2286  0.4194 -0.5238
  107OSM    HO310929   4.622   4.677  10.764  0.2171  0.2541 -0.4528
  107OSM    C4S10930   4.708   4.637  10.466 -0.1184  0.1832  0.1562
  107OSM    H4S10931   4.782   4.563  10.499  0.3073  0.5827  0.0922
  107OSM    C5S10932   4.665   4.648  10.342  0.7674  0.0993  0.4220
  107OSM    H5S10933   4.581   4.713  10.315 -1.1956 -2.4083  0.0738
  107OSM    C6S10934   4.709   4.580  10.219  0.6752  0.7579  0.4057
  107OSM    H6S10935   4.626   4.573  10.145  0.4100  1.2079  0.6474
  107OSM    H6T10936   4.748   4.481  10.248  0.4896  0.9097  1.1956
  107OSM    C7S10937   4.822   4.665  10.155 -0.2290  0.3534  0.2389
  107OSM    H7S10938   4.902   4.681  10.231 -0.3109  0.4657  0.3037
  107OSM    H7T10939   4.783   4.767  10.135  1.3846  1.4579  2.3319
  107OSM    C8S10940   4.867   4.594  10.023 -0.2791 -0.6096 -0.1967
  107OSM    H8S10941   4.781   4.589   9.953 -0.1024  1.0216 -0.5806
  107OSM    H8T10942   4.907   4.493  10.048 -2.0036 -1.1501  0.5346
  107OSM    C9S10943   4.978   4.682   9.956  0.5457 -0.7509  0.1551
  107OSM    H9S10944   5.073   4.664  10.009  0.9475 -1.0096 -0.6431
  107OSM    H9T10945   4.952   4.791   9.952 -0.7273 -1.0652 -1.7584
  107OSM   C10S10946   4.999   4.663   9.803  0.2357  1.1470  0.8876
  107OSM   H10S10947   5.086   4.721   9.764  1.2949 -0.7230  0.3375
  107OSM   H10T10948   4.906   4.696   9.752  1.8406  1.3499 -2.1465
  107OSM   C11S10949   5.030   4.514   9.766  1.1383 -0.3818 -0.2919
  107OSM   H11S10950   4.951   4.460   9.823 -0.2205  1.8970  0.0953
  107OSM   H11T10951   5.127   4.476   9.805  1.4482 -0.6550 -1.3006
  107OSM   C12S10952   5.024   4.484   9.617 -0.1072  0.5348  1.2723
  107OSM   H12S10953   4.923   4.464   9.575 -0.7189  0.6085  2.6671
  107OSM   H12T10954   5.083   4.391   9.599 -1.6229 -0.3892  0.8621
  107OSM   C13S10955   5.093   4.590   9.530  0.1947 -0.2935 -0.3474
  107OSM   H13S10956   5.194   4.603   9.575  0.4989 -0.7187 -0.8967
  107OSM   H13T10957   5.035   4.681   9.554 -0.4735 -1.3925  2.7676
  107OSM   C14S10958   5.105   4.554   9.383  0.4590 -0.0966  0.0338
  107OSM   H14S10959   5.003   4.562   9.339  0.3578  0.1167  0.3074
  107OSM   H14T10960   5.131   4.446   9.382  2.1546  0.2365  1.6362
  107OSM   C15S10961   5.199   4.638   9.296 -0.3895 -0.1375  0.2300
  107OSM   H15S10962   5.299   4.630   9.344 -1.2436  0.5517  2.2230
  107OSM   H15T10963   5.165   4.743   9.294 -1.6468 -0.4932  1.2471
  107OSM   C16S10964   5.214   4.574   9.163 -0.7442  0.1172  0.0386
  107OSM   H16S10965   5.124   4.516   9.134 -0.6913  0.2534 -0.3951
  107OSM   H16T10966   5.308   4.514   9.161 -1.5701 -1.2026 -1.2219
  107OSM   C17S10967   5.241   4.684   9.048 -0.2679 -0.3952 -0.8382
  107OSM   H17S10968   5.345   4.723   9.054  0.1332 -1.6388  2.0510
  107OSM   H17T10969   5.171   4.770   9.059 -2.5777 -1.4208 -5.1291
  107OSM   C18S10970   5.206   4.627   8.908 -0.6067  0.1809  0.6583
  107OSM   H18S10971   5.100   4.595   8.900 -0.9554  1.5155 -0.4321
  107OSM   H18T10972   5.259   4.533   8.882 -0.6456  0.5576 -0.8686
  107OSM   H18U10973   5.221   4.694   8.821 -2.5890 -2.1192 -1.6062
  107OSM    C1F10974   4.952   4.944  10.539  0.9520 -0.6947 -0.6334
  107OSM     OF10975   5.010   4.962  10.651  0.5164 -0.2749 -0.5493
  107OSM    C2F10976   5.018   4.975  10.408 -0.0517 -1.1230 -1.0269
  107OSM    H2F10977   4.936   5.010  10.342 -0.4951 -2.0949 -1.0019
  107OSM    H2G10978   5.061   4.879  10.373 -0.5920 -1.0258 -2.0122
  107OSM    C3F10979   5.129   5.088  10.416  0.2174 -0.4996  0.5128
  107OSM    H3F10980   5.201   5.046  10.490  0.0009 -0.1355  0.9373
  107OSM    H3G10981   5.081   5.178  10.460  0.8500  0.6695 -1.1056
  107OSM    C4F10982   5.204   5.118  10.279 -0.1761 -0.6583  0.2425
  107OSM    H4F10983   5.230   5.018  10.238 -1.9288 -1.0849  0.0792
  107OSM    H4G10984   5.298   5.177  10.282  0.3521 -1.4859  0.4988
  107OSM    C5F10985   5.117   5.191  10.173 -0.2564 -0.2002 -0.0315
  107OSM    H5F10986   5.082   5.288  10.215 -0.7730 -0.1851 -0.4918
  107OSM    H5G10987   5.026   5.130  10.152 -0.3025  0.1897 -1.0118
  107OSM    C6F10988   5.177   5.222  10.039  0.7955 -0.5922  0.2077
  107OSM    H6F10989   5.285   5.247  10.050  0.4573  1.1077 -0.1357
  107OSM    H6G10990   5.121   5.307   9.996  0.6497 -0.0798  1.3635
  107OSM    C7F10991   5.178   5.096   9.944 -0.0863 -0.4332 -0.0967
  107OSM    H7F10992   5.083   5.098   9.886 -0.6404  0.1254  0.8029
  107OSM    H7G10993   5.178   5.000  10.000 -2.6891 -1.3462 -1.4869
  107OSM    C8F10994   5.290   5.105   9.836 -0.1140 -0.3409  0.0919
  107OSM    H8F10995   5.311   5.009   9.785 -3.1253 -0.5774 -0.9147
  107OSM    H8G10996   5.384   5.138   9.886  0.0546 -0.2465 -0.2830
  107OSM    C9F10997   5.257   5.210   9.734 -0.0698  0.5384 -0.2421
  107OSM    H9F10998   5.270   5.312   9.772 -1.7058 -0.0014  1.9533
  107OSM   C10F10999   5.200   5.186   9.616  0.4783  0.0552 -0.0747
  107OSM   H10F11000   5.186   5.273   9.549 -0.2204  0.4765  0.6088
  107OSM   C11F11001   5.146   5.058   9.552 -0.4875 -0.4117  0.1695
  107OSM   H11F11002   5.036   5.063   9.538 -0.2491  2.4032 -1.5767
  107OSM   H11G11003   5.166   4.973   9.621 -0.2703  0.4246  1.1554
  107OSM   C12F11004   5.213   5.037   9.416 -0.5701  0.1094  0.7371
  107OSM   H12F11005   5.190   4.933   9.384 -0.1149  0.8162 -2.1839
  107OSM   H12G11006   5.323   5.048   9.425 -0.6360  0.6114  0.9983
  107OSM   C13F11007   5.178   5.127   9.302  0.2005  0.0360 -0.1121
  107OSM   H13F11008   5.216   5.226   9.337 -1.0347  0.2125  0.7703
  107OSM   H13G11009   5.069   5.146   9.292 -0.3977 -2.5816  0.6962
  107OSM   C14F11010   5.238   5.085   9.159  0.0901  0.2007 -1.0366
  107OSM   H14F11011   5.210   4.983   9.124 -2.6049  1.0933 -1.6982
  107OSM   H14G11012   5.349   5.090   9.167  0.0626  0.7484 -1.0085
  107OSM   C15F11013   5.197   5.178   9.043  0.5441  0.2160 -0.1362
  107OSM   H15F11014   5.217   5.284   9.069 -0.8658  0.8362 -1.4136
  107OSM   H15G11015   5.088   5.187   9.027  0.8331 -1.2888 -4.2193
  107OSM   C16F11016   5.264   5.147   8.906  0.0644  0.0015  0.3732
  107OSM   H16F11017   5.217   5.050   8.880 -3.3782  0.7923  2.8778
  107OSM   H16G11018   5.374   5.149   8.923  0.4823  3.2474 -1.8522
  107OSM   C17F11019   5.231   5.256   8.796 -0.3378 -0.1290  0.1189
  107OSM   H17F11020   5.228   5.359   8.838 -0.2466  0.5742 -1.5210
  107OSM   H17G11021   5.129   5.236   8.756 -0.8700  0.3692  1.1753
  107OSM   C18F11022   5.339   5.255   8.690 -0.1235  0.1754  0.0515
  107OSM   H18F11023   5.439   5.265   8.737  0.2267 -1.5184 -0.2717
  107OSM   H18G11024   5.323   5.327   8.607 -1.1220 -2.1010 -1.8422
  107OSM   H18H11025   5.350   5.153   8.648 -1.2422 -0.7454  1.8450
  108OSM      N11026   1.074   6.146  10.951 -0.7432  0.3896  0.0061
  108OSM    C1511027   1.165   6.055  11.029  0.2584  0.9296  0.5553
  108OSM   H15A11028   1.249   6.038  10.963 -1.5652  2.4391 -2.3443
  108OSM   H15B11029   1.118   5.959  11.047  1.2515  0.5725  1.3646
  108OSM   H15C11030   1.198   6.103  11.120 -0.1761  2.0412  0.1387
  108OSM    C1411031   0.947   6.165  11.036 -0.4159  0.1777  0.0734
  108OSM   H14A11032   0.982   6.192  11.134  2.4599  0.2086 -0.8738
  108OSM   H14B11033   0.888   6.075  11.046  0.2111 -0.1191  1.2159
  108OSM   H14C11034   0.887   6.239  10.984 -0.0141 -1.0053 -2.2026
  108OSM    C1311035   1.148   6.279  10.947  0.1670 -0.2021 -0.2906
  108OSM   H13A11036   1.243   6.285  10.896  0.6415  2.4888  0.7477
  108OSM   H13B11037   1.176   6.302  11.048  0.9801  2.1564 -1.0045
  108OSM   H13C11038   1.085   6.352  10.899  0.7195 -0.3015 -1.1842
  108OSM    C1211039   1.046   6.093  10.816  0.2770 -0.6898  0.3558
  108OSM   H12A11040   0.988   6.003  10.818  0.6770 -0.9865 -0.5814
  108OSM   H12B11041   1.141   6.056  10.780  0.0216 -0.1295 -0.9498
  108OSM    C1111042   0.983   6.185  10.711  0.1503  0.2537 -0.4840
  108OSM   H11A11043   0.997   6.143  10.609  0.3275 -0.2131 -0.2734
  108OSM   H11B11044   1.033   6.284  10.702 -1.2907  0.9316 -1.2841
  108OSM      P11045   0.734   6.110  10.704  0.2101 -0.2164 -0.2179
  108OSM    O1311046   0.765   5.986  10.774 -0.0857  0.3413 -0.0283
  108OSM    O1411047   0.595   6.159  10.711  0.0836  0.5566 -0.7372
  108OSM    O1111048   0.763   6.088  10.554 -0.1223  0.1780  0.4587
  108OSM    O1211049   0.842   6.216  10.744  0.0952 -0.2066  0.8459
  108OSM    C1S11050   0.772   6.190  10.454  0.0720  0.8230  0.2509
  108OSM    H1S11051   0.872   6.239  10.454  0.5139 -0.0162 -0.9998
  108OSM    H1T11052   0.692   6.264  10.476  0.4601  1.4240 -0.2997
  108OSM     NF11053   0.772   6.232  10.211  0.1100 -0.3876 -0.6170
  108OSM    HNF11054   0.693   6.264  10.159  0.4368 -1.1267 -1.5927
  108OSM    C2S11055   0.748   6.131  10.308 -0.0203 -0.6719  0.2481
  108OSM    H2S11056   0.815   6.044  10.292  0.2632 -0.1763 -1.6065
  108OSM    C3S11057   0.608   6.071  10.297  0.1724 -0.0276  0.5659
  108OSM    H3S11058   0.532   6.152  10.305 -2.8718 -2.8127  1.7658
  108OSM     O311059   0.577   5.989  10.410 -0.4293 -0.5559 -0.4378
  108OSM    HO311060   0.636   6.008  10.483 -1.6199  1.3670  0.1031
  108OSM    C4S11061   0.584   6.003  10.166 -0.5879 -0.3957  0.4108
  108OSM    H4S11062   0.529   6.068  10.097 -1.5568 -2.3436 -0.7599
  108OSM    C5S11063   0.623   5.880  10.129  0.1925 -0.7960 -0.3297
  108OSM    H5S11064   0.699   5.834  10.194  0.8626  0.3108 -0.3094
  108OSM    C6S11065   0.607   5.811   9.996  0.5508  0.2815 -0.3833
  108OSM    H6S11066   0.553   5.715  10.005  0.9055  0.1848  0.7840
  108OSM    H6T11067   0.712   5.789   9.964  0.0961 -2.3819 -0.2572
  108OSM    C7S11068   0.543   5.892   9.883  0.0656  0.3883 -0.3341
  108OSM    H7S11069   0.588   5.992   9.863  1.6778  0.2890  2.3082
  108OSM    H7T11070   0.434   5.900   9.900 -0.5197 -2.8271 -1.8056
  108OSM    C8S11071   0.548   5.816   9.746 -0.4910  0.5598 -0.0089
  108OSM    H8S11072   0.501   5.717   9.765 -0.1257  0.4513  0.3583
  108OSM    H8T11073   0.655   5.796   9.722  0.2716  1.2760  2.4364
  108OSM    C9S11074   0.495   5.900   9.636 -0.1136 -0.0172  0.2106
  108OSM    H9S11075   0.559   5.990   9.627  1.8167 -1.3729 -0.0305
  108OSM    H9T11076   0.386   5.924   9.644 -0.3886 -0.5641 -1.4319
  108OSM   C10S11077   0.500   5.832   9.493  0.3359  0.3944 -0.3794
  108OSM   H10S11078   0.414   5.766   9.469  0.3413  0.6138 -1.0399
  108OSM   H10T11079   0.600   5.788   9.473  0.2648 -0.4527  1.0564
  108OSM   C11S11080   0.488   5.942   9.385  0.1249 -0.5359  0.1712
  108OSM   H11S11081   0.585   5.997   9.393 -1.2675  1.9186  1.3617
  108OSM   H11T11082   0.408   6.015   9.410  0.6402 -0.0975  0.5742
  108OSM   C12S11083   0.449   5.899   9.242  0.4228  0.4531 -0.2720
  108OSM   H12S11084   0.345   5.859   9.241  0.2028  0.9224  1.2649
  108OSM   H12T11085   0.523   5.819   9.219  1.0084  0.9075 -0.0042
  108OSM   C13S11086   0.461   6.011   9.140 -0.0361  0.1363  0.3907
  108OSM   H13S11087   0.563   6.054   9.150 -1.1753  2.9228  1.0946
  108OSM   H13T11088   0.402   6.098   9.177  0.3988  0.9749 -0.8172
  108OSM   C14S11089   0.444   5.966   8.992  0.1331  0.2326  0.2762
  108OSM   H14S11090   0.473   6.059   8.938  1.3994 -0.4885 -0.3281
  108OSM   H14T11091   0.338   5.954   8.959  1.2878 -1.2987 -3.3638
  108OSM   C15S11092   0.530   5.854   8.926  0.2342 -0.7946 -0.1720
  108OSM   H15S11093   0.494   5.749   8.924  0.9702 -1.1299 -4.5361
  108OSM   H15T11094   0.618   5.856   8.994  1.0333 -1.1677 -1.1714
  108OSM   C16S11095   0.578   5.897   8.783  0.5624 -0.2800 -0.4657
  108OSM   H16S11096   0.612   6.003   8.782  1.1135 -0.4481 -0.0768
  108OSM   H16T11097   0.495   5.889   8.710  2.9224  0.8353 -3.5064
  108OSM   C17S11098   0.687   5.815   8.714 -0.0600 -0.0405  0.5376
  108OSM   H17S11099   0.650   5.711   8.699 -0.9476  0.4023 -0.4169
  108OSM   H17T11100   0.785   5.807   8.766  1.1726 -0.4678 -1.7260
  108OSM   C18S11101   0.725   5.876   8.581  0.3992 -0.7928  0.1101
  108OSM   H18S11102   0.627   5.913   8.544  0.3831 -1.4452 -0.5357
  108OSM   H18T11103   0.759   5.808   8.500  0.4021  0.3954 -0.9052
  108OSM   H18U11104   0.799   5.958   8.587 -1.8796  1.3856  0.4562
  108OSM    C1F11105   0.894   6.282  10.209 -0.6830 -0.7207  0.8114
  108OSM     OF11106   0.989   6.219  10.255  0.0034 -0.2220  0.4411
  108OSM    C2F11107   0.913   6.413  10.127  0.0985  0.6432  0.6307
  108OSM    H2F11108   0.879   6.506  10.178 -2.2480  1.1505 -1.6538
  108OSM    H2G11109   0.841   6.396  10.044  0.7148  1.6537 -0.1302
  108OSM    C3F11110   1.055   6.431  10.061  0.5975 -0.3384  0.3149
  108OSM    H3F11111   1.115   6.470  10.146  0.0832 -0.1614  0.5948
  108OSM    H3G11112   1.043   6.522   9.999 -3.3424  0.6782  2.2561
  108OSM    C4F11113   1.109   6.313   9.976 -0.3089 -0.1308  0.0206
  108OSM    H4F11114   1.042   6.273   9.897 -0.7582 -0.7832  0.7216
  108OSM    H4G11115   1.135   6.227  10.041  0.6887  0.1526  0.0051
  108OSM    C5F11116   1.236   6.352   9.900  0.0438 -0.4805 -0.0028
  108OSM    H5F11117   1.317   6.278   9.890  1.0918  0.7505 -0.9965
  108OSM    H5G11118   1.290   6.425   9.965 -2.4311  0.0048  1.6465
  108OSM    C6F11119   1.209   6.407   9.757 -0.4956  0.2902 -0.1540
  108OSM    H6F11120   1.141   6.494   9.768  0.7829  1.1173  1.7133
  108OSM    H6G11121   1.153   6.340   9.688 -0.8271 -1.0828  1.3936
  108OSM    C7F11122   1.336   6.471   9.692 -0.0103  0.5256 -0.1169
  108OSM    H7F11123   1.417   6.394   9.690  1.5851  2.1391 -0.0684
  108OSM    H7G11124   1.378   6.555   9.751  1.0757  0.6288 -1.0099
  108OSM    C8F11125   1.306   6.506   9.545  0.5122  0.2330  0.0260
  108OSM    H8F11126   1.293   6.407   9.497  2.4693  0.0342 -0.1624
  108OSM    H8G11127   1.402   6.550   9.510 -0.7575  1.8564 -1.6005
  108OSM    C9F11128   1.199   6.604   9.511  0.0065  0.6948  0.8193
  108OSM    H9F11129   1.154   6.659   9.595 -1.2454 -0.1397  0.7120
  108OSM   C10F11130   1.142   6.623   9.388  0.2705 -0.2919  0.0396
  108OSM   H10F11131   1.070   6.706   9.384  0.5177  0.0005  1.2748
  108OSM   C11F11132   1.170   6.555   9.263  0.1411 -0.3038  0.8990
  108OSM   H11F11133   1.073   6.553   9.209 -0.0059  0.1752  1.1389
  108OSM   H11G11134   1.193   6.447   9.276 -3.2941 -1.0516  1.5824
  108OSM   C12F11135   1.262   6.623   9.159 -0.3797 -0.2023  0.2604
  108OSM   H12F11136   1.368   6.617   9.192 -0.1098  3.4169  0.4171
  108OSM   H12G11137   1.235   6.730   9.153 -0.7682 -0.3025  0.2301
  108OSM   C13F11138   1.245   6.555   9.016  0.3667 -0.1549  0.6090
  108OSM   H13F11139   1.136   6.559   8.991  0.3491 -0.9802  0.5433
  108OSM   H13G11140   1.276   6.449   9.016  0.5571 -0.1368 -1.3378
  108OSM   C14F11141   1.331   6.640   8.910  0.1952  0.3473 -0.0169
  108OSM   H14F11142   1.440   6.629   8.925  0.5693 -3.6934 -3.7379
  108OSM   H14G11143   1.312   6.749   8.918 -0.3136  0.1296  2.8982
  108OSM   C15F11144   1.315   6.599   8.763 -0.0655  0.2687 -0.5641
  108OSM   H15F11145   1.206   6.584   8.747  0.1566 -0.1073 -1.7763
  108OSM   H15G11146   1.366   6.504   8.739  0.5027  0.0485  1.3584
  108OSM   C16F11147   1.373   6.705   8.665  0.0080  0.1108 -0.2931
  108OSM   H16F11148   1.474   6.739   8.696  0.2582 -0.8995  0.0539
  108OSM   H16G11149   1.304   6.791   8.676  0.3309  0.2230  1.1290
  108OSM   C17F11150   1.371   6.660   8.524  0.0049  0.2034  0.3864
  108OSM   H17F11151   1.266   6.653   8.489  0.1610  1.1311 -0.3050
  108OSM   H17G11152   1.413   6.558   8.531 -0.1292 -0.0089 -1.4414
  108OSM   C18F11153   1.453   6.733   8.424  0.4583 -0.1985 -0.4449
  108OSM   H18F11154   1.553   6.753   8.470 -0.9611  2.0698  1.9829
  108OSM   H18G11155   1.408   6.833   8.406 -1.4946 -0.8688  0.4370
  108OSM   H18H11156   1.465   6.675   8.331  0.9598 -1.0869  0.1575
  109OSM      N11157   0.452   5.773  10.771 -0.5299  0.9761 -0.2094
  109OSM    C1511158   0.512   5.867  10.878  0.8621  1.1428 -0.1248
  109OSM   H15A11159   0.436   5.938  10.908 -1.0547 -1.2468  1.0714
  109OSM   H15B11160   0.591   5.929  10.839  3.5869 -0.7770  1.8669
  109OSM   H15C11161   0.542   5.816  10.969 -0.6075  1.3733  0.5259
  109OSM    C1411162   0.378   5.859  10.675  0.2445 -0.0848  0.4933
  109OSM   H14A11163   0.322   5.804  10.601 -0.2032  0.9161  0.0573
  109OSM   H14B11164   0.447   5.924  10.622  0.4162 -0.9054 -0.3183
  109OSM   H14C11165   0.299   5.914  10.725  0.1479 -0.0644  0.3222
  109OSM    C1311166   0.572   5.709  10.700 -0.1510 -0.0733 -0.1863
  109OSM   H13A11167   0.650   5.778  10.674  1.0336 -0.9900  0.8100
  109OSM   H13B11168   0.531   5.661  10.612 -0.0187 -0.4638 -0.0384
  109OSM   H13C11169   0.618   5.636  10.765  0.8057  1.5049  0.9559
  109OSM    C1211170   0.358   5.673  10.831 -0.4176  0.2020  0.6944
  109OSM   H12A11171   0.269   5.723  10.867 -1.9761 -0.5568 -1.8217
  109OSM   H12B11172   0.407   5.617  10.908  0.3386 -0.5766 -0.3179
  109OSM    C1111173   0.304   5.570  10.728  0.0196  0.4486 -0.5562
  109OSM   H11A11174   0.256   5.494  10.793  2.7511 -1.2666 -0.3755
  109OSM   H11B11175   0.383   5.512  10.676  0.6308 -1.2029  2.0466
  109OSM      P11176   0.057   5.618  10.652 -0.6429  0.0681  0.0334
  109OSM    O1311177   0.008   5.483  10.689  0.1797 -0.2177  0.5762
  109OSM    O1411178   0.033   5.718  10.758 -0.4946  0.7947 -0.0132
  109OSM    O1111179  -0.003   5.678  10.522  0.0908 -0.2444 -0.4666
  109OSM    O1211180   0.220   5.628  10.630  0.5126  0.3447 -0.0915
  109OSM    C1S11181   0.005   5.812  10.475  0.5003 -0.3606  0.7070
  109OSM    H1S11182   0.096   5.862  10.515  2.3105 -1.7911 -1.3443
  109OSM    H1T11183  -0.079   5.872  10.516  0.8735 -0.1995  1.2411
  109OSM     NF11184   0.002   5.944  10.280  0.3868 -0.4292  0.4965
  109OSM    HNF11185  -0.082   5.981  10.242  0.7552  0.7688  0.7966
  109OSM    C2S11186  -0.001   5.812  10.320  0.5925  0.5786 -0.3757
  109OSM    H2S11187   0.086   5.759  10.277  0.1799  0.7096 -1.3881
  109OSM    C3S11188  -0.133   5.737  10.267 -0.1237 -0.2480  0.4687
  109OSM    H3S11189  -0.227   5.786  10.302  0.9326  3.9544 -1.8886
  109OSM     O311190  -0.143   5.605  10.309 -0.3936  0.3010 -0.2971
  109OSM    HO311191  -0.103   5.604  10.396 -3.1100 -0.5380  1.0492
  109OSM    C4S11192  -0.130   5.736  10.114 -0.0992 -0.4299  0.2262
  109OSM    H4S11193  -0.066   5.653  10.078 -1.5156 -1.6869  0.4909
  109OSM    C5S11194  -0.211   5.805  10.030  0.8559  1.2414 -1.0935
  109OSM    H5S11195  -0.282   5.880  10.069  0.4511  0.2895  0.0648
  109OSM    C6S11196  -0.207   5.806   9.880  0.6986 -0.3386  0.3638
  109OSM    H6S11197  -0.106   5.770   9.848 -0.4023 -2.6499 -0.7772
  109OSM    H6T11198  -0.213   5.904   9.830  0.3744 -1.0608 -1.0677
  109OSM    C7S11199  -0.308   5.702   9.822  0.1512 -0.0875 -1.1169
  109OSM    H7S11200  -0.409   5.748   9.831 -0.0587 -0.6948 -0.2657
  109OSM    H7T11201  -0.312   5.613   9.888 -1.6945 -0.9154 -2.2805
  109OSM    C8S11202  -0.278   5.672   9.672 -0.6227  0.2623  0.5375
  109OSM    H8S11203  -0.353   5.595   9.645 -1.1916  1.3804 -1.2319
  109OSM    H8T11204  -0.175   5.629   9.675 -1.0253 -0.8907 -1.1827
  109OSM    C9S11205  -0.287   5.788   9.573 -0.0461  0.3391 -0.0107
  109OSM    H9S11206  -0.244   5.881   9.617 -0.0524  0.3940 -0.1191
  109OSM    H9T11207  -0.395   5.811   9.560  0.0574 -0.3865 -2.8282
  109OSM   C10S11208  -0.219   5.750   9.441 -0.3335  0.3619 -0.7176
  109OSM   H10S11209  -0.116   5.717   9.468 -1.1081 -0.0850  2.0788
  109OSM   H10T11210  -0.201   5.841   9.381  3.2913  0.4819  0.3351
  109OSM   C11S11211  -0.296   5.648   9.358 -0.3965 -0.1014  0.0542
  109OSM   H11S11212  -0.396   5.689   9.333 -0.5982 -1.2222 -1.1399
  109OSM   H11T11213  -0.296   5.553   9.416 -0.2959 -0.8718 -1.1524
  109OSM   C12S11214  -0.228   5.609   9.227 -0.1216  0.3651 -0.3658
  109OSM   H12S11215  -0.290   5.524   9.191 -2.3435  1.0984  1.4840
  109OSM   H12T11216  -0.130   5.565   9.257 -0.4366 -1.1643 -1.4551
  109OSM   C13S11217  -0.218   5.716   9.124 -0.0189 -0.1098 -0.4485
  109OSM   H13S11218  -0.131   5.778   9.154  0.0037  0.2999 -1.3172
  109OSM   H13T11219  -0.308   5.781   9.117 -0.5497 -0.8447 -0.5282
  109OSM   C14S11220  -0.187   5.657   8.987  0.0195  0.2743  0.1656
  109OSM   H14S11221  -0.272   5.592   8.959  0.4125 -0.2706  0.2342
  109OSM   H14T11222  -0.101   5.588   9.000  1.7406  2.3780  0.6254
  109OSM   C15S11223  -0.157   5.764   8.881  0.4941  0.0186 -0.0896
  109OSM   H15S11224  -0.158   5.712   8.783  0.2749 -1.6309  0.7498
  109OSM   H15T11225  -0.053   5.798   8.899 -0.5325  2.9869  0.7208
  109OSM   C16S11226  -0.244   5.888   8.878  0.3454 -0.8022 -1.0914
  109OSM   H16S11227  -0.265   5.925   8.980  2.5341 -2.7084  0.1365
  109OSM   H16T11228  -0.345   5.859   8.844 -1.0047  1.2633  0.8876
  109OSM   C17S11229  -0.185   5.995   8.788 -0.2127  0.3784  0.7590
  109OSM   H17S11230  -0.267   6.068   8.769 -1.7628 -1.1937  1.1594
  109OSM   H17T11231  -0.175   5.947   8.688 -1.6581 -0.2039  0.8753
  109OSM   C18S11232  -0.052   6.055   8.830 -0.9574 -0.2812 -0.8515
  109OSM   H18S11233   0.030   5.981   8.841  0.6965  1.6606  0.4370
  109OSM   H18T11234  -0.062   6.103   8.929 -1.2200  0.3284 -1.1629
  109OSM   H18U11235  -0.016   6.125   8.751  2.3077 -0.7767  0.0557
  109OSM    C1F11236   0.102   6.029  10.283  0.1751  0.0321 -0.3606
  109OSM     OF11237   0.210   5.996  10.335  0.3525  0.4337 -0.0146
  109OSM    C2F11238   0.089   6.162  10.226 -0.9874  0.6723 -0.4259
  109OSM    H2F11239   0.084   6.239  10.306  1.0434  0.9539 -0.5004
  109OSM    H2G11240   0.004   6.165  10.155  0.3556  0.1112 -2.1123
  109OSM    C3F11241   0.223   6.197  10.148  0.9908 -0.0543 -0.1765
  109OSM    H3F11242   0.305   6.178  10.221 -0.6377 -3.0559  1.0698
  109OSM    H3G11243   0.238   6.307  10.142  1.4910 -0.1730 -1.1927
  109OSM    C4F11244   0.237   6.136  10.011  0.0214 -0.0166  0.0674
  109OSM    H4F11245   0.224   6.026  10.018 -0.0419 -0.2740 -2.7172
  109OSM    H4G11246   0.341   6.159   9.979 -0.9452  3.1458 -1.1906
  109OSM    C5F11247   0.145   6.202   9.909  1.1411  0.5858 -0.7320
  109OSM    H5F11248   0.160   6.312   9.919  1.3771  0.3458  2.3795
  109OSM    H5G11249   0.040   6.184   9.939  2.2454 -0.4646  2.9868
  109OSM    C6F11250   0.167   6.174   9.760  0.3675  0.1314  0.2818
  109OSM    H6F11251   0.276   6.156   9.749  0.5217  1.7324 -1.2004
  109OSM    H6G11252   0.130   6.260   9.700  1.5469  0.2428 -0.3149
  109OSM    C7F11253   0.089   6.048   9.719  0.7639  0.3145 -0.3674
  109OSM    H7F11254  -0.011   6.061   9.765  0.8861  1.1978 -0.3448
  109OSM    H7G11255   0.134   5.959   9.769  0.8150 -1.3839 -3.2228
  109OSM    C8F11256   0.066   6.011   9.570 -0.3147  0.2700  0.2970
  109OSM    H8F11257   0.012   5.915   9.559 -1.3068  0.4935  2.5834
  109OSM    H8G11258   0.160   6.005   9.512 -0.4109  0.4688  0.1173
  109OSM    C9F11259  -0.013   6.125   9.511 -0.6974 -0.6173 -0.6799
  109OSM    H9F11260  -0.057   6.200   9.578 -1.3028  0.0372 -1.7737
  109OSM   C10F11261  -0.014   6.160   9.383  0.7249  0.8060  0.7908
  109OSM   H10F11262  -0.084   6.239   9.352  1.2359  0.8358 -0.3259
  109OSM   C11F11263   0.039   6.085   9.269  0.2172 -0.2614  0.4594
  109OSM   H11F11264  -0.035   6.064   9.189  1.3408 -3.1828  0.0644
  109OSM   H11G11265   0.080   5.985   9.293  0.5887 -0.3119 -0.3383
  109OSM   C12F11266   0.141   6.175   9.193  0.1772  0.1397  0.1294
  109OSM   H12F11267   0.178   6.113   9.108  0.7717  0.4103  0.1876
  109OSM   H12G11268   0.229   6.208   9.252 -1.3060  3.5902  0.6644
  109OSM   C13F11269   0.089   6.307   9.129 -0.4594 -0.1644 -0.8174
  109OSM   H13F11270   0.084   6.392   9.200  0.7288 -0.6236 -0.1590
  109OSM   H13G11271  -0.016   6.283   9.099 -1.5009  1.6979  1.0655
  109OSM   C14F11272   0.168   6.357   9.005 -0.3850  0.0137  0.6978
  109OSM   H14F11273   0.184   6.265   8.946 -1.3977  0.9891 -1.1980
  109OSM   H14G11274   0.266   6.404   9.029 -0.9403  1.2584  0.6403
  109OSM   C15F11275   0.091   6.455   8.922  0.4386 -0.0962  0.7001
  109OSM   H15F11276   0.043   6.530   8.988  1.3642  0.1710  1.0966
  109OSM   H15G11277   0.012   6.393   8.875 -1.3175  3.9631 -2.2548
  109OSM   C16F11278   0.165   6.533   8.809  0.0347  0.3428 -0.7370
  109OSM   H16F11279   0.196   6.459   8.732  0.7201 -0.7885  0.5789
  109OSM   H16G11280   0.256   6.586   8.844  1.2601 -2.0349 -0.0630
  109OSM   C17F11281   0.076   6.631   8.729 -0.3257  0.3537  0.1588
  109OSM   H17F11282   0.122   6.731   8.712  0.8039 -0.6512 -3.4896
  109OSM   H17G11283  -0.012   6.656   8.791 -0.7242  3.2713 -1.4133
  109OSM   C18F11284   0.012   6.573   8.596 -0.4073  0.2108  0.1514
  109OSM   H18F11285  -0.070   6.641   8.565  0.3010  0.0977 -2.1058
  109OSM   H18G11286  -0.011   6.464   8.588  0.0351  0.0418  1.0442
  109OSM   H18H11287   0.088   6.586   8.517 -0.4607  1.8643  0.3512
  110OSM      N11288   3.303   4.909  11.267 -0.1142  0.8121 -0.3853
  110OSM    C1511289   3.389   5.031  11.261  0.3836 -0.3979  0.0827
  110OSM   H15A11290   3.488   5.002  11.228  0.1480  0.0858 -1.1074
  110OSM   H15B11291   3.408   5.078  11.357 -0.0321 -0.2043  0.0731
  110OSM   H15C11292   3.352   5.100  11.187  0.9916 -0.4595 -0.2893
  110OSM    C1411293   3.368   4.800  11.350 -0.3802 -0.0060  0.4202
  110OSM   H14A11294   3.384   4.835  11.451  0.1854 -2.5398  1.2821
  110OSM   H14B11295   3.467   4.777  11.314 -0.9101  1.4232 -2.2311
  110OSM   H14C11296   3.311   4.708  11.352  0.8941 -0.8149  0.5115
  110OSM    C1311297   3.183   4.952  11.344  0.4813 -0.2925 -0.6233
  110OSM   H13A11298   3.202   5.041  11.403  1.1784 -0.4212 -0.6488
  110OSM   H13B11299   3.147   4.872  11.406  0.5835 -0.1101 -0.3262
  110OSM   H13C11300   3.106   4.967  11.270  0.8133 -3.4208 -1.7163
  110OSM    C1211301   3.267   4.855  11.121  0.0760 -1.4217  0.1207
  110OSM   H12A11302   3.197   4.774  11.134  0.6933 -1.7201  1.9745
  110OSM   H12B11303   3.360   4.809  11.091  0.2095 -2.3945  1.8821
  110OSM    C1111304   3.211   4.952  11.023 -0.5403 -0.3046 -0.1566
  110OSM   H11A11305   3.213   4.913  10.919 -0.9053  4.3422 -2.1754
  110OSM   H11B11306   3.267   5.048  11.024 -0.7251 -0.1144  3.6996
  110OSM      P11307   2.964   4.875  11.041  0.3042 -0.1704 -0.0016
  110OSM    O1311308   3.005   4.758  11.115 -0.1891  0.3301  0.1754
  110OSM    O1411309   2.838   4.937  11.082 -0.2727  0.1032  0.1755
  110OSM    O1111310   2.964   4.849  10.888 -0.0269 -0.5265  0.6397
  110OSM    O1211311   3.076   4.988  11.062  0.5793  0.1607 -0.3486
  110OSM    C1S11312   2.990   4.953  10.789  0.5911 -0.1347  1.1511
  110OSM    H1S11313   3.052   5.038  10.824 -0.0606  1.3040 -0.9727
  110OSM    H1T11314   2.892   4.993  10.755  0.9000 -1.2592 -1.3095
  110OSM     NF11315   3.040   5.020  10.566 -0.1844 -0.8532  0.4296
  110OSM    HNF11316   2.960   5.052  10.516 -0.5535  0.9883  2.0508
  110OSM    C2S11317   3.034   4.903  10.648 -0.0570 -0.5522  0.4905
  110OSM    H2S11318   3.136   4.863  10.663 -1.0832 -3.8061 -0.4953
  110OSM    C3S11319   2.935   4.794  10.597 -0.1661 -0.2584  0.3372
  110OSM    H3S11320   2.831   4.830  10.605 -0.2072 -0.3251  0.0858
  110OSM     O311321   2.941   4.676  10.673  0.3237 -0.1762 -0.0372
  110OSM    HO311322   2.974   4.706  10.758 -2.4199 -0.1646  1.1246
  110OSM    C4S11323   2.954   4.778  10.441  0.2143 -0.3506 -0.5311
  110OSM    H4S11324   2.880   4.821  10.371  0.5218 -1.1358 -1.3589
  110OSM    C5S11325   3.046   4.702  10.387 -0.0707  0.4669  0.3629
  110OSM    H5S11326   3.131   4.653  10.438 -0.4867 -0.0852  0.5353
  110OSM    C6S11327   3.058   4.679  10.237  0.3699  0.1809 -0.6100
  110OSM    H6S11328   3.165   4.710  10.231  1.3032 -1.5223  3.6053
  110OSM    H6T11329   2.993   4.746  10.177 -0.7977 -0.1507  0.2485
  110OSM    C7S11330   3.040   4.534  10.189 -0.3925 -0.0309 -0.0764
  110OSM    H7S11331   2.931   4.511  10.189 -0.8376  1.6911  2.2805
  110OSM    H7T11332   3.094   4.457  10.248 -1.4707 -1.7083 -1.2058
  110OSM    C8S11333   3.099   4.534  10.040  0.1085 -0.3851  0.8255
  110OSM    H8S11334   3.202   4.573  10.028  0.0593 -1.0521 -2.6675
  110OSM    H8T11335   3.049   4.619   9.990  2.2059  1.7744  2.1931
  110OSM    C9S11336   3.069   4.399   9.967  0.0974 -0.0359 -0.6612
  110OSM    H9S11337   2.960   4.376   9.971  0.0356  0.4071  1.6508
  110OSM    H9T11338   3.127   4.322  10.021 -1.8087 -0.1500  1.4002
  110OSM   C10S11339   3.121   4.404   9.820  0.1000 -0.0484 -0.1967
  110OSM   H10S11340   3.231   4.421   9.825  0.0629  0.4229 -0.8373
  110OSM   H10T11341   3.070   4.490   9.771  0.0409  0.1969  0.2864
  110OSM   C11S11342   3.084   4.273   9.746  0.0771 -0.9056  0.4227
  110OSM   H11S11343   2.973   4.269   9.748  0.1141 -2.1391  1.9359
  110OSM   H11T11344   3.127   4.186   9.800  1.5560  0.6429  1.8541
  110OSM   C12S11345   3.144   4.278   9.603  0.3094 -0.1728 -0.0975
  110OSM   H12S11346   3.254   4.270   9.619  0.4492 -0.7279 -1.1874
  110OSM   H12T11347   3.126   4.378   9.559 -0.1494  0.2741  1.0622
  110OSM   C13S11348   3.095   4.172   9.508  0.3898  0.2142 -0.0330
  110OSM   H13S11349   2.985   4.186   9.497  0.2035  1.4312  2.6353
  110OSM   H13T11350   3.117   4.072   9.551 -0.1678  0.3203  0.4972
  110OSM   C14S11351   3.164   4.187   9.374 -0.0415  0.3244  0.1178
  110OSM   H14S11352   3.271   4.159   9.390  0.7908  3.9978  2.1218
  110OSM   H14T11353   3.170   4.292   9.340  0.1821  0.8066  1.5568
  110OSM   C15S11354   3.097   4.093   9.278  0.0528 -0.4615 -0.2914
  110OSM   H15S11355   2.986   4.097   9.280  0.0219  2.1232 -2.0068
  110OSM   H15T11356   3.134   3.990   9.297  2.0395  0.0983 -0.7993
  110OSM   C16S11357   3.139   4.137   9.136 -0.7971 -0.9227 -0.2197
  110OSM   H16S11358   3.249   4.142   9.132 -0.8228  2.4316  0.7591
  110OSM   H16T11359   3.101   4.240   9.117 -1.7392 -1.1701  0.2649
  110OSM   C17S11360   3.090   4.051   9.019  0.3217 -0.2802  0.1290
  110OSM   H17S11361   2.982   4.031   9.031  0.1641 -0.2570 -1.0851
  110OSM   H17T11362   3.150   3.957   9.023 -1.2592 -1.5131 -2.3225
  110OSM   C18S11363   3.115   4.134   8.889 -1.1319 -0.0830 -0.0871
  110OSM   H18S11364   3.127   4.071   8.798  2.4029  1.2232 -0.6585
  110OSM   H18T11365   3.219   4.170   8.904 -0.8869 -1.8473  3.7846
  110OSM   H18U11366   3.046   4.219   8.875  1.8230  2.5734  0.4339
  110OSM    C1F11367   3.148   5.101  10.569  0.0712  0.2226 -0.2282
  110OSM     OF11368   3.225   5.102  10.661 -0.0480  0.1431  0.2719
  110OSM    C2F11369   3.172   5.197  10.460 -0.1551  0.1063 -0.0419
  110OSM    H2F11370   3.108   5.287  10.468  0.9959  0.8864  0.6957
  110OSM    H2G11371   3.138   5.143  10.369 -0.8250 -2.0473  1.4015
  110OSM    C3F11372   3.319   5.228  10.433  0.6726 -0.1696  1.2205
  110OSM    H3F11373   3.385   5.141  10.411  0.8329  0.3829 -0.5995
  110OSM    H3G11374   3.365   5.291  10.512  2.1919  1.6807 -0.9967
  110OSM    C4F11375   3.344   5.315  10.309 -0.3040 -0.6427  0.0063
  110OSM    H4F11376   3.283   5.407  10.321  0.4168 -0.2032  0.3735
  110OSM    H4G11377   3.322   5.252  10.221  1.4138 -0.5865 -0.5106
  110OSM    C5F11378   3.495   5.342  10.288  0.7577  0.0063 -0.0177
  110OSM    H5F11379   3.546   5.244  10.278 -1.0291 -1.0347  0.6197
  110OSM    H5G11380   3.540   5.405  10.368  1.4055  1.3298 -1.3750
  110OSM    C6F11381   3.509   5.412  10.149 -0.2614  0.2473  0.0760
  110OSM    H6F11382   3.611   5.456  10.151 -1.8783  4.4165 -0.6632
  110OSM    H6G11383   3.431   5.490  10.138 -1.3973 -0.8790 -0.1129
  110OSM    C7F11384   3.493   5.317  10.028 -0.7854 -0.4317  0.6223
  110OSM    H7F11385   3.383   5.299  10.022 -1.0814  0.8751  1.7173
  110OSM    H7G11386   3.546   5.221  10.043  2.3841  0.9996 -0.3782
  110OSM    C8F11387   3.535   5.370   9.882  0.3788 -0.4791  0.5426
  110OSM    H8F11388   3.497   5.296   9.808 -1.0399  1.1552 -0.4311
  110OSM    H8G11389   3.644   5.346   9.876  0.2259 -0.9144 -1.0831
  110OSM    C9F11390   3.490   5.508   9.839 -0.2720 -0.1181  0.2051
  110OSM    H9F11391   3.397   5.542   9.888 -0.7365 -2.1434  0.8235
  110OSM   C10F11392   3.551   5.589   9.754 -0.1856  1.3164  0.1714
  110OSM   H10F11393   3.519   5.689   9.721  2.5708  2.4062  0.5425
  110OSM   C11F11394   3.676   5.552   9.689 -0.1942 -0.3703  0.1542
  110OSM   H11F11395   3.742   5.491   9.754 -0.4813 -0.0643  0.7496
  110OSM   H11G11396   3.737   5.643   9.665 -0.1981 -0.7816 -1.5520
  110OSM   C12F11397   3.651   5.485   9.552  0.7574  0.5882 -0.2709
  110OSM   H12F11398   3.600   5.386   9.563 -0.0027  1.1191  1.2398
  110OSM   H12G11399   3.746   5.443   9.513  0.1408 -1.5393  0.3472
  110OSM   C13F11400   3.574   5.567   9.449 -0.1649  0.1597  0.2903
  110OSM   H13F11401   3.635   5.654   9.419 -0.2510  0.1336  0.0360
  110OSM   H13G11402   3.480   5.606   9.492 -1.5658 -1.2870 -1.2954
  110OSM   C14F11403   3.539   5.489   9.320 -0.2221 -0.3298 -0.1087
  110OSM   H14F11404   3.440   5.441   9.334 -1.0315  1.8459  2.4662
  110OSM   H14G11405   3.611   5.406   9.306  0.5529  0.4095 -0.6494
  110OSM   C15F11406   3.510   5.586   9.207  0.7407 -0.2229  0.1343
  110OSM   H15F11407   3.609   5.606   9.162  0.1334 -0.1371 -1.1936
  110OSM   H15G11408   3.476   5.684   9.247  0.2642 -1.4572  3.0735
  110OSM   C16F11409   3.416   5.537   9.097  0.1462 -0.3020  0.6497
  110OSM   H16F11410   3.315   5.557   9.138  0.4669 -0.5895  1.5958
  110OSM   H16G11411   3.413   5.429   9.072 -2.0501 -0.1790  0.1896
  110OSM   C17F11412   3.452   5.619   8.965  0.1885 -0.0901  0.2379
  110OSM   H17F11413   3.544   5.575   8.920 -1.0277 -1.3320 -1.1476
  110OSM   H17G11414   3.495   5.717   8.995  0.1515 -0.3615  1.1918
  110OSM   C18F11415   3.355   5.629   8.859  0.4882 -0.4086  0.5619
  110OSM   H18F11416   3.264   5.579   8.900 -0.0161 -0.5171 -0.6499
  110OSM   H18G11417   3.379   5.586   8.759  0.8256  1.9191 -0.4131
  110OSM   H18H11418   3.322   5.735   8.852  1.0284 -0.2202  0.8109
  111OSM      N11419   2.146   1.743  11.038 -0.0525 -0.8916 -0.6506
  111OSM    C1511420   2.060   1.841  11.119  0.4235 -0.1116  0.0770
  111OSM   H15A11421   2.120   1.877  11.201 -1.8458  2.0210  0.9311
  111OSM   H15B11422   1.982   1.794  11.176 -0.7156  2.1201  0.5037
  111OSM   H15C11423   2.029   1.935  11.074 -0.9822  0.0137  1.2263
  111OSM    C1411424   2.291   1.800  11.035 -0.2317  0.7061  0.9542
  111OSM   H14A11425   2.291   1.902  10.999 -1.8372 -0.3377 -2.5335
  111OSM   H14B11426   2.350   1.743  10.964 -0.6256 -0.2551  1.3812
  111OSM   H14C11427   2.335   1.788  11.133  1.9193 -2.0424 -0.2133
  111OSM    C1311428   2.149   1.608  11.103  0.1415  0.2517  0.2472
  111OSM   H13A11429   2.046   1.579  11.118 -0.5487  1.4237 -1.8278
  111OSM   H13B11430   2.204   1.600  11.195 -0.8409 -0.4508  0.7957
  111OSM   H13C11431   2.195   1.533  11.041 -0.8306 -0.8374  0.7884
  111OSM    C1211432   2.093   1.738  10.899  0.9800 -0.0987 -0.9312
  111OSM   H12A11433   1.996   1.692  10.901 -0.0508  2.0152  0.1871
  111OSM   H12B11434   2.157   1.665  10.850  1.9703  0.4109 -0.4211
  111OSM    C1111435   2.076   1.868  10.814 -0.0494  0.2145  0.2030
  111OSM   H11A11436   2.027   1.948  10.874 -0.9749 -1.3976  1.7039
  111OSM   H11B11437   2.003   1.847  10.734  1.3491 -2.5202 -0.4820
  111OSM      P11438   2.294   1.861  10.656 -0.4338  0.1789  0.2966
  111OSM    O1311439   2.431   1.900  10.674  0.5618  0.9358 -0.5795
  111OSM    O1411440   2.276   1.718  10.637 -0.3658  0.1741  0.6698
  111OSM    O1111441   2.223   1.939  10.538  0.1407 -0.4154  0.7555
  111OSM    O1211442   2.208   1.918  10.775  0.1864  0.1294 -0.0061
  111OSM    C1S11443   2.238   2.084  10.545 -0.7710 -0.4061  0.4344
  111OSM    H1S11444   2.346   2.111  10.541 -0.2664 -2.3212  0.2979
  111OSM    H1T11445   2.196   2.123  10.640  0.1138  1.8613 -0.0190
  111OSM     NF11446   2.213   2.302  10.422  0.3432 -0.0299 -0.7776
  111OSM    HNF11447   2.147   2.364  10.464  0.4395 -1.1457  1.1280
  111OSM    C2S11448   2.178   2.158  10.419 -0.1109  0.7271  0.3613
  111OSM    H2S11449   2.217   2.103  10.330 -0.9787 -0.5391  0.7244
  111OSM    C3S11450   2.024   2.133  10.416  0.2847  0.1150  0.2883
  111OSM    H3S11451   1.975   2.202  10.488 -0.0438  0.9786 -0.7325
  111OSM     O311452   1.975   2.006  10.459 -0.5773 -0.1059  0.3017
  111OSM    HO311453   2.050   1.951  10.482  1.0625  1.7044 -0.4497
  111OSM    C4S11454   1.964   2.168  10.281 -0.3104 -0.0216  0.2490
  111OSM    H4S11455   1.912   2.264  10.288 -1.2756 -0.6010  1.6076
  111OSM    C5S11456   1.956   2.087  10.169 -0.0372 -0.8618  0.4095
  111OSM    H5S11457   1.986   1.982  10.169 -2.9453 -1.7890  1.0689
  111OSM    C6S11458   1.889   2.124  10.036  0.4254  0.8864 -0.1107
  111OSM    H6S11459   1.856   2.230  10.046  0.3666  0.9634 -0.9714
  111OSM    H6T11460   1.805   2.054  10.014  0.0045  1.0423  0.9432
  111OSM    C7S11461   1.993   2.130   9.928 -0.2802  0.2639 -0.1779
  111OSM    H7S11462   2.043   2.031   9.927 -1.8000 -0.5547  0.9185
  111OSM    H7T11463   2.072   2.206   9.946  0.6531 -0.6812 -0.1465
  111OSM    C8S11464   1.929   2.147   9.787  0.7914  0.1050  0.7479
  111OSM    H8S11465   1.909   2.256   9.787  0.7632  0.1013  1.0509
  111OSM    H8T11466   1.834   2.091   9.772 -0.3030  1.9695  0.4941
  111OSM    C9S11467   2.030   2.129   9.675 -0.5069  0.2529  0.0594
  111OSM    H9S11468   2.055   2.022   9.664  1.8065  0.9120 -2.3003
  111OSM    H9T11469   2.124   2.184   9.699  0.1484 -1.5246  1.7766
  111OSM   C10S11470   1.971   2.181   9.550  0.0890  0.3073  0.3605
  111OSM   H10S11471   1.953   2.287   9.577 -0.1910  0.0052  1.3980
  111OSM   H10T11472   1.879   2.122   9.530  0.7053 -1.0612  1.4672
  111OSM   C11S11473   2.068   2.187   9.428  0.2810  0.3111 -0.4572
  111OSM   H11S11474   2.110   2.086   9.411 -0.2570 -0.2729  1.3872
  111OSM   H11T11475   2.157   2.248   9.455  0.2377 -0.3703  1.3766
  111OSM   C12S11476   1.996   2.242   9.304 -0.2097 -0.3994  0.3117
  111OSM   H12S11477   1.948   2.337   9.334 -2.4105 -0.1831 -3.3630
  111OSM   H12T11478   1.913   2.177   9.269 -0.6740  1.4981 -2.3817
  111OSM   C13S11479   2.066   2.276   9.178 -0.3177  0.2460 -0.2760
  111OSM   H13S11480   2.140   2.200   9.146 -1.6692 -0.1458 -2.6920
  111OSM   H13T11481   2.138   2.358   9.199  0.0500  0.0512 -0.7532
  111OSM   C14S11482   1.973   2.304   9.062  0.1349  0.0059 -0.1594
  111OSM   H14S11483   1.915   2.393   9.093  0.2161 -0.4650  1.4313
  111OSM   H14T11484   1.906   2.215   9.056  0.5272 -0.4660  1.8372
  111OSM   C15S11485   2.047   2.340   8.932  0.6984 -0.1067  0.2179
  111OSM   H15S11486   2.101   2.245   8.911 -1.5302 -1.4592  0.1826
  111OSM   H15T11487   2.112   2.428   8.950 -0.5428  0.8495  0.2260
  111OSM   C16S11488   1.957   2.364   8.815  0.3950  0.4522  0.7207
  111OSM   H16S11489   1.872   2.431   8.841 -2.5160 -2.3145 -0.9357
  111OSM   H16T11490   1.903   2.277   8.773 -1.7748  0.7876  2.5983
  111OSM   C17S11491   2.034   2.430   8.701  0.0323 -0.3454  1.0274
  111OSM   H17S11492   2.102   2.357   8.650 -0.5407 -2.1500  2.7330
  111OSM   H17T11493   2.090   2.517   8.742  0.6171  0.8387 -1.9972
  111OSM   C18S11494   1.949   2.486   8.582 -0.1761  0.3039 -0.1708
  111OSM   H18S11495   1.956   2.596   8.594 -2.0333  0.3140  1.1779
  111OSM   H18T11496   1.843   2.456   8.594  0.0346 -1.4100 -2.1276
  111OSM   H18U11497   1.986   2.447   8.485  0.8658 -0.6442  0.5647
  111OSM    C1F11498   2.335   2.352  10.402  0.4219  0.4173 -0.8572
  111OSM     OF11499   2.428   2.286  10.364  0.2261  0.1003 -0.5817
  111OSM    C2F11500   2.367   2.495  10.436  0.5213 -0.0634  0.4587
  111OSM    H2F11501   2.463   2.505  10.491  1.4096 -1.2780 -0.8098
  111OSM    H2G11502   2.286   2.531  10.502  1.4028  2.1880  0.4127
  111OSM    C3F11503   2.384   2.586  10.307 -0.3608  0.0454 -0.0165
  111OSM    H3F11504   2.486   2.566  10.266 -0.4256 -0.2542 -0.0324
  111OSM    H3G11505   2.373   2.691  10.343  2.3247  0.1762  0.6156
  111OSM    C4F11506   2.283   2.555  10.198  0.4204  0.2003 -0.2330
  111OSM    H4F11507   2.177   2.573  10.230 -0.1397  1.3061 -2.5027
  111OSM    H4G11508   2.286   2.447  10.176  2.0335  0.2154 -0.1723
  111OSM    C5F11509   2.316   2.615  10.066 -0.5397  0.2120 -0.6240
  111OSM    H5F11510   2.314   2.535   9.989  0.4597  1.6493 -2.2152
  111OSM    H5G11511   2.422   2.648  10.059 -1.1700  2.0516 -2.2320
  111OSM    C6F11512   2.229   2.723  10.013 -0.0747  0.6365  0.3296
  111OSM    H6F11513   2.207   2.804  10.086 -0.8430  0.6397  0.0988
  111OSM    H6G11514   2.129   2.678   9.995 -0.4672  1.6316 -0.0047
  111OSM    C7F11515   2.286   2.790   9.892 -0.6029 -0.3330 -0.3771
  111OSM    H7F11516   2.374   2.848   9.927 -1.0613 -0.1089  0.4373
  111OSM    H7G11517   2.219   2.874   9.863 -0.6705 -0.9350 -2.0307
  111OSM    C8F11518   2.344   2.702   9.785 -0.2005 -0.5993 -0.6479
  111OSM    H8F11519   2.424   2.646   9.838 -0.9767 -0.4981  0.6915
  111OSM    H8G11520   2.398   2.768   9.714  0.9719 -0.4812  0.3127
  111OSM    C9F11521   2.253   2.609   9.715  0.0325  0.7442 -0.6254
  111OSM    H9F11522   2.246   2.507   9.754  0.3246 -0.1009 -2.6340
  111OSM   C10F11523   2.196   2.623   9.594  0.8393 -0.0107 -0.3958
  111OSM   H10F11524   2.133   2.544   9.549  0.3416  0.2750 -0.2090
  111OSM   C11F11525   2.197   2.749   9.504  0.0669  0.4009 -0.2906
  111OSM   H11F11526   2.232   2.833   9.568  0.0946 -1.0916  1.7437
  111OSM   H11G11527   2.097   2.778   9.465  0.5249 -0.8818 -2.5780
  111OSM   C12F11528   2.280   2.728   9.384 -0.3840  0.5405 -0.1913
  111OSM   H12F11529   2.389   2.711   9.403 -0.5521  0.3539  0.6452
  111OSM   H12G11530   2.276   2.815   9.315 -3.2397  0.9094  0.3167
  111OSM   C13F11531   2.233   2.615   9.285  0.7025  0.1938  0.1308
  111OSM   H13F11532   2.123   2.615   9.298  0.6154  0.5471 -0.5314
  111OSM   H13G11533   2.264   2.513   9.317 -0.1516  0.5652  2.2757
  111OSM   C14F11534   2.276   2.630   9.139 -0.0695 -0.5326  0.2508
  111OSM   H14F11535   2.263   2.525   9.104  2.6749 -0.7540 -0.3012
  111OSM   H14G11536   2.380   2.665   9.124  0.1196 -1.1320  0.1218
  111OSM   C15F11537   2.188   2.712   9.043  0.1771 -0.1284 -0.7022
  111OSM   H15F11538   2.084   2.719   9.082 -0.9406  0.6678 -3.5755
  111OSM   H15G11539   2.170   2.664   8.944 -2.4344 -0.3374 -0.1997
  111OSM   C16F11540   2.259   2.848   9.021  0.4101  0.0935  0.2115
  111OSM   H16F11541   2.328   2.875   9.105 -0.1601  0.5624  0.5361
  111OSM   H16G11542   2.176   2.920   9.002  0.6637  0.5823  0.9174
  111OSM   C17F11543   2.336   2.842   8.898  0.0772 -0.5374  0.2974
  111OSM   H17F11544   2.281   2.797   8.813 -1.2235  1.5716 -0.0387
  111OSM   H17G11545   2.421   2.771   8.909  0.6397  0.2589  1.2860
  111OSM   C18F11546   2.386   2.974   8.846  0.5860 -0.1696 -0.4986
  111OSM   H18F11547   2.477   2.956   8.785  1.5719 -0.3576  0.9899
  111OSM   H18G11548   2.407   3.032   8.938  0.0101  2.4077 -1.9109
  111OSM   H18H11549   2.309   3.030   8.788  0.2014  0.1325  0.2909
  112OSM      N11550   6.481   5.774  10.718  0.6026  0.3767  0.2310
  112OSM    C1511551   6.454   5.739  10.571  0.2814  0.0125  0.4012
  112OSM   H15A11552   6.393   5.650  10.564 -0.0434  0.3529 -1.4164
  112OSM   H15B11553   6.542   5.734  10.509 -1.9177  0.0807 -3.0010
  112OSM   H15C11554   6.401   5.816  10.517 -3.4412 -2.0393  0.8111
  112OSM    C1411555   6.345   5.794  10.788  0.4961 -0.0085 -0.2158
  112OSM   H14A11556   6.281   5.707  10.786  1.3465 -0.6475 -0.3581
  112OSM   H14B11557   6.288   5.874  10.744  1.6702 -0.1630 -2.1341
  112OSM   H14C11558   6.369   5.829  10.887  3.4410  2.7717 -1.7267
  112OSM    C1311559   6.553   5.665  10.781  0.4493  0.6383  0.1982
  112OSM   H13A11560   6.504   5.573  10.751  1.6112  0.4757 -1.3403
  112OSM   H13B11561   6.552   5.672  10.889 -1.3604  0.8315  0.2008
  112OSM   H13C11562   6.657   5.657  10.753  0.9202  2.2804  1.3321
  112OSM    C1211563   6.551   5.906  10.737  0.6336  0.6287 -0.6551
  112OSM   H12A11564   6.653   5.895  10.704  0.1180 -0.8222 -1.8859
  112OSM   H12B11565   6.552   5.919  10.844  0.6517 -1.7388 -0.3142
  112OSM    C1111566   6.489   6.028  10.669 -0.5585  0.2778  0.0051
  112OSM   H11A11567   6.391   6.048  10.718 -1.1067 -1.1448 -0.4614
  112OSM   H11B11568   6.475   6.013  10.560 -0.8740  1.6128 -0.1534
  112OSM      P11569   6.690   6.197  10.602  0.4338  0.0345  0.1420
  112OSM    O1311570   6.726   6.331  10.649  0.1279  0.5846 -0.0570
  112OSM    O1411571   6.791   6.090  10.602 -0.5032 -0.1840  0.3832
  112OSM    O1111572   6.621   6.205  10.452  0.1130 -0.3362  0.7719
  112OSM    O1211573   6.565   6.150  10.697  0.0272  0.3587  0.2479
  112OSM    C1S11574   6.513   6.292  10.428 -0.4399  0.0445 -0.4964
  112OSM    H1S11575   6.517   6.386  10.487 -0.9282 -0.3393  0.1677
  112OSM    H1T11576   6.418   6.239  10.453 -0.2848 -1.4083 -2.7257
  112OSM     NF11577   6.416   6.430  10.262  0.3332 -0.0522  0.2585
  112OSM    HNF11578   6.322   6.410  10.236  0.0408  0.2255  1.0521
  112OSM    C2S11579   6.504   6.324  10.282  0.9869  0.4484  0.3774
  112OSM    H2S11580   6.608   6.344  10.249  1.3269 -1.1675  0.3802
  112OSM    C3S11581   6.462   6.193  10.201  0.4066  0.6860 -0.2929
  112OSM    H3S11582   6.363   6.163  10.239  1.4848 -0.4300  1.8448
  112OSM     O311583   6.544   6.080  10.224 -0.1976  0.2151  0.2005
  112OSM    HO311584   6.587   6.097  10.308 -0.7539 -1.0853  0.7855
  112OSM    C4S11585   6.447   6.233  10.050  0.1258  0.3403 -0.3170
  112OSM    H4S11586   6.347   6.273  10.029  0.1582  1.2269  1.0719
  112OSM    C5S11587   6.533   6.218   9.949 -1.1814 -0.7332 -0.1654
  112OSM    H5S11588   6.632   6.172   9.961 -1.0452 -0.7656 -1.3610
  112OSM    C6S11589   6.500   6.263   9.805 -0.1636  0.0748 -0.2124
  112OSM    H6S11590   6.577   6.329   9.759  0.0617  0.5132  0.7740
  112OSM    H6T11591   6.404   6.318   9.803  0.7131  1.6572 -2.4456
  112OSM    C7S11592   6.483   6.149   9.700 -0.4205 -0.1769  0.4449
  112OSM    H7S11593   6.400   6.077   9.720  0.0746 -1.0435 -0.4804
  112OSM    H7T11594   6.576   6.088   9.696 -1.4931 -1.8275 -0.7007
  112OSM    C8S11595   6.459   6.212   9.565  0.0851 -0.0674  0.4524
  112OSM    H8S11596   6.528   6.294   9.538 -0.7190 -0.0798 -1.9065
  112OSM    H8T11597   6.360   6.264   9.557  0.3874  0.2575 -3.0513
  112OSM    C9S11598   6.452   6.119   9.456 -0.0872  0.4834  0.4615
  112OSM    H9S11599   6.376   6.042   9.483 -1.7019  1.1631 -1.8029
  112OSM    H9T11600   6.551   6.070   9.445  0.0724  0.6850  0.9646
  112OSM   C10S11601   6.411   6.174   9.318 -0.5052  0.5998  0.0108
  112OSM   H10S11602   6.491   6.237   9.275 -0.9831  0.2344 -1.4660
  112OSM   H10T11603   6.324   6.240   9.340 -0.9506 -0.1644  0.6412
  112OSM   C11S11604   6.371   6.082   9.199 -0.4206 -0.9094 -0.1044
  112OSM   H11S11605   6.461   6.022   9.176  1.7486  1.5155  1.4826
  112OSM   H11T11606   6.357   6.158   9.120 -1.5072  0.5473  1.4041
  112OSM   C12S11607   6.253   5.995   9.231 -0.1060  0.8838 -0.4932
  112OSM   H12S11608   6.164   6.060   9.251 -0.3296  0.3826  0.1742
  112OSM   H12T11609   6.284   5.949   9.327  0.0102 -0.8527 -1.3270
  112OSM   C13S11610   6.224   5.882   9.132  0.1436 -0.3352  0.7811
  112OSM   H13S11611   6.147   5.813   9.173  0.4501 -2.1122 -1.3909
  112OSM   H13T11612   6.320   5.829   9.116  0.6778 -0.1022  2.9875
  112OSM   C14S11613   6.174   5.947   8.998  0.5221 -0.0525  0.0358
  112OSM   H14S11614   6.250   6.021   8.967 -1.0155  1.6313  0.1076
  112OSM   H14T11615   6.073   5.992   9.009  1.1131  0.8302  2.7407
  112OSM   C15S11616   6.161   5.849   8.884 -0.0372 -0.2186  0.9979
  112OSM   H15S11617   6.084   5.771   8.903 -0.4876  0.6949  3.2012
  112OSM   H15T11618   6.257   5.793   8.881 -0.6245 -1.2132 -1.6524
  112OSM   C16S11619   6.146   5.928   8.755  0.8675  0.0309  0.4181
  112OSM   H16S11620   6.241   5.959   8.706  0.7818  0.7044  0.6546
  112OSM   H16T11621   6.089   6.024   8.754 -0.9097 -0.9034 -2.5610
  112OSM   C17S11622   6.076   5.847   8.648 -0.0485 -0.0169 -0.1636
  112OSM   H17S11623   6.117   5.744   8.654  0.6493  0.3420  3.3930
  112OSM   H17T11624   6.108   5.870   8.544 -0.4867  0.6753 -0.1480
  112OSM   C18S11625   5.921   5.838   8.666  0.4752  0.3364 -0.0678
  112OSM   H18S11626   5.877   5.762   8.598 -1.2055 -1.3036  2.6174
  112OSM   H18T11627   5.876   5.938   8.649  0.2072  0.3104  0.4497
  112OSM   H18U11628   5.894   5.810   8.771  0.2989 -2.6277 -0.8140
  112OSM    C1F11629   6.442   6.560  10.302  0.2948  0.0353 -0.0499
  112OSM     OF11630   6.549   6.578  10.363 -0.0891 -0.3227  0.1273
  112OSM    C2F11631   6.344   6.661  10.278  0.5640  0.0075 -0.4038
  112OSM    H2F11632   6.311   6.702  10.376  0.9546  0.0579 -0.2932
  112OSM    H2G11633   6.254   6.626  10.223  1.9457  2.5367 -4.7596
  112OSM    C3F11634   6.411   6.771  10.188  0.1122  0.0138 -1.1520
  112OSM    H3F11635   6.485   6.821  10.254 -0.6100  0.6321 -0.7981
  112OSM    H3G11636   6.321   6.834  10.174  1.2893  2.1672  0.3641
  112OSM    C4F11637   6.468   6.722  10.050  0.6163  0.5595  0.1784
  112OSM    H4F11638   6.561   6.661  10.053  0.6562  0.4014 -2.0522
  112OSM    H4G11639   6.496   6.813   9.994  3.9086 -0.9266 -0.8534
  112OSM    C5F11640   6.372   6.645   9.956  0.4679 -0.3485  0.2529
  112OSM    H5F11641   6.273   6.694   9.966  0.3510 -0.5699  0.1941
  112OSM    H5G11642   6.367   6.541   9.996 -0.8805 -0.1634  0.6198
  112OSM    C6F11643   6.414   6.663   9.810  0.3046 -0.4421  0.1440
  112OSM    H6F11644   6.521   6.631   9.802  0.5481  0.3896 -0.0377
  112OSM    H6G11645   6.415   6.770   9.782 -0.8118 -0.6989 -0.9131
  112OSM    C7F11646   6.333   6.590   9.710  0.8647  0.0846  0.3925
  112OSM    H7F11647   6.234   6.638   9.698  0.4410 -0.6610  0.8231
  112OSM    H7G11648   6.310   6.488   9.749 -0.3510  0.2586  0.1508
  112OSM    C8F11649   6.401   6.572   9.578 -0.1019  0.0375 -0.7797
  112OSM    H8F11650   6.340   6.503   9.515  1.4303 -2.6105  0.4739
  112OSM    H8G11651   6.492   6.509   9.582 -1.4066 -2.0271 -1.7386
  112OSM    C9F11652   6.431   6.693   9.497  0.2804 -0.2623 -0.1022
  112OSM    H9F11653   6.440   6.784   9.559  2.6967 -0.2323 -0.3991
  112OSM   C10F11654   6.432   6.702   9.364 -0.2428  0.2636 -0.1081
  112OSM   H10F11655   6.474   6.792   9.317  0.3604 -0.8401 -1.7701
  112OSM   C11F11656   6.418   6.589   9.263  0.5546 -0.5368 -0.7122
  112OSM   H11F11657   6.349   6.620   9.182  0.4832 -1.8554 -1.1891
  112OSM   H11G11658   6.365   6.498   9.299  0.9624 -0.8112 -0.7989
  112OSM   C12F11659   6.553   6.548   9.196 -0.3363  0.3157 -0.3611
  112OSM   H12F11660   6.594   6.473   9.267 -0.3593  1.9393  1.4448
  112OSM   H12G11661   6.631   6.626   9.205 -1.7394  1.7271  0.0249
  112OSM   C13F11662   6.542   6.472   9.055  0.1382 -0.0180 -0.0030
  112OSM   H13F11663   6.471   6.388   9.066 -1.5119  0.7761 -3.4336
  112OSM   H13G11664   6.647   6.455   9.021 -0.2561  1.3710 -2.1010
  112OSM   C14F11665   6.488   6.563   8.945  0.2839  0.2892  0.3026
  112OSM   H14F11666   6.548   6.656   8.952  1.1576 -0.2822  0.5548
  112OSM   H14G11667   6.385   6.598   8.967  1.8658  4.6258  1.7194
  112OSM   C15F11668   6.504   6.501   8.800 -0.1763  0.0916  0.0526
  112OSM   H15F11669   6.614   6.497   8.784 -0.1559  1.2548 -0.1491
  112OSM   H15G11670   6.469   6.575   8.726 -0.3805 -1.1056 -1.0775
  112OSM   C16F11671   6.446   6.359   8.772 -0.1768  0.1664  0.3490
  112OSM   H16F11672   6.520   6.289   8.815  0.9947  0.2661 -1.3899
  112OSM   H16G11673   6.454   6.337   8.663  0.4470 -0.0494  0.4332
  112OSM   C17F11674   6.302   6.344   8.829  0.4317  0.5745 -0.5185
  112OSM   H17F11675   6.296   6.357   8.939 -1.1864  2.7786 -0.7845
  112OSM   H17G11676   6.260   6.246   8.800  3.0102 -0.6763 -0.3417
  112OSM   C18F11677   6.202   6.446   8.765 -0.2452  0.2854 -0.6391
  112OSM   H18F11678   6.222   6.441   8.656  1.8297 -2.0685 -0.2247
  112OSM   H18G11679   6.221   6.553   8.793 -0.3294  0.5884 -1.7137
  112OSM   H18H11680   6.093   6.429   8.781 -0.4449  0.9773 -1.1869
  113OSM      N11681   1.747   6.800  10.782 -0.3920  0.5375 -0.2033
  113OSM    C1511682   1.610   6.791  10.845  0.0970 -0.4921 -0.0281
  113OSM   H15A11683   1.578   6.887  10.884  0.9690 -0.5511  0.8919
  113OSM   H15B11684   1.614   6.730  10.935  1.8104 -1.2741 -0.5956
  113OSM   H15C11685   1.531   6.757  10.779 -2.3456  1.8990  1.4402
  113OSM    C1411686   1.759   6.919  10.685 -0.1120  0.3697 -0.3573
  113OSM   H14A11687   1.704   6.904  10.593 -2.2458  0.6421  0.8107
  113OSM   H14B11688   1.861   6.951  10.671  0.1486  0.1787  1.0098
  113OSM   H14C11689   1.707   7.007  10.720  0.7050  0.6489  0.1821
  113OSM    C1311690   1.842   6.821  10.889 -0.2861 -0.2249 -0.0650
  113OSM   H13A11691   1.938   6.777  10.867  0.6026  2.1031 -1.1699
  113OSM   H13B11692   1.813   6.788  10.988 -3.1031  0.6284 -0.4965
  113OSM   H13C11693   1.861   6.927  10.897 -3.4004  0.4473 -0.0631
  113OSM    C1211694   1.788   6.668  10.716  0.4395  0.0207 -0.4802
  113OSM   H12A11695   1.888   6.679  10.676  1.8609 -1.0376  2.4863
  113OSM   H12B11696   1.718   6.648  10.636 -2.6348  0.0939  1.9939
  113OSM    C1111697   1.783   6.548  10.812 -0.0658  0.5231  0.3654
  113OSM   H11A11698   1.863   6.555  10.889 -0.0107 -0.5369  0.4243
  113OSM   H11B11699   1.822   6.462  10.753 -0.9248 -1.2522  2.2326
  113OSM      P11700   1.556   6.433  10.789  0.3224  0.0247 -0.0825
  113OSM    O1311701   1.538   6.311  10.872  0.0864  0.1428  0.4803
  113OSM    O1411702   1.434   6.516  10.774 -0.2453 -0.4401  0.9675
  113OSM    O1111703   1.625   6.404  10.645 -0.1973  0.1130  0.8318
  113OSM    O1211704   1.653   6.523  10.879 -0.3689  0.1193  0.2570
  113OSM    C1S11705   1.546   6.430  10.525 -0.6803 -0.0060  0.1596
  113OSM    H1S11706   1.512   6.536  10.524 -0.1873  0.1781  1.4060
  113OSM    H1T11707   1.448   6.378  10.533 -0.2918 -0.6539  0.7800
  113OSM     NF11708   1.551   6.474  10.284  0.9816  0.1283 -0.1843
  113OSM    HNF11709   1.503   6.403  10.233 -1.9706  1.5771  0.3868
  113OSM    C2S11710   1.632   6.418  10.394  0.4147  0.1281  0.1643
  113OSM    H2S11711   1.719   6.483  10.417 -0.3561  0.6313  1.8084
  113OSM    C3S11712   1.676   6.269  10.381  0.9417 -0.2914  0.4060
  113OSM    H3S11713   1.589   6.201  10.372 -0.6378  1.3128  2.6022
  113OSM     O311714   1.755   6.226  10.491 -0.2182 -0.0740 -0.4038
  113OSM    HO311715   1.733   6.297  10.553  1.2873  1.4444 -1.5195
  113OSM    C4S11716   1.753   6.247  10.253  0.3746  1.3354 -0.5469
  113OSM    H4S11717   1.832   6.318  10.226  0.1105  0.8230 -2.9273
  113OSM    C5S11718   1.722   6.153  10.159  0.4084 -0.3308  0.0346
  113OSM    H5S11719   1.637   6.085  10.174  0.1982 -0.2234 -0.6622
  113OSM    C6S11720   1.796   6.139  10.023  0.3260 -0.0934 -0.2178
  113OSM    H6S11721   1.824   6.032  10.015  0.6948 -0.1452  1.4287
  113OSM    H6T11722   1.885   6.204  10.016  0.6580 -0.3115  1.5197
  113OSM    C7S11723   1.710   6.174   9.907  0.3454 -0.1595 -0.1692
  113OSM    H7S11724   1.679   6.280   9.919  0.3330 -0.1201 -0.5350
  113OSM    H7T11725   1.613   6.121   9.904  0.6950 -0.9827  1.9742
  113OSM    C8S11726   1.772   6.154   9.773 -0.3538  0.5883  0.9029
  113OSM    H8S11727   1.841   6.067   9.769 -1.8599 -0.6545  0.7691
  113OSM    H8T11728   1.839   6.241   9.755  2.6411 -2.0045 -1.7995
  113OSM    C9S11729   1.676   6.144   9.655  0.4636  0.2661 -0.5898
  113OSM    H9S11730   1.607   6.230   9.667 -1.2038 -1.0913 -0.0916
  113OSM    H9T11731   1.619   6.049   9.667 -1.8365  1.6810  0.2171
  113OSM   C10S11732   1.746   6.157   9.523 -0.3376  1.0640 -0.0320
  113OSM   H10S11733   1.794   6.060   9.496  0.5643  1.4855  0.0335
  113OSM   H10T11734   1.820   6.240   9.518  1.5517 -0.5705 -0.7965
  113OSM   C11S11735   1.656   6.189   9.407 -0.0408  0.2252 -0.1252
  113OSM   H11S11736   1.593   6.278   9.428 -1.9580 -0.5746 -2.0993
  113OSM   H11T11737   1.581   6.106   9.400  0.4662 -0.1134 -1.9115
  113OSM   C12S11738   1.719   6.216   9.268  0.0402 -0.3318 -0.1424
  113OSM   H12S11739   1.786   6.132   9.237  0.2236 -0.0035 -0.6393
  113OSM   H12T11740   1.777   6.310   9.268  1.7756 -1.3066  2.2574
  113OSM   C13S11741   1.602   6.234   9.167  0.2671  0.1331  0.5852
  113OSM   H13S11742   1.537   6.314   9.209 -1.1623 -0.7714  0.1691
  113OSM   H13T11743   1.534   6.147   9.161  2.3638 -1.5337 -0.7738
  113OSM   C14S11744   1.645   6.276   9.027 -0.5642 -0.3435  0.1715
  113OSM   H14S11745   1.743   6.230   8.998 -1.6262 -1.5833 -1.7052
  113OSM   H14T11746   1.667   6.385   9.023  1.7877 -0.7920 -2.2461
  113OSM   C15S11747   1.532   6.254   8.925  0.4607 -1.0571 -0.2783
  113OSM   H15S11748   1.475   6.349   8.916 -0.2462 -1.4938 -0.5125
  113OSM   H15T11749   1.465   6.168   8.951  0.4085 -0.6636  0.9448
  113OSM   C16S11750   1.596   6.227   8.791  0.4169  0.3974  0.4800
  113OSM   H16S11751   1.651   6.131   8.789 -0.9745 -0.4196 -0.8634
  113OSM   H16T11752   1.662   6.309   8.755 -0.9318  0.6851 -1.5361
  113OSM   C17S11753   1.489   6.202   8.681  0.8824  0.4068 -0.2499
  113OSM   H17S11754   1.428   6.293   8.662 -0.3491 -0.6517 -1.6361
  113OSM   H17T11755   1.415   6.131   8.724  0.0748  0.7635 -1.0179
  113OSM   C18S11756   1.555   6.136   8.561  0.6359 -0.1124 -0.0291
  113OSM   H18S11757   1.634   6.200   8.515 -0.1480  1.0501  0.1883
  113OSM   H18T11758   1.472   6.140   8.487 -0.6405  2.3892  1.3989
  113OSM   H18U11759   1.575   6.029   8.578 -1.4238 -0.2999  1.6208
  113OSM    C1F11760   1.542   6.605  10.258  0.9215 -0.3934  0.6598
  113OSM     OF11761   1.628   6.683  10.295 -0.8881 -0.2434  0.2766
  113OSM    C2F11762   1.415   6.645  10.178  0.3279  0.1952  0.7587
  113OSM    H2F11763   1.322   6.614  10.230  0.1474 -0.0715  0.2859
  113OSM    H2G11764   1.423   6.589  10.081 -0.5899 -2.2052  1.9756
  113OSM    C3F11765   1.402   6.793  10.130 -0.5393 -0.9013  0.2184
  113OSM    H3F11766   1.498   6.835  10.096  0.6371 -1.9926  2.0279
  113OSM    H3G11767   1.365   6.857  10.213  0.1682  0.7690 -0.7152
  113OSM    C4F11768   1.292   6.803  10.028 -0.0620 -0.4047 -0.6092
  113OSM    H4F11769   1.209   6.733  10.046 -0.2523  0.5383  2.7882
  113OSM    H4G11770   1.333   6.757   9.935  0.4333  0.4811 -0.8480
  113OSM    C5F11771   1.254   6.942   9.997  0.8337 -0.3049  0.1782
  113OSM    H5F11772   1.223   6.986  10.094 -0.2173 -0.7132  0.0326
  113OSM    H5G11773   1.159   6.938   9.941  1.8778  0.5911 -1.7771
  113OSM    C6F11774   1.357   7.042   9.945  0.1404  0.0026  0.4118
  113OSM    H6F11775   1.422   7.060  10.033  3.9526  0.2717 -2.1703
  113OSM    H6G11776   1.295   7.131   9.924 -0.6347 -0.5859  0.1267
  113OSM    C7F11777   1.445   6.983   9.830 -0.2464 -0.8295  0.3833
  113OSM    H7F11778   1.479   6.882   9.862 -0.4528 -0.7154  0.9769
  113OSM    H7G11779   1.531   7.053   9.823 -0.9111  0.2561  2.1508
  113OSM    C8F11780   1.354   6.981   9.702  0.0489 -0.3942 -0.5971
  113OSM    H8F11781   1.315   7.083   9.678  0.6928 -0.2156 -0.9198
  113OSM    H8G11782   1.262   6.927   9.733 -0.5387  1.9994  2.3026
  113OSM    C9F11783   1.433   6.921   9.590 -0.2542 -0.2933  0.1052
  113OSM    H9F11784   1.485   6.829   9.619 -0.8083 -0.4855  0.5185
  113OSM   C10F11785   1.451   6.975   9.464 -0.1689  0.0633 -0.0241
  113OSM   H10F11786   1.498   6.912   9.387  0.0746 -0.1986  0.3353
  113OSM   C11F11787   1.402   7.106   9.415  0.4820 -0.5617 -0.0511
  113OSM   H11F11788   1.405   7.185   9.493  1.6191 -2.0109  1.4494
  113OSM   H11G11789   1.293   7.103   9.390  0.9117  0.9775 -2.5060
  113OSM   C12F11790   1.490   7.163   9.294 -0.5252  0.4420  0.8932
  113OSM   H12F11791   1.596   7.175   9.323 -0.2433  1.1414 -0.3617
  113OSM   H12G11792   1.469   7.264   9.253  1.2857  0.3012 -0.5005
  113OSM   C13F11793   1.461   7.078   9.169 -0.0099 -0.2889 -0.1763
  113OSM   H13F11794   1.373   7.010   9.170 -2.8719  3.1185 -0.0592
  113OSM   H13G11795   1.549   7.019   9.137  2.0047  2.4019  0.0036
  113OSM   C14F11796   1.451   7.166   9.051  0.0682  0.4867  0.2577
  113OSM   H14F11797   1.537   7.236   9.057 -0.8668  1.7126 -0.3792
  113OSM   H14G11798   1.357   7.224   9.055 -0.1181  0.4842 -2.4321
  113OSM   C15F11799   1.444   7.086   8.918 -0.1084  0.5515 -0.3303
  113OSM   H15F11800   1.338   7.051   8.914 -0.1327  0.3968  1.1182
  113OSM   H15G11801   1.505   6.994   8.921 -3.5059 -1.8530  0.8901
  113OSM   C16F11802   1.493   7.176   8.806 -0.0270 -0.6616  0.1715
  113OSM   H16F11803   1.588   7.221   8.841 -1.1212  1.0884  1.0662
  113OSM   H16G11804   1.427   7.266   8.801  2.0077  0.9124  0.3981
  113OSM   C17F11805   1.534   7.112   8.675 -0.0682  0.6544  0.5864
  113OSM   H17F11806   1.440   7.086   8.622  0.7220 -3.1113  0.7588
  113OSM   H17G11807   1.593   7.020   8.693 -0.8391  0.1118  0.3816
  113OSM   C18F11808   1.618   7.195   8.580 -0.1531 -0.1395 -0.4300
  113OSM   H18F11809   1.610   7.166   8.473 -0.6308  3.0228 -1.3703
  113OSM   H18G11810   1.726   7.192   8.609 -0.1122 -0.6124 -0.6209
  113OSM   H18H11811   1.601   7.304   8.591  0.4638 -0.2572  2.2797
  114OSM      N11812   4.435   4.146  11.423 -0.1206  0.0571  0.8177
  114OSM    C1511813   4.391   4.109  11.554  0.4313  0.8318  0.8609
  114OSM   H15A11814   4.285   4.119  11.570  0.8176 -0.0041  4.8701
  114OSM   H15B11815   4.436   4.168  11.632  2.9597 -1.9765  1.7270
  114OSM   H15C11816   4.417   4.009  11.585  1.0999  0.8510  0.3812
  114OSM    C1411817   4.586   4.131  11.429  0.3241 -0.2392  0.0001
  114OSM   H14A11818   4.608   4.028  11.451  1.7976  0.0140 -0.1562
  114OSM   H14B11819   4.628   4.186  11.511  0.1865  0.4727 -0.3977
  114OSM   H14C11820   4.635   4.158  11.336 -0.2285 -0.1214 -0.2626
  114OSM    C1311821   4.383   4.042  11.320  0.6376  0.9910 -0.5902
  114OSM   H13A11822   4.451   3.959  11.326 -0.8935 -0.2647  0.3253
  114OSM   H13B11823   4.390   4.084  11.221 -0.7945 -1.5745 -1.8782
  114OSM   H13C11824   4.285   4.003  11.343  2.4213 -4.2136 -0.5012
  114OSM    C1211825   4.390   4.288  11.385 -0.1909  0.1555 -0.1688
  114OSM   H12A11826   4.404   4.302  11.279  1.4031  0.7566  0.0937
  114OSM   H12B11827   4.454   4.363  11.429 -1.5916  0.7988  0.8394
  114OSM    C1111828   4.245   4.318  11.413 -0.4900  0.2809 -0.2274
  114OSM   H11A11829   4.230   4.368  11.511 -0.8547  0.5789 -0.4347
  114OSM   H11B11830   4.184   4.226  11.404 -1.4411  0.9670 -1.0753
  114OSM      P11831   4.234   4.558  11.317  0.0516 -0.4063 -0.2964
  114OSM    O1311832   4.128   4.626  11.392  0.0410  0.4562  0.1306
  114OSM    O1411833   4.376   4.585  11.366 -0.1001  0.5486 -0.1100
  114OSM    O1111834   4.225   4.603  11.168  0.3426 -0.0256  0.1994
  114OSM    O1211835   4.207   4.406  11.303 -0.0435  0.1207 -0.3250
  114OSM    C1S11836   4.303   4.531  11.070 -0.0527 -0.5128 -0.0591
  114OSM    H1S11837   4.308   4.422  11.088 -1.9652 -0.9908 -1.8937
  114OSM    H1T11838   4.406   4.570  11.056 -0.3887  0.0120 -1.2600
  114OSM     NF11839   4.328   4.444  10.842  0.1811 -0.4391  0.4193
  114OSM    HNF11840   4.421   4.473  10.817  0.5501 -1.3282  0.7152
  114OSM    C2S11841   4.253   4.539  10.924  0.3931 -0.1538  1.0213
  114OSM    H2S11842   4.143   4.522  10.920  0.2181  1.0447 -0.6177
  114OSM    C3S11843   4.262   4.688  10.877  0.6792 -0.2508  0.3003
  114OSM    H3S11844   4.368   4.717  10.892  0.5296  0.0069  0.8933
  114OSM     O311845   4.191   4.772  10.960  0.5243  0.2657 -0.3784
  114OSM    HO311846   4.179   4.714  11.035  0.2995  1.8827  0.8902
  114OSM    C4S11847   4.222   4.709  10.733 -0.1569  0.6589  0.1091
  114OSM    H4S11848   4.139   4.641  10.706  1.0590 -1.0480  0.5129
  114OSM    C5S11849   4.300   4.751  10.636  0.2383  0.3393 -0.3138
  114OSM    H5S11850   4.406   4.766  10.663 -0.3283 -1.2391  3.5317
  114OSM    C6S11851   4.268   4.760  10.489 -0.6714  0.0599 -0.3547
  114OSM    H6S11852   4.348   4.704  10.435 -0.0791  0.3700  0.1893
  114OSM    H6T11853   4.259   4.866  10.457 -0.1115  0.5919  1.1773
  114OSM    C7S11854   4.135   4.698  10.446  0.7783 -0.2981  0.6335
  114OSM    H7S11855   4.059   4.713  10.526  0.4498 -0.0133  0.2711
  114OSM    H7T11856   4.149   4.591  10.421 -0.9655 -0.5455  0.5544
  114OSM    C8S11857   4.084   4.775  10.322  0.5573 -0.2280  0.1083
  114OSM    H8S11858   4.098   4.884  10.339 -0.1732  0.3667 -2.6912
  114OSM    H8T11859   3.974   4.761  10.318  0.6823 -2.5659  2.3393
  114OSM    C9S11860   4.136   4.720  10.192 -0.2171  0.8257  0.3238
  114OSM    H9S11861   4.120   4.610  10.192  0.9747  0.6460  1.2104
  114OSM    H9T11862   4.246   4.731  10.188 -0.2659  1.6542  0.9293
  114OSM   C10S11863   4.071   4.788  10.068 -0.1472  0.2925  0.0622
  114OSM   H10S11864   4.113   4.890  10.058  1.0545 -0.2313 -0.3900
  114OSM   H10T11865   3.960   4.790  10.074 -0.2716 -2.1092 -0.2700
  114OSM   C11S11866   4.120   4.719   9.937  0.2167  1.0327  0.5039
  114OSM   H11S11867   4.087   4.613   9.935  0.0197  1.1027 -0.9191
  114OSM   H11T11868   4.230   4.731   9.932  0.2961 -0.0092 -0.9798
  114OSM   C12S11869   4.052   4.784   9.812  0.2315 -0.0259  0.1293
  114OSM   H12S11870   4.076   4.889   9.787  1.0747  0.0787  1.2992
  114OSM   H12T11871   3.944   4.786   9.837  0.3713  1.2362  0.7083
  114OSM   C13S11872   4.078   4.708   9.680  0.3354 -0.0578  0.0569
  114OSM   H13S11873   4.064   4.599   9.697  1.9044 -0.0552  1.6149
  114OSM   H13T11874   4.182   4.712   9.641  0.8790  0.5955  1.5141
  114OSM   C14S11875   3.986   4.763   9.567 -0.9209  0.6721 -0.7090
  114OSM   H14S11876   4.015   4.870   9.558 -1.5740  1.0088  0.8999
  114OSM   H14T11877   3.884   4.754   9.610  0.2704 -0.4784  2.0976
  114OSM   C15S11878   3.986   4.697   9.432 -0.1615 -0.0112 -0.1539
  114OSM   H15S11879   3.944   4.594   9.440 -0.8101  0.2068 -0.7061
  114OSM   H15T11880   4.092   4.689   9.400 -0.3198  1.0496 -0.9821
  114OSM   C16S11881   3.913   4.770   9.322  0.3656  0.0094  0.3233
  114OSM   H16S11882   3.933   4.879   9.329  0.4299  0.0288 -0.1429
  114OSM   H16T11883   3.804   4.765   9.341  0.7700 -1.7169  2.7676
  114OSM   C17S11884   3.945   4.713   9.186 -0.4382 -0.2172 -0.1788
  114OSM   H17S11885   3.935   4.604   9.169  3.5658 -0.8592  0.6088
  114OSM   H17T11886   4.053   4.731   9.168 -0.1985 -0.4093  1.0024
  114OSM   C18S11887   3.844   4.781   9.091 -0.0873 -0.1650 -0.3790
  114OSM   H18S11888   3.883   4.876   9.047 -0.4430  1.0432  1.7803
  114OSM   H18T11889   3.754   4.809   9.150  0.1559  1.5436 -0.7513
  114OSM   H18U11890   3.807   4.710   9.014 -0.1043 -0.0157 -0.5096
  114OSM    C1F11891   4.282   4.319  10.824 -0.2660  0.1383  0.4268
  114OSM     OF11892   4.176   4.280  10.880 -0.2585  0.2621 -0.5594
  114OSM    C2F11893   4.361   4.231  10.734  0.3669  0.2183  0.3040
  114OSM    H2F11894   4.308   4.134  10.744 -0.8717  0.9707  1.3651
  114OSM    H2G11895   4.469   4.226  10.762  0.8844  0.4903 -1.5289
  114OSM    C3F11896   4.359   4.300  10.590  0.2632  0.0749  0.7741
  114OSM    H3F11897   4.443   4.372  10.588 -0.1173  0.5057 -0.5243
  114OSM    H3G11898   4.268   4.360  10.569  1.3740  1.3578 -0.5969
  114OSM    C4F11899   4.375   4.187  10.479 -0.1112 -0.6194 -0.6045
  114OSM    H4F11900   4.312   4.104  10.516 -2.8286  1.5139 -0.1147
  114OSM    H4G11901   4.483   4.162  10.472 -0.0978 -0.3300 -1.7269
  114OSM    C5F11902   4.325   4.241  10.343  0.3073 -0.2596 -0.1104
  114OSM    H5F11903   4.220   4.275  10.350  0.3142 -0.3332  0.4160
  114OSM    H5G11904   4.334   4.166  10.262 -1.6977  0.0620 -0.6650
  114OSM    C6F11905   4.402   4.364  10.298 -0.3951 -0.3728  0.4223
  114OSM    H6F11906   4.507   4.337  10.272 -0.1541 -0.4839  1.4634
  114OSM    H6G11907   4.407   4.440  10.380  1.5416 -0.9104  0.8585
  114OSM    C7F11908   4.342   4.443  10.174  0.9806  1.0997 -0.3868
  114OSM    H7F11909   4.379   4.548  10.162  3.6494  0.2258 -0.5625
  114OSM    H7G11910   4.234   4.453  10.198  0.9973 -1.3330  0.9442
  114OSM    C8F11911   4.349   4.367  10.043 -0.1669 -0.4138 -0.0030
  114OSM    H8F11912   4.302   4.423   9.959 -1.3643  1.8453  2.0162
  114OSM    H8G11913   4.293   4.271  10.041 -1.1095 -0.0326  2.7262
  114OSM    C9F11914   4.490   4.342  10.001 -0.1817 -0.3159  0.1052
  114OSM    H9F11915   4.528   4.250  10.047 -1.7384 -1.6543 -1.1562
  114OSM   C10F11916   4.573   4.415   9.920  0.1956 -0.5625 -0.5472
  114OSM   H10F11917   4.678   4.383   9.910  1.6533  3.5644 -0.0302
  114OSM   C11F11918   4.530   4.540   9.849  0.3538  0.3452  0.2307
  114OSM   H11F11919   4.618   4.603   9.822 -0.3356  0.3544 -2.2101
  114OSM   H11G11920   4.466   4.602   9.915 -2.1829 -1.0802 -0.7606
  114OSM   C12F11921   4.445   4.492   9.722 -0.5996 -0.7754 -0.6091
  114OSM   H12F11922   4.403   4.585   9.676 -0.7955  0.1556  1.3162
  114OSM   H12G11923   4.356   4.430   9.748 -0.7433 -0.3726 -0.1088
  114OSM   C13F11924   4.526   4.414   9.626  0.1131  0.3397 -0.1078
  114OSM   H13F11925   4.546   4.311   9.661  2.0618  1.5909  2.8496
  114OSM   H13G11926   4.622   4.467   9.605  0.3043 -0.4033 -1.1880
  114OSM   C14F11927   4.458   4.393   9.487 -0.5773  0.4756 -0.1533
  114OSM   H14F11928   4.402   4.483   9.452 -0.5002  0.7246  0.3546
  114OSM   H14G11929   4.379   4.315   9.493 -1.3144  1.1367 -1.0126
  114OSM   C15F11930   4.568   4.348   9.385  0.8327  0.0571  0.3213
  114OSM   H15F11931   4.518   4.287   9.307  0.4977 -0.1905  0.7284
  114OSM   H15G11932   4.627   4.271   9.440 -0.0128 -0.4209  0.5633
  114OSM   C16F11933   4.644   4.461   9.323  0.9150  0.6953 -0.3544
  114OSM   H16F11934   4.664   4.538   9.401  2.5492 -1.5112  1.5670
  114OSM   H16G11935   4.571   4.509   9.255  0.6781  0.9584  0.0813
  114OSM   C17F11936   4.761   4.419   9.237  0.5824 -0.0521  0.0590
  114OSM   H17F11937   4.722   4.336   9.173  1.3507 -0.1438 -0.3066
  114OSM   H17G11938   4.853   4.384   9.290 -0.0718 -2.1501 -0.0929
  114OSM   C18F11939   4.802   4.524   9.136  0.5106  0.3151  0.0606
  114OSM   H18F11940   4.883   4.480   9.074  2.2065  0.6732  1.9109
  114OSM   H18G11941   4.848   4.613   9.184 -0.7969  0.8546  0.3436
  114OSM   H18H11942   4.717   4.552   9.071  0.9235  3.2940  0.6577
  115OSM      N11943   4.774   5.307   6.083 -0.0024 -0.4935 -0.5066
  115OSM    C1511944   4.792   5.192   6.179 -0.1431 -0.1069 -0.3287
  115OSM   H15A11945   4.877   5.126   6.160 -0.4061 -1.5319  2.8945
  115OSM   H15B11946   4.702   5.133   6.178 -0.2678  0.0570  0.7701
  115OSM   H15C11947   4.808   5.211   6.284 -2.5864 -0.1262  0.1039
  115OSM    C1411948   4.909   5.372   6.076 -0.6402 -0.2259 -0.0212
  115OSM   H14A11949   4.979   5.332   6.004 -1.3550  0.2573 -1.0140
  115OSM   H14B11950   4.964   5.379   6.169 -0.1159  0.5458 -0.3803
  115OSM   H14C11951   4.894   5.471   6.037 -1.1041 -1.3910 -3.0595
  115OSM    C1311952   4.744   5.259   5.948  0.1703  0.3305 -0.0749
  115OSM   H13A11953   4.734   5.342   5.879 -1.4683 -0.2163 -0.5484
  115OSM   H13B11954   4.649   5.207   5.956  1.4990 -2.1676  0.5012
  115OSM   H13C11955   4.812   5.182   5.912  0.7391  1.4597 -1.5201
  115OSM    C1211956   4.669   5.401   6.142  1.3981 -1.0816  0.3863
  115OSM   H12A11957   4.709   5.427   6.239  0.0480  1.0295  0.4389
  115OSM   H12B11958   4.578   5.348   6.163  2.0316 -1.9923  0.9185
  115OSM    C1111959   4.649   5.548   6.080 -0.1557 -0.2892  0.3338
  115OSM   H11A11960   4.582   5.609   6.143  1.0650  1.1143  0.3262
  115OSM   H11B11961   4.595   5.530   5.984 -0.5421  0.0055  0.4941
  115OSM      P11962   4.790   5.775   6.038 -0.7065  0.0903  0.1666
  115OSM    O1311963   4.923   5.807   5.986  0.4397 -0.1289 -0.1556
  115OSM    O1411964   4.672   5.813   5.963 -0.5618  0.2198  0.4407
  115OSM    O1111965   4.775   5.846   6.178  0.2059 -0.2618  0.4381
  115OSM    O1211966   4.778   5.615   6.068  0.0384 -0.1344 -0.1944
  115OSM    C1S11967   4.684   5.815   6.284 -0.4398  0.1419  0.2791
  115OSM    H1S11968   4.697   5.709   6.313 -1.2962 -0.5353 -1.6452
  115OSM    H1T11969   4.581   5.824   6.244 -0.0693  1.7624 -0.4046
  115OSM     NF11970   4.625   5.863   6.514 -0.1735 -0.0745 -0.7059
  115OSM    HNF11971   4.537   5.908   6.530 -0.5017 -1.6813  3.0968
  115OSM    C2S11972   4.707   5.908   6.405 -1.0065 -0.6856  0.1080
  115OSM    H2S11973   4.814   5.904   6.434 -1.1000 -0.4030  0.5002
  115OSM    C3S11974   4.680   6.060   6.363  0.4602 -0.0033 -0.0426
  115OSM    H3S11975   4.572   6.059   6.336  0.0841  1.7730  1.2218
  115OSM     O311976   4.745   6.103   6.238  0.9539  0.6333 -0.1818
  115OSM    HO311977   4.774   6.023   6.193 -0.2943  1.0485 -1.8216
  115OSM    C4S11978   4.706   6.165   6.466  0.2399 -1.1130  0.3210
  115OSM    H4S11979   4.619   6.225   6.495  0.3570  0.1816 -1.7778
  115OSM    C5S11980   4.826   6.213   6.498  0.6426 -0.0070  0.4277
  115OSM    H5S11981   4.916   6.163   6.457  1.3465  1.6869 -0.2041
  115OSM    C6S11982   4.839   6.329   6.596 -0.3030 -0.6055  0.2640
  115OSM    H6S11983   4.790   6.416   6.548 -1.0851 -1.8860 -1.3342
  115OSM    H6T11984   4.947   6.353   6.613 -1.0974  2.2014  1.9591
  115OSM    C7S11985   4.773   6.328   6.736  0.2773 -0.0992 -0.0942
  115OSM    H7S11986   4.662   6.333   6.730  0.3109 -0.2511 -0.9672
  115OSM    H7T11987   4.806   6.422   6.787  0.3020 -0.2952  0.2558
  115OSM    C8S11988   4.810   6.202   6.818 -0.9295  0.7252 -0.5668
  115OSM    H8S11989   4.919   6.183   6.807 -1.1721  0.1496 -2.2096
  115OSM    H8T11990   4.761   6.116   6.768  0.6861 -0.6749  0.1755
  115OSM    C9S11991   4.765   6.213   6.970 -0.0469 -0.0781  0.5632
  115OSM    H9S11992   4.771   6.117   7.025 -2.3327  0.1437  1.3061
  115OSM    H9T11993   4.656   6.229   6.957  0.2458  2.5557  0.8865
  115OSM   C10S11994   4.823   6.328   7.055  0.0519 -0.1422  0.0186
  115OSM   H10S11995   4.825   6.423   6.998  1.8608 -1.0087 -1.4806
  115OSM   H10T11996   4.928   6.311   7.085  0.1919 -1.7783 -1.2189
  115OSM   C11S11997   4.750   6.345   7.192  0.2425  0.1690  0.3205
  115OSM   H11S11998   4.642   6.358   7.171  0.5860  1.5225 -0.7834
  115OSM   H11T11999   4.799   6.433   7.240  0.7946  1.5135 -2.5055
  115OSM   C12S12000   4.783   6.219   7.279  0.1187 -0.2744 -0.5466
  115OSM   H12S12001   4.891   6.192   7.277  0.0453 -0.6147 -0.1602
  115OSM   H12T12002   4.724   6.131   7.244 -1.1385 -0.0633  0.8971
  115OSM   C13S12003   4.734   6.219   7.422 -0.1100  0.3489 -0.1327
  115OSM   H13S12004   4.736   6.118   7.467  0.4235  0.6724  0.5925
  115OSM   H13T12005   4.625   6.237   7.422  0.1131  2.1532  2.4896
  115OSM   C14S12006   4.792   6.327   7.517  0.4952 -0.2406  0.6943
  115OSM   H14S12007   4.779   6.430   7.480 -1.2974 -0.5344  0.4525
  115OSM   H14T12008   4.903   6.313   7.514  0.3763 -1.1900 -1.5430
  115OSM   C15S12009   4.735   6.312   7.651  0.4537 -0.9471  0.2933
  115OSM   H15S12010   4.701   6.207   7.663  0.3106 -1.4820 -3.7110
  115OSM   H15T12011   4.644   6.375   7.656  0.5711 -0.7445 -0.1668
  115OSM   C16S12012   4.834   6.337   7.771  0.3321 -1.2314 -0.0482
  115OSM   H16S12013   4.885   6.434   7.759  2.3192 -2.1699  0.4446
  115OSM   H16T12014   4.918   6.264   7.777  1.0739 -0.3147  1.0042
  115OSM   C17S12015   4.754   6.342   7.901 -0.0076 -0.5969 -0.7100
  115OSM   H17S12016   4.712   6.242   7.927 -3.3005  1.3899  2.5919
  115OSM   H17T12017   4.669   6.409   7.874  0.2577  0.5332  1.1401
  115OSM   C18S12018   4.840   6.399   8.015 -0.0842 -0.9014 -1.0907
  115OSM   H18S12019   4.941   6.353   8.016  1.3570  2.0050  1.5449
  115OSM   H18T12020   4.797   6.384   8.116 -0.7372  4.3572 -0.2956
  115OSM   H18U12021   4.856   6.509   8.008  1.0443 -0.9988 -0.2780
  115OSM    C1F12022   4.653   5.748   6.581 -0.8338  0.0171  0.0191
  115OSM     OF12023   4.753   5.680   6.558  0.6008 -0.3543  0.6422
  115OSM    C2F12024   4.558   5.704   6.694 -0.9571 -0.1346  0.1512
  115OSM    H2F12025   4.556   5.593   6.691 -1.0901 -0.1687  1.1110
  115OSM    H2G12026   4.457   5.738   6.664 -1.0882 -0.9956 -0.4105
  115OSM    C3F12027   4.612   5.754   6.830  0.1918 -0.5134 -0.1057
  115OSM    H3F12028   4.646   5.860   6.830  1.8046 -1.0103  0.1239
  115OSM    H3G12029   4.701   5.691   6.850  0.6274  0.3029  0.5970
  115OSM    C4F12030   4.521   5.725   6.947  0.5141  0.0568 -0.6066
  115OSM    H4F12031   4.479   5.622   6.949 -2.0029  1.0055  0.0985
  115OSM    H4G12032   4.435   5.794   6.931  1.1964  0.9164 -0.6040
  115OSM    C5F12033   4.572   5.760   7.087  0.1697 -0.0384  0.0155
  115OSM    H5F12034   4.649   5.838   7.070  1.1263 -0.7792  0.8488
  115OSM    H5G12035   4.630   5.674   7.126  2.0050  0.8972 -0.5548
  115OSM    C6F12036   4.475   5.806   7.188  0.5437 -0.2262  0.2811
  115OSM    H6F12037   4.397   5.858   7.129  1.0330 -0.9449 -1.0380
  115OSM    H6G12038   4.512   5.874   7.268  1.6982  0.0295 -0.4381
  115OSM    C7F12039   4.408   5.694   7.256  0.2017  0.2843  0.1812
  115OSM    H7F12040   4.385   5.615   7.181  0.2762 -0.1392  0.6064
  115OSM    H7G12041   4.312   5.718   7.306  0.5016 -1.2311  1.5533
  115OSM    C8F12042   4.491   5.636   7.371  0.8017 -0.2699 -0.1892
  115OSM    H8F12043   4.589   5.605   7.327  1.9893  1.6618  0.9141
  115OSM    H8G12044   4.438   5.550   7.416 -0.3283  1.0435  1.0643
  115OSM    C9F12045   4.502   5.737   7.488  0.0811  0.1516 -0.3725
  115OSM    H9F12046   4.576   5.818   7.482  2.3897 -1.8233 -0.0884
  115OSM   C10F12047   4.437   5.729   7.609  0.2398 -0.2848  0.7211
  115OSM   H10F12048   4.459   5.804   7.687  0.0203  0.4574  0.0800
  115OSM   C11F12049   4.355   5.609   7.654 -0.0636 -0.3215  0.2237
  115OSM   H11F12050   4.402   5.515   7.619  0.8446 -0.4991  1.8176
  115OSM   H11G12051   4.260   5.617   7.597  1.0753 -2.4233 -2.1946
  115OSM   C12F12052   4.331   5.617   7.797 -0.4720  0.1658  0.4690
  115OSM   H12F12053   4.261   5.539   7.833 -0.2041  0.5545  1.8992
  115OSM   H12G12054   4.270   5.701   7.839  1.2205  1.1106  1.1406
  115OSM   C13F12055   4.461   5.615   7.883  0.3031  0.0515 -0.0625
  115OSM   H13F12056   4.511   5.714   7.882  1.2150 -0.3865 -1.5789
  115OSM   H13G12057   4.536   5.540   7.848 -1.3193 -2.1368  0.9091
  115OSM   C14F12058   4.431   5.579   8.031 -0.4434  0.0111 -0.3418
  115OSM   H14F12059   4.404   5.471   8.030 -0.9795  0.1364 -0.0271
  115OSM   H14G12060   4.346   5.636   8.074  0.9621  1.8526  0.0930
  115OSM   C15F12061   4.552   5.602   8.126  1.0859  0.1497  0.6157
  115OSM   H15F12062   4.562   5.712   8.114 -1.0063  0.5637  2.2027
  115OSM   H15G12063   4.634   5.535   8.092  0.8780  0.1704  0.0731
  115OSM   C16F12064   4.515   5.584   8.278  0.0290  0.2425 -0.3689
  115OSM   H16F12065   4.485   5.477   8.286 -0.4971  0.5116  2.1280
  115OSM   H16G12066   4.426   5.639   8.314  0.3803 -0.0548  1.0320
  115OSM   C17F12067   4.628   5.627   8.371  0.6029 -0.3262  0.0593
  115OSM   H17F12068   4.599   5.610   8.477  0.9543 -2.7554 -0.1848
  115OSM   H17G12069   4.654   5.735   8.362  2.3622 -0.6611  0.7013
  115OSM   C18F12070   4.758   5.556   8.335 -0.0571  0.2303  0.1333
  115OSM   H18F12071   4.782   5.600   8.236  0.9074  1.7325  1.0003
  115OSM   H18G12072   4.743   5.446   8.334  2.2686 -0.1491  1.2467
  115OSM   H18H12073   4.839   5.568   8.411 -0.9548 -1.7415  1.4895
  116OSM      N12074   5.386   1.385   6.168 -0.3675  0.4026  0.6779
  116OSM    C1512075   5.293   1.304   6.249 -0.4019 -0.0561 -0.6051
  116OSM   H15A12076   5.201   1.304   6.192  0.5067 -0.6867 -2.0988
  116OSM   H15B12077   5.287   1.355   6.344 -1.0346  2.9917 -2.1539
  116OSM   H15C12078   5.325   1.202   6.262  0.2279  0.0688 -1.1931
  116OSM    C1412079   5.339   1.526   6.153 -0.3961  0.0405 -0.6359
  116OSM   H14A12080   5.242   1.519   6.106 -0.1108  1.5930 -1.5173
  116OSM   H14B12081   5.402   1.584   6.087 -0.4230 -0.6917 -1.3077
  116OSM   H14C12082   5.332   1.586   6.243  0.3098 -0.8813  0.0524
  116OSM    C1312083   5.522   1.381   6.238 -1.0007 -0.0025 -0.2751
  116OSM   H13A12084   5.524   1.424   6.337  1.0441 -1.2298  0.2909
  116OSM   H13B12085   5.595   1.438   6.182 -0.5105 -0.6425 -0.3073
  116OSM   H13C12086   5.549   1.277   6.250 -0.9585  0.2821  2.7629
  116OSM    C1212087   5.402   1.331   6.033 -0.8057  0.1901 -0.2692
  116OSM   H12A12088   5.483   1.379   5.980  1.3046 -1.9614  0.8309
  116OSM   H12B12089   5.317   1.358   5.971 -1.7927  2.0608  1.7480
  116OSM    C1112090   5.403   1.176   6.009  0.4972 -0.4084 -0.3058
  116OSM   H11A12091   5.421   1.151   5.902 -3.0101 -1.9529 -0.6419
  116OSM   H11B12092   5.303   1.137   6.035 -0.0181  1.1100  0.0532
  116OSM      P12093   5.472   0.979   6.170  0.0704 -0.1828  0.5469
  116OSM    O1312094   5.400   0.886   6.080  0.7639  0.3553 -0.3266
  116OSM    O1412095   5.606   0.934   6.217  0.1405  0.4581 -0.1517
  116OSM    O1112096   5.387   1.024   6.298  0.1791 -0.1283  0.7189
  116OSM    O1212097   5.497   1.122   6.103 -0.3359 -0.3668  0.4247
  116OSM    C1S12098   5.325   0.927   6.383  0.5294  0.7359 -0.3750
  116OSM    H1S12099   5.331   0.827   6.336  1.9175  0.4150  0.4415
  116OSM    H1T12100   5.216   0.949   6.378  0.3482  0.4668  1.6623
  116OSM     NF12101   5.343   0.815   6.613 -0.3148  0.1340  0.0368
  116OSM    HNF12102   5.275   0.819   6.686  1.3648  0.2934  1.6669
  116OSM    C2S12103   5.376   0.935   6.533 -0.1099 -0.3471 -0.7324
  116OSM    H2S12104   5.486   0.949   6.534 -0.4356  3.0710 -0.4938
  116OSM    C3S12105   5.322   1.067   6.589 -1.0001  0.1125 -0.0746
  116OSM    H3S12106   5.212   1.075   6.570 -0.9502  2.7650  0.4309
  116OSM     O312107   5.375   1.182   6.514 -0.5891  0.2918 -0.1617
  116OSM    HO312108   5.382   1.141   6.428  2.2117  0.6874 -0.2266
  116OSM    C4S12109   5.366   1.097   6.731  0.6512 -0.1982  0.4388
  116OSM    H4S12110   5.472   1.126   6.736 -0.0442  2.8763 -0.4211
  116OSM    C5S12111   5.275   1.109   6.835 -0.7294 -0.0128 -0.2266
  116OSM    H5S12112   5.169   1.104   6.807 -0.2211 -0.3495 -2.2948
  116OSM    C6S12113   5.320   1.159   6.972 -0.3447 -0.1770 -0.1398
  116OSM    H6S12114   5.323   1.270   6.977  2.8883 -0.1280 -0.7000
  116OSM    H6T12115   5.421   1.120   6.996 -0.7102 -0.8284  0.3884
  116OSM    C7S12116   5.226   1.100   7.077  0.3099 -0.1145  0.0376
  116OSM    H7S12117   5.229   0.989   7.074 -0.0861 -0.1893  1.6408
  116OSM    H7T12118   5.120   1.129   7.065  0.4227  1.2575  1.9037
  116OSM    C8S12119   5.278   1.124   7.219 -0.2123 -0.1644 -0.2517
  116OSM    H8S12120   5.217   1.209   7.257 -0.3543 -1.3141  2.2991
  116OSM    H8T12121   5.384   1.154   7.209 -0.3688  1.0768  1.3000
  116OSM    C9S12122   5.266   1.013   7.328  0.1944  0.0663  0.5181
  116OSM    H9S12123   5.321   0.924   7.289  1.8149  1.9974 -1.9418
  116OSM    H9T12124   5.159   0.982   7.332 -0.0652  0.3557 -2.3947
  116OSM   C10S12125   5.333   1.049   7.458 -0.5362  0.1571 -0.0994
  116OSM   H10S12126   5.273   1.116   7.523 -0.2736 -1.0668  1.4738
  116OSM   H10T12127   5.438   1.086   7.451 -0.0714 -0.4158  2.5008
  116OSM   C11S12128   5.344   0.926   7.545 -0.8036 -0.4048  0.2338
  116OSM   H11S12129   5.413   0.855   7.496 -0.4963 -0.0763  0.1912
  116OSM   H11T12130   5.246   0.873   7.552 -0.3303 -1.5514 -1.2358
  116OSM   C12S12131   5.405   0.962   7.685 -0.4959  0.0574  0.7358
  116OSM   H12S12132   5.331   1.031   7.730 -1.8603 -1.3843  0.7883
  116OSM   H12T12133   5.498   1.018   7.661 -0.5972 -0.1110 -0.0795
  116OSM   C13S12134   5.428   0.840   7.774 -0.0021  0.5898 -0.6104
  116OSM   H13S12135   5.468   0.869   7.873 -0.3884  1.1901 -0.6221
  116OSM   H13T12136   5.493   0.768   7.720  0.1431 -0.6334  1.1012
  116OSM   C14S12137   5.302   0.764   7.810  0.1696  0.0384 -0.4584
  116OSM   H14S12138   5.265   0.716   7.717 -0.3219  1.0147 -0.7739
  116OSM   H14T12139   5.230   0.844   7.837  1.1855  1.0406 -0.6202
  116OSM   C15S12140   5.319   0.661   7.923  0.4998 -0.1473  0.5489
  116OSM   H15S12141   5.321   0.717   8.019  2.4270 -0.3641  0.6920
  116OSM   H15T12142   5.424   0.623   7.918  0.5601  0.1443 -0.5389
  116OSM   C16S12143   5.202   0.558   7.914  0.2784  0.0498 -0.3800
  116OSM   H16S12144   5.210   0.510   7.815  0.3495  2.6977 -1.7487
  116OSM   H16T12145   5.101   0.603   7.923  0.5999  0.9279 -0.9741
  116OSM   C17S12146   5.209   0.445   8.017 -0.3800 -0.6685  0.0035
  116OSM   H17S12147   5.290   0.371   8.000 -1.2329 -1.7345  0.4421
  116OSM   H17T12148   5.107   0.401   8.011 -0.7280  0.3269 -2.7507
  116OSM   C18S12149   5.235   0.504   8.156 -1.1914 -0.5880 -0.4178
  116OSM   H18S12150   5.338   0.547   8.159 -1.4738  0.1755 -1.1310
  116OSM   H18T12151   5.224   0.430   8.238  1.8729 -0.7768 -0.0432
  116OSM   H18U12152   5.161   0.582   8.185  0.7375  0.7003  1.3251
  116OSM    C1F12153   5.394   0.699   6.586 -0.6320 -0.0938 -0.2300
  116OSM     OF12154   5.482   0.694   6.502  0.1659 -0.0399  0.1339
  116OSM    C2F12155   5.336   0.586   6.665 -0.0816 -0.3573  0.1909
  116OSM    H2F12156   5.370   0.485   6.636 -0.1279 -0.5890  0.9370
  116OSM    H2G12157   5.227   0.580   6.641 -0.1655  0.9171  0.1577
  116OSM    C3F12158   5.350   0.598   6.813 -0.1356  0.3246 -0.8446
  116OSM    H3F12159   5.290   0.683   6.853 -4.3487 -2.2790 -0.9756
  116OSM    H3G12160   5.453   0.625   6.842  0.3665 -0.5187 -1.7759
  116OSM    C4F12161   5.281   0.484   6.884  0.2612 -0.6201  0.0121
  116OSM    H4F12162   5.313   0.381   6.859 -4.1698 -2.5703  1.2458
  116OSM    H4G12163   5.178   0.485   6.842  0.5646 -0.4917 -0.7391
  116OSM    C5F12164   5.284   0.506   7.040 -0.2820  0.7217  1.3716
  116OSM    H5F12165   5.212   0.439   7.092 -0.2877  0.1207  0.6086
  116OSM    H5G12166   5.255   0.611   7.062  1.1907  1.7102 -0.9732
  116OSM    C6F12167   5.432   0.489   7.102  0.0443 -0.2873  0.4004
  116OSM    H6F12168   5.503   0.541   7.036  2.3929 -2.5085  1.0253
  116OSM    H6G12169   5.478   0.388   7.097 -1.6132 -1.0414 -0.6759
  116OSM    C7F12170   5.439   0.531   7.246  0.7252  0.3110  0.2119
  116OSM    H7F12171   5.423   0.640   7.255 -0.0111  0.4799 -2.3476
  116OSM    H7G12172   5.546   0.514   7.269  0.5273 -1.9899 -0.3375
  116OSM    C8F12173   5.360   0.445   7.343 -0.1344  0.1105  0.5601
  116OSM    H8F12174   5.377   0.335   7.346 -1.1762 -0.1608 -1.7153
  116OSM    H8G12175   5.257   0.451   7.302  0.6885  0.2563 -1.6361
  116OSM    C9F12176   5.369   0.510   7.472  0.1957 -0.4222 -0.3544
  116OSM    H9F12177   5.340   0.616   7.469 -0.8765 -0.6981 -0.1892
  116OSM   C10F12178   5.400   0.446   7.588 -0.4430  0.0662  0.0269
  116OSM   H10F12179   5.404   0.504   7.682 -2.5864  1.4411 -0.6409
  116OSM   C11F12180   5.431   0.304   7.599  0.0254  0.1910 -0.4760
  116OSM   H11F12181   5.537   0.276   7.580 -0.0768 -0.0647 -0.6687
  116OSM   H11G12182   5.372   0.243   7.527  1.3602 -1.2253 -0.4444
  116OSM   C12F12183   5.385   0.260   7.743 -0.3201 -0.0640 -0.0427
  116OSM   H12F12184   5.279   0.290   7.761 -0.1484 -0.5559  2.0564
  116OSM   H12G12185   5.447   0.310   7.821 -0.8549 -1.4883  1.3571
  116OSM   C13F12186   5.384   0.109   7.765  0.0841 -0.0995  0.2276
  116OSM   H13F12187   5.486   0.074   7.740  0.7100  1.9179 -0.2721
  116OSM   H13G12188   5.318   0.054   7.694  3.0264 -2.4526 -0.9194
  116OSM   C14F12189   5.350   0.050   7.904 -0.8176  0.2664  0.1114
  116OSM   H14F12190   5.261   0.109   7.933 -2.2216 -0.8594 -1.6461
  116OSM   H14G12191   5.435   0.079   7.970 -2.1621  1.7933  1.2453
  116OSM   C15F12192   5.324  -0.094   7.908 -0.2555  0.3080 -0.0063
  116OSM   H15F12193   5.421  -0.134   7.870 -1.5369 -0.2737 -2.9200
  116OSM   H15G12194   5.244  -0.136   7.843 -0.0424 -2.2342  1.2416
  116OSM   C16F12195   5.299  -0.143   8.048 -0.5257  0.2814 -0.2881
  116OSM   H16F12196   5.193  -0.129   8.078 -0.8990 -0.2930 -1.2954
  116OSM   H16G12197   5.356  -0.081   8.122 -0.9318  0.6923 -0.3150
  116OSM   C17F12198   5.331  -0.294   8.068 -0.1217  1.1360  0.4356
  116OSM   H17F12199   5.319  -0.314   8.177 -0.5184 -0.6619  0.0870
  116OSM   H17G12200   5.433  -0.309   8.027 -1.0605  0.3363 -1.7719
  116OSM   C18F12201   5.234  -0.379   7.986 -0.3549 -0.4100  0.1478
  116OSM   H18F12202   5.252  -0.374   7.877 -0.2973 -0.4890  0.1541
  116OSM   H18G12203   5.134  -0.349   8.024  0.1758  1.7288 -0.0449
  116OSM   H18H12204   5.238  -0.487   8.014 -0.9115 -0.4323  0.1633
  117OSM      N12205   2.593   6.531   6.262 -0.9366 -0.5777  0.4276
  117OSM    C1512206   2.689   6.422   6.313  0.8298  0.2288 -0.2850
  117OSM   H15A12207   2.768   6.466   6.371  0.6036 -0.8978  0.9455
  117OSM   H15B12208   2.726   6.353   6.239  0.4960 -0.3383  0.0677
  117OSM   H15C12209   2.641   6.358   6.386  0.3652  1.7316  0.7644
  117OSM    C1412210   2.682   6.637   6.197 -0.1865  0.2802  0.3828
  117OSM   H14A12211   2.724   6.597   6.106 -0.7809  2.3862 -0.8763
  117OSM   H14B12212   2.754   6.676   6.267  0.0474 -1.1937  1.0056
  117OSM   H14C12213   2.621   6.716   6.155 -0.2253 -1.3043 -2.8656
  117OSM    C1312214   2.501   6.480   6.162  0.4191  0.4389 -0.6733
  117OSM   H13A12215   2.432   6.561   6.141 -1.0036 -0.1731  1.3832
  117OSM   H13B12216   2.440   6.399   6.198  0.8265  0.8791  1.1220
  117OSM   H13C12217   2.553   6.448   6.073  1.1219  0.5382 -0.3031
  117OSM    C1212218   2.521   6.586   6.377 -0.5782  0.0640 -0.6212
  117OSM   H12A12219   2.593   6.631   6.443  0.0087 -1.1538 -0.4051
  117OSM   H12B12220   2.472   6.512   6.439  1.4610  0.2257  1.3093
  117OSM    C1112221   2.411   6.692   6.353  0.4447  0.0250 -0.4401
  117OSM   H11A12222   2.445   6.764   6.275  0.5675 -0.2661 -0.6588
  117OSM   H11B12223   2.401   6.747   6.449 -1.4340 -0.0638 -0.5607
  117OSM      P12224   2.151   6.693   6.319 -0.2782  0.4154 -0.1012
  117OSM    O1312225   2.132   6.794   6.211  0.1424  1.0647  0.1293
  117OSM    O1412226   2.062   6.575   6.321  0.2291 -0.0613  0.3976
  117OSM    O1112227   2.143   6.773   6.458 -0.0979 -0.2760 -0.3063
  117OSM    O1212228   2.294   6.634   6.313  0.3133 -0.3595 -0.2675
  117OSM    C1S12229   2.162   6.711   6.586  0.0720  0.3054 -0.5115
  117OSM    H1S12230   2.236   6.629   6.574 -0.4973 -0.3212  0.1472
  117OSM    H1T12231   2.068   6.659   6.615  0.9468 -1.6758 -1.1107
  117OSM     NF12232   2.274   6.758   6.804 -0.2526 -0.2506 -0.4607
  117OSM    HNF12233   2.229   6.768   6.892  0.9582 -2.1767  0.4632
  117OSM    C2S12234   2.207   6.814   6.694  0.4361  0.3363  0.4558
  117OSM    H2S12235   2.277   6.884   6.643 -0.1129 -0.5009 -1.5534
  117OSM    C3S12236   2.086   6.904   6.721 -0.4128  0.5004  0.0897
  117OSM    H3S12237   2.001   6.840   6.753 -0.6297 -0.1825 -1.7702
  117OSM     O312238   2.041   6.971   6.608 -0.5132  0.2695  0.2966
  117OSM    HO312239   2.075   6.919   6.535  0.2970  0.7210  0.3449
  117OSM    C4S12240   2.127   6.998   6.833 -0.5664 -0.3053  0.5527
  117OSM    H4S12241   2.188   7.081   6.795 -1.7393  1.0468  1.4767
  117OSM    C5S12242   2.089   6.995   6.957 -0.1807 -0.8117  0.4773
  117OSM    H5S12243   2.010   6.923   6.984 -0.4458 -0.7768 -0.1908
  117OSM    C6S12244   2.120   7.101   7.065 -0.2006 -0.6861  0.5854
  117OSM    H6S12245   2.067   7.198   7.058 -0.7045 -0.9305  0.9182
  117OSM    H6T12246   2.228   7.126   7.072 -0.4096  0.4870 -0.1155
  117OSM    C7S12247   2.074   7.040   7.198 -0.0354 -0.2363  0.7715
  117OSM    H7S12248   2.145   6.957   7.219 -0.4118 -1.7732 -3.2866
  117OSM    H7T12249   1.975   6.993   7.179  1.1513 -2.7004  0.3010
  117OSM    C8S12250   2.061   7.141   7.311  0.6501  0.4601 -0.0959
  117OSM    H8S12251   1.979   7.214   7.295  0.8238  0.5355 -0.6754
  117OSM    H8T12252   2.144   7.214   7.300  1.1160 -0.1829 -0.9866
  117OSM    C9S12253   2.070   7.084   7.449 -0.2036 -0.9625 -0.4733
  117OSM    H9S12254   2.147   7.004   7.453  0.2204 -0.5077  0.6896
  117OSM    H9T12255   1.974   7.039   7.482 -0.0481 -1.3138 -0.4944
  117OSM   C10S12256   2.123   7.197   7.541 -0.8513 -0.5328 -0.4095
  117OSM   H10S12257   2.056   7.284   7.553 -0.5458 -0.6549  3.0135
  117OSM   H10T12258   2.222   7.226   7.500 -0.5869 -2.8000 -1.5370
  117OSM   C11S12259   2.137   7.150   7.689  0.6983  0.4163  0.1806
  117OSM   H11S12260   2.201   7.222   7.745  0.5557 -0.1124  1.0563
  117OSM   H11T12261   2.195   7.056   7.706  3.5201  2.0993  0.6132
  117OSM   C12S12262   2.006   7.156   7.774 -0.4177  0.0294 -0.2746
  117OSM   H12S12263   1.947   7.082   7.716  0.0985  0.4012 -1.2861
  117OSM   H12T12264   1.972   7.261   7.774  0.7593  0.4313 -1.1259
  117OSM   C13S12265   2.043   7.111   7.912  0.0288 -0.0153 -0.1716
  117OSM   H13S12266   2.139   7.160   7.939  1.1302 -1.2848 -1.6179
  117OSM   H13T12267   2.053   7.001   7.913 -0.8155 -0.1098 -0.8884
  117OSM   C14S12268   1.944   7.149   8.023  0.1898  0.6994  0.1391
  117OSM   H14S12269   1.961   7.097   8.120 -0.8911  0.6440  0.3108
  117OSM   H14T12270   1.849   7.106   7.985 -0.5586  1.2620  1.3252
  117OSM   C15S12271   1.935   7.302   8.037  0.3571 -0.7962 -0.3587
  117OSM   H15S12272   1.859   7.339   7.964  0.8217  0.0165 -0.4442
  117OSM   H15T12273   2.034   7.347   8.013  1.5755 -2.6978  0.8792
  117OSM   C16S12274   1.887   7.341   8.181  0.1873  0.5904  0.0666
  117OSM   H16S12275   1.811   7.267   8.216 -0.3426 -0.1949 -2.5026
  117OSM   H16T12276   1.835   7.438   8.166  0.6351  0.9612  0.8671
  117OSM   C17S12277   2.002   7.355   8.282 -0.6983  0.0508 -0.4064
  117OSM   H17S12278   2.084   7.421   8.245 -1.4799  0.5708 -1.2506
  117OSM   H17T12279   2.046   7.255   8.300  1.1646  0.8922 -0.0920
  117OSM   C18S12280   1.950   7.408   8.414  0.1651 -0.2796  1.0102
  117OSM   H18S12281   2.038   7.432   8.477 -0.0426  1.0713  0.8180
  117OSM   H18T12282   1.884   7.336   8.468 -0.4650 -0.0319  0.5830
  117OSM   H18U12283   1.898   7.505   8.398  0.2073 -0.2657  0.9593
  117OSM    C1F12284   2.394   6.701   6.800  0.1130 -0.2312  0.8183
  117OSM     OF12285   2.446   6.697   6.687  0.2401 -0.3764  0.0822
  117OSM    C2F12286   2.450   6.637   6.923 -0.2537  0.0614 -0.0809
  117OSM    H2F12287   2.461   6.528   6.902  0.7859  0.1290  0.0166
  117OSM    H2G12288   2.389   6.652   7.014  0.8268 -0.2679  0.7286
  117OSM    C3F12289   2.578   6.701   6.968 -0.4735  0.1296  0.0341
  117OSM    H3F12290   2.542   6.791   7.022  1.6750  0.7085  0.5697
  117OSM    H3G12291   2.642   6.718   6.879 -0.8624 -1.2992 -0.5405
  117OSM    C4F12292   2.672   6.623   7.066  0.0839 -0.1972 -0.5048
  117OSM    H4F12293   2.759   6.691   7.062 -0.9003  1.0669 -1.8437
  117OSM    H4G12294   2.683   6.517   7.036 -0.3907 -0.0438 -1.2625
  117OSM    C5F12295   2.610   6.632   7.206 -0.6202  1.0458 -0.4498
  117OSM    H5F12296   2.529   6.556   7.211  0.9519 -0.6521  1.0828
  117OSM    H5G12297   2.554   6.725   7.229  0.2784  1.9216 -1.6185
  117OSM    C6F12298   2.715   6.582   7.308 -0.0050 -0.0157  0.0611
  117OSM    H6F12299   2.794   6.659   7.320 -1.1094  0.8150  2.7388
  117OSM    H6G12300   2.763   6.486   7.280 -1.9091 -0.8385 -0.5318
  117OSM    C7F12301   2.668   6.560   7.453 -0.1246 -0.3772 -0.3136
  117OSM    H7F12302   2.574   6.502   7.463  0.1836 -0.5532  2.3230
  117OSM    H7G12303   2.638   6.666   7.469 -0.3768 -0.2269 -1.6391
  117OSM    C8F12304   2.781   6.524   7.544 -0.2120 -0.2485 -0.1790
  117OSM    H8F12305   2.844   6.616   7.553 -1.7594  0.8518 -0.3393
  117OSM    H8G12306   2.845   6.447   7.497  1.4620  0.9181  0.0574
  117OSM    C9F12307   2.737   6.477   7.675  0.4893  0.1543 -0.4943
  117OSM    H9F12308   2.696   6.375   7.673  3.4026 -1.1316 -0.2972
  117OSM   C10F12309   2.715   6.546   7.791 -0.4584  0.2722  0.4392
  117OSM   H10F12310   2.681   6.495   7.883  2.3610 -1.3533  0.7036
  117OSM   C11F12311   2.733   6.697   7.817  0.1650  0.3462  0.4128
  117OSM   H11F12312   2.721   6.743   7.717 -0.0865 -0.3158  0.1317
  117OSM   H11G12313   2.835   6.720   7.853  0.8856  4.0098 -3.2032
  117OSM   C12F12314   2.642   6.779   7.907 -0.3528 -0.1980  0.1949
  117OSM   H12F12315   2.541   6.795   7.862 -1.6070  0.1785  2.9402
  117OSM   H12G12316   2.699   6.873   7.923  0.8478 -0.8592 -0.1183
  117OSM   C13F12317   2.637   6.720   8.055 -0.0028 -0.1238  0.4263
  117OSM   H13F12318   2.565   6.635   8.047 -0.8501  0.7338 -2.5859
  117OSM   H13G12319   2.579   6.792   8.117  0.0451 -0.0485  0.3844
  117OSM   C14F12320   2.773   6.671   8.102 -0.0946  0.2469 -0.2621
  117OSM   H14F12321   2.854   6.736   8.062  0.1061 -0.0652 -0.3685
  117OSM   H14G12322   2.792   6.564   8.081  1.1200  0.2713  0.5774
  117OSM   C15F12323   2.785   6.689   8.260  0.2951 -0.1590 -0.0740
  117OSM   H15F12324   2.697   6.645   8.311 -0.0616  0.5142 -0.0934
  117OSM   H15G12325   2.788   6.795   8.294  0.5328  0.4822 -1.9465
  117OSM   C16F12326   2.907   6.628   8.317  0.0289 -0.1585 -0.4933
  117OSM   H16F12327   3.000   6.684   8.294  0.5226  0.1352  1.8989
  117OSM   H16G12328   2.919   6.523   8.282  0.5439 -1.4178  3.0481
  117OSM   C17F12329   2.914   6.622   8.473  0.3311  0.1059  0.1358
  117OSM   H17F12330   2.829   6.552   8.491  1.8391 -1.7289  0.4338
  117OSM   H17G12331   3.007   6.565   8.497 -0.9873 -3.4075 -2.2319
  117OSM   C18F12332   2.911   6.753   8.554  0.7446  0.2536  0.5250
  117OSM   H18F12333   2.914   6.731   8.663  0.2255  0.5514  0.5998
  117OSM   H18G12334   2.819   6.812   8.534  0.5439  0.5787  2.2939
  117OSM   H18H12335   2.994   6.822   8.528  0.9856 -1.0548 -2.7087
  118OSM      N12336   6.135   4.299   5.814 -0.4363  0.1205  0.0194
  118OSM    C1512337   6.031   4.218   5.750 -0.3077 -0.5891  0.3021
  118OSM   H15A12338   6.053   4.189   5.649 -2.6886  1.5168 -0.9150
  118OSM   H15B12339   5.937   4.270   5.759 -0.7371 -1.5184  1.5745
  118OSM   H15C12340   6.010   4.128   5.805 -0.6926 -0.8151 -0.2067
  118OSM    C1412341   6.260   4.219   5.797  0.0439 -0.4464  0.3631
  118OSM   H14A12342   6.265   4.136   5.865 -2.1591 -0.8652  0.1025
  118OSM   H14B12343   6.345   4.281   5.821  0.7067 -1.0910 -0.2982
  118OSM   H14C12344   6.278   4.194   5.694 -1.7010  0.0297 -0.0961
  118OSM    C1312345   6.154   4.434   5.750 -0.3588 -0.4108  0.0693
  118OSM   H13A12346   6.073   4.501   5.775 -1.2508 -1.3025 -0.3400
  118OSM   H13B12347   6.161   4.420   5.643 -1.2895  2.0720 -0.3830
  118OSM   H13C12348   6.242   4.487   5.781 -0.7932  0.0453  0.5408
  118OSM    C1212349   6.116   4.310   5.961 -0.6699  0.1652 -0.4598
  118OSM   H12A12350   6.215   4.338   5.997 -1.5267  1.5322  0.9658
  118OSM   H12B12351   6.096   4.211   6.000  0.8563 -0.4849 -1.2112
  118OSM    C1112352   6.013   4.410   6.006  0.3538 -0.4434  0.4001
  118OSM   H11A12353   6.037   4.505   5.955  2.6474 -0.6957  0.9039
  118OSM   H11B12354   6.018   4.424   6.116 -1.5103 -0.4278  0.5276
  118OSM      P12355   5.810   4.251   6.044  0.1515 -0.5795  0.6198
  118OSM    O1312356   5.670   4.248   5.992 -0.0015  0.2197  0.0724
  118OSM    O1412357   5.885   4.126   6.042 -0.0610  0.4915  0.6055
  118OSM    O1112358   5.812   4.297   6.193  0.1899  0.7695 -0.4008
  118OSM    O1212359   5.886   4.364   5.967  0.2556 -0.4343  0.0944
  118OSM    C1S12360   5.756   4.421   6.241 -0.0336 -0.0858 -0.1667
  118OSM    H1S12361   5.650   4.439   6.211  0.4924  0.9758 -1.4803
  118OSM    H1T12362   5.822   4.505   6.212  0.2900 -0.1938  0.2414
  118OSM     NF12363   5.672   4.534   6.460 -0.1191 -0.5338 -0.7505
  118OSM    HNF12364   5.694   4.630   6.478 -1.9793 -0.6071  2.9258
  118OSM    C2S12365   5.756   4.430   6.400 -0.1071 -0.2099  0.3014
  118OSM    H2S12366   5.721   4.335   6.447  0.8018 -0.7478 -0.0890
  118OSM    C3S12367   5.899   4.453   6.445 -0.2919 -0.0921 -0.0534
  118OSM    H3S12368   5.942   4.549   6.410  1.6628 -1.6831 -2.3592
  118OSM     O312369   5.990   4.355   6.384  0.5526  0.1606 -0.4068
  118OSM    HO312370   5.937   4.315   6.315  0.9066  0.0778 -0.6371
  118OSM    C4S12371   5.900   4.449   6.596 -0.4156 -0.4713 -0.0082
  118OSM    H4S12372   5.868   4.354   6.640  0.4048 -1.5963 -1.7651
  118OSM    C5S12373   5.902   4.547   6.681 -0.4811 -0.7792  0.0500
  118OSM    H5S12374   5.895   4.649   6.641 -1.3330 -0.6666  0.4804
  118OSM    C6S12375   5.885   4.542   6.830  0.0463 -0.3597  0.2262
  118OSM    H6S12376   5.778   4.566   6.852  0.2496  1.1319 -0.3163
  118OSM    H6T12377   5.942   4.619   6.885  0.6654  0.1947 -1.1427
  118OSM    C7S12378   5.916   4.406   6.892  0.0015 -0.0084 -1.2096
  118OSM    H7S12379   6.014   4.381   6.847 -0.1051 -0.0631 -1.4155
  118OSM    H7T12380   5.839   4.333   6.857 -0.4016  0.1151 -0.5897
  118OSM    C8S12381   5.916   4.416   7.048 -0.5182 -0.4548 -0.1848
  118OSM    H8S12382   5.820   4.463   7.078 -1.5194 -1.9107 -0.9435
  118OSM    H8T12383   6.005   4.476   7.078  0.6747 -3.1568  2.2231
  118OSM    C9S12384   5.940   4.280   7.122 -0.3037  0.0540  0.6201
  118OSM    H9S12385   6.046   4.253   7.100  0.8910  1.9762  3.3870
  118OSM    H9T12386   5.869   4.204   7.082 -1.0859  0.6683  0.8264
  118OSM   C10S12387   5.926   4.296   7.279 -0.4692 -0.0759  0.7466
  118OSM   H10S12388   5.951   4.204   7.337  0.7876  0.0814  0.4962
  118OSM   H10T12389   5.819   4.298   7.307 -0.3431  4.4622  1.6299
  118OSM   C11S12390   6.014   4.406   7.333 -0.2177  0.0135  0.1233
  118OSM   H11S12391   5.973   4.506   7.306 -0.2202  0.1095  0.4740
  118OSM   H11T12392   6.113   4.402   7.284  0.1780  0.5258  0.8593
  118OSM   C12S12393   6.027   4.404   7.480 -0.3068  0.0679  0.5189
  118OSM   H12S12394   6.123   4.352   7.499 -0.5669 -1.0894 -1.1471
  118OSM   H12T12395   5.947   4.344   7.528  0.9990 -3.5105 -1.4165
  118OSM   C13S12396   6.032   4.548   7.540 -0.5177  0.1765  0.5097
  118OSM   H13S12397   5.945   4.614   7.518 -0.2918  0.0314 -0.9463
  118OSM   H13T12398   6.120   4.603   7.501 -1.4769  0.9559 -0.6484
  118OSM   C14S12399   6.041   4.548   7.695  0.1983 -0.1026  0.2612
  118OSM   H14S12400   5.950   4.498   7.734 -0.2136  0.9292  0.6447
  118OSM   H14T12401   6.044   4.647   7.745  0.8110 -0.2080  0.4450
  118OSM   C15S12402   6.165   4.484   7.766  0.6546 -0.4020  0.2672
  118OSM   H15S12403   6.247   4.558   7.764  2.2550 -2.0907  0.3521
  118OSM   H15T12404   6.207   4.405   7.700 -1.9518  0.6520 -2.9087
  118OSM   C16S12405   6.116   4.428   7.897  0.0050  0.9546  0.7058
  118OSM   H16S12406   6.055   4.339   7.873 -1.4606  2.2296 -0.5303
  118OSM   H16T12407   6.057   4.503   7.954 -1.0990  0.3964  0.3313
  118OSM   C17S12408   6.234   4.381   7.983  0.7047 -0.2977 -0.0338
  118OSM   H17S12409   6.296   4.318   7.916  1.3125  1.2781 -0.9849
  118OSM   H17T12410   6.203   4.318   8.069  2.2868  1.7345  2.1747
  118OSM   C18S12411   6.320   4.494   8.036 -0.7577 -0.3877  0.2294
  118OSM   H18S12412   6.356   4.563   7.957 -1.4654 -1.8522 -1.4368
  118OSM   H18T12413   6.417   4.456   8.074 -0.7949 -0.3268  0.3869
  118OSM   H18U12414   6.263   4.547   8.116  0.6051 -1.1799  1.7655
  118OSM    C1F12415   5.538   4.516   6.474  0.3680  0.3312 -0.2250
  118OSM     OF12416   5.485   4.408   6.453 -0.2651  0.2294 -0.0282
  118OSM    C2F12417   5.453   4.632   6.525  0.1354  0.4701 -0.2902
  118OSM    H2F12418   5.375   4.646   6.447  1.1410  1.6334 -1.1308
  118OSM    H2G12419   5.521   4.720   6.526  0.6407  0.1096 -1.2777
  118OSM    C3F12420   5.389   4.594   6.662  0.1018 -0.4290  0.1456
  118OSM    H3F12421   5.316   4.511   6.666 -1.0141  0.4962 -0.3255
  118OSM    H3G12422   5.332   4.685   6.691  1.4989  0.2728  0.8041
  118OSM    C4F12423   5.477   4.560   6.782 -0.5842 -0.0932  0.2858
  118OSM    H4F12424   5.546   4.643   6.804  1.4866 -0.8329 -2.7538
  118OSM    H4G12425   5.533   4.466   6.765  2.2088  1.7251 -1.3823
  118OSM    C5F12426   5.393   4.534   6.917  0.0323  0.0027  0.0484
  118OSM    H5F12427   5.332   4.442   6.905 -1.9616  1.2607 -0.0565
  118OSM    H5G12428   5.335   4.625   6.944  0.1708 -0.3893  1.7995
  118OSM    C6F12429   5.486   4.512   7.034 -0.1066  0.3760 -0.3223
  118OSM    H6F12430   5.549   4.602   7.046  0.2266 -0.2215  4.4455
  118OSM    H6G12431   5.559   4.435   7.002  0.2771  0.0619  1.2159
  118OSM    C7F12432   5.408   4.490   7.167 -0.2671  0.2666  0.9532
  118OSM    H7F12433   5.330   4.416   7.139 -0.2462 -0.4257  2.5770
  118OSM    H7G12434   5.353   4.580   7.201 -0.6528  0.5300 -0.3184
  118OSM    C8F12435   5.504   4.451   7.284  0.5499  0.3034  0.1080
  118OSM    H8F12436   5.576   4.376   7.245 -0.5956  0.4540 -2.4976
  118OSM    H8G12437   5.442   4.394   7.356  1.2233  1.2714  1.4983
  118OSM    C9F12438   5.577   4.569   7.340 -0.3018 -0.7810 -0.2181
  118OSM    H9F12439   5.664   4.592   7.278 -1.5895  1.7072 -1.2356
  118OSM   C10F12440   5.545   4.643   7.452  0.2812  0.0546  0.3102
  118OSM   H10F12441   5.612   4.715   7.500 -0.6459  0.9791  0.2422
  118OSM   C11F12442   5.427   4.606   7.551 -0.1615 -0.1462  0.8002
  118OSM   H11F12443   5.405   4.497   7.545 -2.0828  0.1744  1.6057
  118OSM   H11G12444   5.331   4.652   7.520  0.1361 -0.2282 -0.2830
  118OSM   C12F12445   5.449   4.635   7.703 -0.4149  0.6471  0.2744
  118OSM   H12F12446   5.358   4.604   7.758  0.3608 -2.6553 -0.0680
  118OSM   H12G12447   5.443   4.743   7.728  1.6184  0.5505  1.4419
  118OSM   C13F12448   5.564   4.552   7.768 -0.2047 -0.6121  0.1540
  118OSM   H13F12449   5.661   4.595   7.735 -0.0109 -0.2061  1.2071
  118OSM   H13G12450   5.565   4.447   7.732 -1.5391  0.1201 -2.2686
  118OSM   C14F12451   5.555   4.543   7.925  0.0966  0.0535  0.6440
  118OSM   H14F12452   5.466   4.482   7.951  1.7914 -2.1920  1.4514
  118OSM   H14G12453   5.538   4.649   7.955  0.7492 -0.0663  1.4612
  118OSM   C15F12454   5.687   4.477   7.981  0.1185 -0.2071 -0.3495
  118OSM   H15F12455   5.774   4.516   7.923 -1.5444  2.3324 -1.3518
  118OSM   H15G12456   5.675   4.367   7.984  1.3338 -0.3476  2.2308
  118OSM   C16F12457   5.710   4.509   8.130  0.2978  0.4888 -0.5872
  118OSM   H16F12458   5.608   4.516   8.175  0.3860 -2.7772  0.3258
  118OSM   H16G12459   5.762   4.605   8.151  0.3553  0.1680  0.8804
  118OSM   C17F12460   5.786   4.407   8.207  0.6829 -0.2700 -0.0146
  118OSM   H17F12461   5.893   4.414   8.178  0.6660 -0.1709 -0.0536
  118OSM   H17G12462   5.749   4.305   8.186  3.1285 -1.3825  0.8037
  118OSM   C18F12463   5.785   4.426   8.357 -0.0878  0.0656  0.3763
  118OSM   H18F12464   5.822   4.328   8.396  0.1610 -0.0475 -0.1325
  118OSM   H18G12465   5.683   4.447   8.393 -0.9963 -1.2252 -1.3018
  118OSM   H18H12466   5.864   4.500   8.383 -1.0974  0.7010  1.7616
  119OSM      N12467   5.743   2.807   5.910  0.2600  0.3259  0.3017
  119OSM    C1512468   5.708   2.907   5.804  0.1216 -0.2737 -0.1797
  119OSM   H15A12469   5.646   2.990   5.837  0.9336  0.4413 -0.4239
  119OSM   H15B12470   5.663   2.861   5.717  0.3334  1.8429 -1.4831
  119OSM   H15C12471   5.793   2.952   5.756  1.4366 -0.6563  1.6656
  119OSM    C1412472   5.826   2.697   5.862  0.8716 -0.1339 -0.2093
  119OSM   H14A12473   5.832   2.624   5.941  0.4498 -1.3936 -1.3063
  119OSM   H14B12474   5.929   2.729   5.855  0.5263  0.7696 -1.7527
  119OSM   H14C12475   5.791   2.646   5.773  0.0580  1.4301 -0.8308
  119OSM    C1312476   5.814   2.875   6.020 -0.1268 -1.0095  0.3846
  119OSM   H13A12477   5.752   2.952   6.063  0.4890  0.9199 -1.9437
  119OSM   H13B12478   5.899   2.931   5.983 -1.3602  0.4516 -0.3422
  119OSM   H13C12479   5.851   2.811   6.099  0.9140  0.2875  0.9839
  119OSM    C1212480   5.613   2.754   5.963 -0.0344  0.3427  1.1827
  119OSM   H12A12481   5.564   2.693   5.889  0.6697  0.8435  0.2701
  119OSM   H12B12482   5.543   2.836   5.961 -0.7984 -0.2549 -2.2154
  119OSM    C1112483   5.606   2.669   6.096  0.4745 -0.5870  0.8351
  119OSM   H11A12484   5.505   2.647   6.135 -0.6071  0.1050 -1.3931
  119OSM   H11B12485   5.656   2.739   6.166 -0.5295  0.9576  0.0682
  119OSM      P12486   5.620   2.418   6.026  0.0108 -0.1981  0.1036
  119OSM    O1312487   5.542   2.440   5.901 -0.0659 -0.2053 -0.6714
  119OSM    O1412488   5.724   2.316   6.017 -0.5885 -0.5007 -0.5851
  119OSM    O1112489   5.517   2.373   6.149  0.4556 -0.1513  0.8501
  119OSM    O1212490   5.684   2.550   6.080 -0.1230  0.1480  0.2282
  119OSM    C1S12491   5.581   2.351   6.277  1.1440  0.2182 -0.6484
  119OSM    H1S12492   5.622   2.439   6.330 -0.4023  0.7320 -0.2390
  119OSM    H1T12493   5.655   2.270   6.262  0.5565 -0.1599 -1.6633
  119OSM     NF12494   5.547   2.288   6.515 -0.0197  0.5785 -0.4127
  119OSM    HNF12495   5.588   2.203   6.546  0.8185  1.4015  0.7778
  119OSM    C2S12496   5.477   2.290   6.384 -0.3834  0.4848  0.2619
  119OSM    H2S12497   5.388   2.356   6.378  0.4367  1.5055 -1.3711
  119OSM    C3S12498   5.428   2.149   6.342  0.4591  0.7251  0.1302
  119OSM    H3S12499   5.516   2.087   6.315  1.5000  1.9137  0.6904
  119OSM     O312500   5.348   2.147   6.222 -0.0420 -0.1734 -0.3883
  119OSM    HO312501   5.375   2.232   6.184 -2.2969  1.0688  0.6157
  119OSM    C4S12502   5.350   2.083   6.454 -0.3180 -0.2959 -1.0771
  119OSM    H4S12503   5.416   2.019   6.513 -0.4885 -1.1019 -1.7531
  119OSM    C5S12504   5.217   2.097   6.486 -0.2828  0.1041  0.5295
  119OSM    H5S12505   5.158   2.177   6.439  1.2638 -0.2630 -2.2108
  119OSM    C6S12506   5.159   2.017   6.602  0.0463  0.4851  0.2507
  119OSM    H6S12507   5.234   1.942   6.636  0.1887  0.0934 -0.8502
  119OSM    H6T12508   5.068   1.966   6.564  0.8413 -0.0443 -1.0529
  119OSM    C7S12509   5.135   2.099   6.725  0.6174  0.6340 -0.3085
  119OSM    H7S12510   5.080   2.192   6.699  0.0751  0.4102  0.0287
  119OSM    H7T12511   5.234   2.131   6.765  1.6041 -0.6568 -1.6349
  119OSM    C8S12512   5.076   2.008   6.832  0.0593  0.1110  0.2134
  119OSM    H8S12513   5.140   1.917   6.829  0.3295  0.3001  0.2383
  119OSM    H8T12514   4.972   1.980   6.802 -0.8508  0.4826  2.8042
  119OSM    C9S12515   5.091   2.070   6.975  0.4028 -0.4773  0.0876
  119OSM    H9S12516   5.031   2.162   6.983  1.1291  0.0821 -0.8141
  119OSM    H9T12517   5.197   2.101   6.992  0.1805  0.4417 -0.1667
  119OSM   C10S12518   5.063   1.963   7.077  0.0215 -0.1707  0.1009
  119OSM   H10S12519   5.130   1.876   7.058 -0.3046 -0.2676 -0.6161
  119OSM   H10T12520   4.957   1.936   7.055 -1.1015  3.1149  0.9527
  119OSM   C11S12521   5.073   2.009   7.220  0.2814 -0.1429  0.7244
  119OSM   H11S12522   4.997   2.090   7.232 -2.6463 -2.7502  1.0542
  119OSM   H11T12523   5.175   2.047   7.241  0.1221 -0.2183  1.6658
  119OSM   C12S12524   5.023   1.913   7.318 -0.6887  0.2781 -0.6573
  119OSM   H12S12525   5.098   1.833   7.333 -1.4445 -0.4230 -0.5768
  119OSM   H12T12526   4.939   1.852   7.279  0.6219 -2.6844  0.8174
  119OSM   C13S12527   5.002   1.966   7.465 -0.3460  1.2630  0.5360
  119OSM   H13S12528   4.941   2.059   7.461 -0.8605  0.8911 -0.8291
  119OSM   H13T12529   5.104   1.994   7.496  0.9660 -1.8920 -0.5611
  119OSM   C14S12530   4.932   1.865   7.551  0.3984  0.4884 -1.0475
  119OSM   H14S12531   4.954   1.758   7.532  0.3062 -0.2391  2.3302
  119OSM   H14T12532   4.824   1.875   7.525 -0.1378 -0.3567  0.6641
  119OSM   C15S12533   4.928   1.895   7.706  0.5389  0.3959 -0.0761
  119OSM   H15S12534   5.034   1.919   7.733 -0.2232  2.5346  1.2840
  119OSM   H15T12535   4.893   1.806   7.762  0.7049  0.7708  0.6347
  119OSM   C16S12536   4.849   2.020   7.747 -0.2057  0.1724 -0.7833
  119OSM   H16S12537   4.749   2.012   7.700 -0.1261  2.5638 -1.4893
  119OSM   H16T12538   4.902   2.110   7.708  1.2959  0.6821  2.1224
  119OSM   C17S12539   4.845   2.028   7.894 -0.9366  0.1202 -0.1781
  119OSM   H17S12540   4.949   2.051   7.926 -0.5452  1.7592 -2.4030
  119OSM   H17T12541   4.818   1.931   7.942 -1.3516 -0.8684 -2.3023
  119OSM   C18S12542   4.763   2.144   7.948  0.6093 -0.2485 -0.6881
  119OSM   H18S12543   4.717   2.108   8.043  2.0759 -0.2796  0.0339
  119OSM   H18T12544   4.681   2.158   7.873 -1.7364  2.1087  2.0594
  119OSM   H18U12545   4.830   2.232   7.953  0.9413 -0.5832  2.4564
  119OSM    C1F12546   5.566   2.402   6.573  0.2484  0.9385 -0.6402
  119OSM     OF12547   5.506   2.502   6.538  0.1969 -0.5992  0.4627
  119OSM    C2F12548   5.664   2.401   6.690  0.7548  0.1176 -0.0922
  119OSM    H2F12549   5.712   2.301   6.680 -2.9416 -1.8401 -0.2191
  119OSM    H2G12550   5.615   2.405   6.790  2.3026 -1.4754  0.7795
  119OSM    C3F12551   5.767   2.517   6.665  1.1484  0.0034  0.5702
  119OSM    H3F12552   5.722   2.618   6.667 -0.0116 -0.3920 -1.6597
  119OSM    H3G12553   5.817   2.506   6.567  2.6679  1.1652  1.1826
  119OSM    C4F12554   5.881   2.514   6.766 -0.0848 -0.4330 -0.2141
  119OSM    H4F12555   5.974   2.563   6.731  0.8601 -1.2433  1.0497
  119OSM    H4G12556   5.914   2.408   6.774  2.3974  0.0605 -2.2956
  119OSM    C5F12557   5.833   2.559   6.912  0.3924  0.5608 -0.1110
  119OSM    H5F12558   5.861   2.483   6.988 -0.7286  1.5251  1.3433
  119OSM    H5G12559   5.722   2.558   6.918  0.4170 -2.0091  0.8230
  119OSM    C6F12560   5.899   2.691   6.963 -0.1198 -0.3333  0.2814
  119OSM    H6F12561   5.881   2.761   6.879 -1.3554 -1.3147 -0.3037
  119OSM    H6G12562   6.010   2.681   6.966 -0.1730 -1.4420 -0.4843
  119OSM    C7F12563   5.834   2.752   7.091 -0.6860  0.6941  0.7485
  119OSM    H7F12564   5.726   2.725   7.096 -0.8359  0.6911 -1.4592
  119OSM    H7G12565   5.842   2.862   7.078  1.9369  0.5215  0.5105
  119OSM    C8F12566   5.904   2.715   7.221  0.3931 -0.1850 -0.4767
  119OSM    H8F12567   5.890   2.610   7.255  1.1607 -0.3818 -0.7399
  119OSM    H8G12568   5.853   2.786   7.290  1.3907  0.2471 -0.1484
  119OSM    C9F12569   6.052   2.744   7.235 -0.4713  0.4707 -0.1716
  119OSM    H9F12570   6.110   2.749   7.141  0.4632  1.0427  0.4149
  119OSM   C10F12571   6.118   2.783   7.349 -0.2884 -0.1168 -0.3377
  119OSM   H10F12572   6.226   2.799   7.337 -0.8485  2.3576 -3.7456
  119OSM   C11F12573   6.062   2.810   7.492  0.2589  1.2043  0.4589
  119OSM   H11F12574   6.131   2.765   7.567 -0.3911 -0.4189  0.1157
  119OSM   H11G12575   5.963   2.760   7.499 -0.4554  2.8053  3.1066
  119OSM   C12F12576   6.060   2.957   7.537  0.0570  0.2475  0.1111
  119OSM   H12F12577   6.004   3.011   7.457  0.5942 -0.7342 -0.9601
  119OSM   H12G12578   6.158   3.008   7.524 -0.5536  1.7253  0.9583
  119OSM   C13F12579   6.035   2.978   7.689 -0.3305  0.4967  0.5245
  119OSM   H13F12580   6.086   2.896   7.743  1.1445  0.6331 -0.5950
  119OSM   H13G12581   5.925   2.971   7.700 -0.1827 -0.8570  1.2716
  119OSM   C14F12582   6.085   3.113   7.737  0.3154 -0.5001 -0.6553
  119OSM   H14F12583   6.063   3.191   7.661 -1.5289  0.3804  0.6925
  119OSM   H14G12584   6.193   3.118   7.760  0.2610  1.7105 -0.6680
  119OSM   C15F12585   6.017   3.147   7.871  0.0914  0.2321 -0.0888
  119OSM   H15F12586   5.909   3.126   7.861  0.1160 -0.0980  0.2822
  119OSM   H15G12587   6.024   3.258   7.873  0.3390  0.2943 -2.1051
  119OSM   C16F12588   6.069   3.091   8.003  0.2982  0.0343 -0.5732
  119OSM   H16F12589   6.179   3.074   8.000  0.1139 -1.4946  0.1707
  119OSM   H16G12590   6.011   2.998   8.021 -0.3549  0.8666  2.0793
  119OSM   C17F12591   6.041   3.174   8.129  0.3452  0.4194 -0.0772
  119OSM   H17F12592   5.933   3.197   8.136  0.1817 -0.3618  0.0813
  119OSM   H17G12593   6.092   3.272   8.130  0.0395  0.5769  0.3543
  119OSM   C18F12594   6.072   3.107   8.265  0.4223 -0.3888  0.5256
  119OSM   H18F12595   6.059   3.186   8.342 -1.8083  2.4991 -2.4898
  119OSM   H18G12596   6.171   3.059   8.282 -0.4614 -1.8158  1.9306
  119OSM   H18H12597   5.992   3.034   8.291 -1.8374  1.5596 -0.5909
  120OSM      N12598   4.006   6.702   6.592  0.2117 -0.2208  0.2766
  120OSM    C1512599   4.056   6.843   6.618 -0.3681 -0.2533  0.1722
  120OSM   H15A12600   4.138   6.858   6.549 -1.6681 -1.5434 -1.7683
  120OSM   H15B12601   4.094   6.846   6.719  1.9832 -0.2414 -0.6491
  120OSM   H15C12602   3.974   6.913   6.615  1.3360  1.8571  0.2683
  120OSM    C1412603   4.118   6.599   6.600  0.2210 -0.2737  0.1323
  120OSM   H14A12604   4.172   6.613   6.508 -0.3468  0.1996 -0.1291
  120OSM   H14B12605   4.085   6.497   6.604  0.0737 -0.2356 -0.1442
  120OSM   H14C12606   4.167   6.617   6.695 -1.9293  3.4235  0.7624
  120OSM    C1312607   3.909   6.685   6.707 -0.3500  0.5040  0.2767
  120OSM   H13A12608   3.841   6.768   6.715 -2.1332 -0.7843 -0.9819
  120OSM   H13B12609   3.955   6.689   6.805  0.1785  1.8164  0.0040
  120OSM   H13C12610   3.857   6.591   6.709 -0.0189  0.2982 -0.4600
  120OSM    C1212611   3.941   6.684   6.460 -0.2728  0.4312 -0.0315
  120OSM   H12A12612   3.893   6.587   6.458  3.0087 -1.3832  1.2692
  120OSM   H12B12613   4.007   6.683   6.375  0.1441 -0.1534  0.2909
  120OSM    C1112614   3.830   6.785   6.422  0.0913 -0.2057 -0.5546
  120OSM   H11A12615   3.759   6.795   6.507  1.7534 -0.5362  0.9198
  120OSM   H11B12616   3.776   6.753   6.330 -3.0019  2.0329  0.3260
  120OSM      P12617   3.801   7.048   6.380  0.1920  0.4549  0.4153
  120OSM    O1312618   3.879   7.156   6.324 -0.7606 -0.0002  0.2861
  120OSM    O1412619   3.676   7.019   6.312  0.8638 -0.0160  0.3578
  120OSM    O1112620   3.772   7.086   6.531  0.0439  0.4615 -0.0953
  120OSM    O1212621   3.885   6.918   6.396  0.4167  0.1671  0.0598
  120OSM    C1S12622   3.672   7.185   6.558  0.4253 -0.3065  0.2606
  120OSM    H1S12623   3.570   7.139   6.560  0.6603 -0.8620 -0.2938
  120OSM    H1T12624   3.688   7.263   6.480  0.7155 -0.5134  0.1122
  120OSM     NF12625   3.573   7.320   6.736 -0.0918 -0.3064 -0.2919
  120OSM    HNF12626   3.572   7.420   6.733 -0.2705 -0.2887  0.2668
  120OSM    C2S12627   3.692   7.249   6.696  0.1256  0.5607 -0.2170
  120OSM    H2S12628   3.699   7.168   6.772  2.2657 -1.2624 -2.2142
  120OSM    C3S12629   3.837   7.312   6.702 -0.6052 -0.6039 -0.2859
  120OSM    H3S12630   3.861   7.375   6.614  0.1007  0.8633  0.9174
  120OSM     O312631   3.940   7.213   6.705  0.6843 -0.0864 -0.3255
  120OSM    HO312632   3.906   7.157   6.635 -0.0028  0.0839 -0.1284
  120OSM    C4S12633   3.848   7.405   6.814 -0.4614 -0.4269 -0.1957
  120OSM    H4S12634   3.803   7.369   6.909 -0.3326  0.5840  0.2598
  120OSM    C5S12635   3.915   7.522   6.809  0.8658 -0.3598  0.1619
  120OSM    H5S12636   3.947   7.560   6.711 -2.1037  2.8748  0.2378
  120OSM    C6S12637   3.917   7.619   6.924  0.0701 -0.3304  0.2969
  120OSM    H6S12638   3.903   7.721   6.882  1.2891  0.0404  0.7603
  120OSM    H6T12639   4.013   7.609   6.980  1.0700 -0.2480 -1.3539
  120OSM    C7S12640   3.800   7.609   7.026 -0.7414 -0.2627 -0.2107
  120OSM    H7S12641   3.776   7.512   7.074  0.2928 -0.4433 -0.0440
  120OSM    H7T12642   3.712   7.657   6.978  1.1731  2.8199 -0.9194
  120OSM    C8S12643   3.813   7.711   7.143 -0.0062 -0.0552  0.0515
  120OSM    H8S12644   3.713   7.755   7.162 -0.1956 -0.0855 -0.8044
  120OSM    H8T12645   3.886   7.793   7.128 -1.0661  1.3836  2.1694
  120OSM    C9S12646   3.855   7.633   7.270  0.2064 -0.5815 -0.6194
  120OSM    H9S12647   3.959   7.596   7.259  0.1500 -0.5816 -1.1826
  120OSM    H9T12648   3.796   7.543   7.298  0.0022  0.5354  3.0319
  120OSM   C10S12649   3.848   7.728   7.390 -0.6725 -0.3163 -0.6601
  120OSM   H10S12650   3.742   7.763   7.397 -0.0010  2.7914 -3.3943
  120OSM   H10T12651   3.905   7.819   7.364  0.5737 -1.2404 -1.2576
  120OSM   C11S12652   3.911   7.669   7.527 -0.4892  0.3180 -0.0581
  120OSM   H11S12653   4.022   7.671   7.517 -0.2937  2.1929  1.8172
  120OSM   H11T12654   3.881   7.562   7.536  3.3707 -0.9120 -0.1328
  120OSM   C12S12655   3.868   7.743   7.653  0.5864 -0.5299  0.4068
  120OSM   H12S12656   3.759   7.731   7.666  0.4685  2.4589  3.4919
  120OSM   H12T12657   3.880   7.853   7.645  0.4733 -0.5276  0.2731
  120OSM   C13S12658   3.926   7.707   7.784  0.1108  0.4165  0.0324
  120OSM   H13S12659   4.035   7.684   7.781  0.2142  0.7375  0.9847
  120OSM   H13T12660   3.874   7.618   7.826 -2.2779  1.2560 -0.9845
  120OSM   C14S12661   3.909   7.824   7.892 -0.0736 -0.3168  0.0432
  120OSM   H14S12662   3.805   7.862   7.904 -1.1624 -1.6498 -3.6467
  120OSM   H14T12663   3.978   7.903   7.855  0.5580  0.1215  2.0522
  120OSM   C15S12664   3.970   7.778   8.026 -0.6782  0.0798  0.8587
  120OSM   H15S12665   4.067   7.732   7.999 -0.2219 -0.5203  3.3018
  120OSM   H15T12666   3.904   7.707   8.080  1.4701 -2.5389  0.2394
  120OSM   C16S12667   4.015   7.894   8.114 -0.1069  0.0856  0.2078
  120OSM   H16S12668   3.925   7.946   8.152 -0.9266 -0.4002 -1.0017
  120OSM   H16T12669   4.075   7.963   8.051 -1.2116 -0.2955 -1.3229
  120OSM   C17S12670   4.099   7.856   8.236 -0.2670  0.3877 -0.0141
  120OSM   H17S12671   4.183   7.796   8.196  0.2593  1.0537  0.0663
  120OSM   H17T12672   4.038   7.793   8.304  1.7571 -0.4959  1.0597
  120OSM   C18S12673   4.166   7.973   8.302  0.1223 -0.1695  0.7148
  120OSM   H18S12674   4.118   8.069   8.277  3.3990  2.0103  2.1286
  120OSM   H18T12675   4.269   7.982   8.261 -0.8508 -0.0764 -1.9391
  120OSM   H18U12676   4.177   7.961   8.412  1.2549 -2.9003  0.4075
  120OSM    C1F12677   3.455   7.270   6.771  1.0980  0.8640 -0.3356
  120OSM     OF12678   3.434   7.151   6.776  0.4420  0.0994  0.3045
  120OSM    C2F12679   3.342   7.366   6.824 -1.1734 -0.0751  0.7438
  120OSM    H2F12680   3.258   7.296   6.845  0.5382 -2.6774 -0.5631
  120OSM    H2G12681   3.312   7.437   6.743 -0.0049 -0.6209 -0.1905
  120OSM    C3F12682   3.380   7.443   6.947  0.3621 -0.2002 -0.2736
  120OSM    H3F12683   3.287   7.499   6.972  0.2871 -0.6709  0.5597
  120OSM    H3G12684   3.454   7.519   6.915  1.0614 -0.5391  0.5248
  120OSM    C4F12685   3.423   7.355   7.071  0.3512 -0.3312 -0.0661
  120OSM    H4F12686   3.521   7.308   7.048 -0.8011 -2.5139 -0.7947
  120OSM    H4G12687   3.346   7.275   7.081 -1.3129  1.3696  1.4150
  120OSM    C5F12688   3.429   7.439   7.196  0.6832  0.3920 -0.3899
  120OSM    H5F12689   3.331   7.491   7.207  0.1211 -0.8966  1.0044
  120OSM    H5G12690   3.510   7.514   7.180  0.4818  0.3228 -1.9023
  120OSM    C6F12691   3.451   7.355   7.327 -0.3066 -0.8716 -0.1587
  120OSM    H6F12692   3.551   7.306   7.325 -0.4734 -1.2669  0.6840
  120OSM    H6G12693   3.386   7.266   7.331  1.3176 -2.0821  0.4980
  120OSM    C7F12694   3.450   7.436   7.465  0.3160 -0.8500 -0.2159
  120OSM    H7F12695   3.365   7.507   7.474  0.4692 -0.6400 -0.3883
  120OSM    H7G12696   3.540   7.501   7.461 -0.7072  0.5463 -1.9318
  120OSM    C8F12697   3.475   7.353   7.597 -0.2502  0.0355  0.0383
  120OSM    H8F12698   3.545   7.405   7.666  0.3869 -1.8932  0.9223
  120OSM    H8G12699   3.539   7.268   7.566 -0.7664  0.0990 -1.2779
  120OSM    C9F12700   3.342   7.313   7.673 -0.6051 -0.6435 -0.0782
  120OSM    H9F12701   3.276   7.241   7.623 -0.5725 -2.0311  1.7572
  120OSM   C10F12702   3.301   7.352   7.794 -0.7414 -1.0130  0.2629
  120OSM   H10F12703   3.200   7.321   7.824 -1.9055 -0.1377 -2.4675
  120OSM   C11F12704   3.367   7.459   7.876  0.3015 -0.3482 -0.1557
  120OSM   H11F12705   3.294   7.542   7.891  2.2541  1.8107 -1.8458
  120OSM   H11G12706   3.452   7.511   7.827  2.3930 -1.3082  2.2126
  120OSM   C12F12707   3.417   7.388   8.003  0.8459 -0.7227 -0.7692
  120OSM   H12F12708   3.479   7.456   8.065 -0.7797  0.1963 -0.0942
  120OSM   H12G12709   3.482   7.303   7.975  1.7601 -0.7067  1.1479
  120OSM   C13F12710   3.307   7.325   8.090 -0.4898 -0.2350 -0.5900
  120OSM   H13F12711   3.350   7.302   8.190 -2.1998 -0.1877  0.1861
  120OSM   H13G12712   3.264   7.231   8.048 -2.6530  1.1224 -1.6139
  120OSM   C14F12713   3.186   7.426   8.119 -0.0318  0.2687  0.1028
  120OSM   H14F12714   3.115   7.372   8.186  0.1475 -0.0516  0.0382
  120OSM   H14G12715   3.139   7.448   8.021  0.8232  0.8583 -0.1842
  120OSM   C15F12716   3.225   7.559   8.175  0.4735 -0.0620  0.4789
  120OSM   H15F12717   3.299   7.617   8.117  1.2055 -1.6457 -0.2257
  120OSM   H15G12718   3.272   7.534   8.272 -1.3615 -1.3849  1.1019
  120OSM   C16F12719   3.106   7.661   8.184 -0.5508 -0.0098  0.8999
  120OSM   H16F12720   3.083   7.699   8.083  1.1750 -1.3093 -0.0385
  120OSM   H16G12721   3.155   7.742   8.241  2.1565 -0.5786 -0.4944
  120OSM   C17F12722   2.980   7.614   8.261  0.3254 -0.7884 -0.3069
  120OSM   H17F12723   2.998   7.603   8.370  2.1899 -3.4051 -0.7636
  120OSM   H17G12724   2.941   7.520   8.216  0.7669 -1.0423 -0.1628
  120OSM   C18F12725   2.863   7.722   8.252  0.3587  0.2156 -0.3539
  120OSM   H18F12726   2.838   7.739   8.144  0.9300  0.9208 -0.3847
  120OSM   H18G12727   2.903   7.821   8.284  1.0602  0.8882 -2.9911
  120OSM   H18H12728   2.771   7.694   8.307  1.1418 -0.1357  0.8133
  121OSM      N12729   6.214   2.972   5.477  0.3826 -0.1276 -0.0169
  121OSM    C1512730   6.105   2.910   5.389 -1.1390 -0.1662 -0.2143
  121OSM   H15A12731   6.033   2.855   5.449 -1.8701  1.2034  0.2251
  121OSM   H15B12732   6.152   2.840   5.322  0.9010 -0.9552  1.8976
  121OSM   H15C12733   6.044   2.984   5.339 -0.0442  0.9650  0.0635
  121OSM    C1412734   6.283   2.863   5.551  0.0488  0.0430  0.0116
  121OSM   H14A12735   6.370   2.885   5.611 -0.2229  0.1667  0.3694
  121OSM   H14B12736   6.298   2.779   5.485 -0.0623  0.4943 -0.5917
  121OSM   H14C12737   6.211   2.833   5.626  0.6211 -1.2912  0.0547
  121OSM    C1312738   6.316   3.038   5.390  0.7766  0.5049 -0.2296
  121OSM   H13A12739   6.385   2.970   5.342  1.2676  0.8988 -0.0927
  121OSM   H13B12740   6.377   3.117   5.432  0.0702  0.1988  1.4316
  121OSM   H13C12741   6.269   3.092   5.309  0.6191  1.1440  0.2843
  121OSM    C1212742   6.141   3.072   5.567  0.3626 -0.6574 -0.2019
  121OSM   H12A12743   6.078   3.137   5.508  0.1232  0.7582  1.5494
  121OSM   H12B12744   6.207   3.144   5.613  0.3384 -2.1393  2.3218
  121OSM    C1112745   6.058   3.005   5.685 -0.0784 -0.4925 -0.1481
  121OSM   H11A12746   5.994   2.929   5.635 -2.0044  1.0114 -0.1110
  121OSM   H11B12747   5.989   3.075   5.736  1.8428  0.4893  1.2324
  121OSM      P12748   6.191   2.999   5.902 -0.4677  0.6543 -0.1175
  121OSM    O1312749   6.333   2.969   5.931  0.0112 -0.2933 -0.1345
  121OSM    O1412750   6.169   3.143   5.892  0.3109 -0.1761 -0.0751
  121OSM    O1112751   6.105   2.942   6.020 -0.7816  0.8135  0.0063
  121OSM    O1212752   6.140   2.928   5.776 -0.4051  0.2897  0.4616
  121OSM    C1S12753   6.129   2.958   6.162 -0.2265  0.3963  0.1644
  121OSM    H1S12754   6.232   2.927   6.189 -0.1475  1.0365  0.6242
  121OSM    H1T12755   6.064   2.895   6.227  0.7034  1.8080  2.5977
  121OSM     NF12756   6.169   3.115   6.345 -0.4338 -0.1931 -0.0243
  121OSM    HNF12757   6.114   3.122   6.428 -2.5284  0.3540 -1.3702
  121OSM    C2S12758   6.104   3.108   6.211  0.3545  0.6571 -0.3448
  121OSM    H2S12759   6.154   3.178   6.141 -1.3827  1.7529 -0.5473
  121OSM    C3S12760   5.953   3.159   6.213  0.0484  0.5295  0.5747
  121OSM    H3S12761   5.883   3.080   6.247 -0.0260  1.4954  2.8787
  121OSM     O312762   5.907   3.197   6.086 -0.0142  0.2343 -0.0234
  121OSM    HO312763   5.974   3.171   6.022 -0.5794  1.6408 -1.2584
  121OSM    C4S12764   5.924   3.280   6.298 -0.7788 -0.4804  0.3261
  121OSM    H4S12765   5.981   3.369   6.267 -0.9348 -1.0026 -1.6013
  121OSM    C5S12766   5.834   3.302   6.398  0.9466 -0.3031 -0.2938
  121OSM    H5S12767   5.753   3.229   6.417  1.0543 -0.8832 -1.9194
  121OSM    C6S12768   5.824   3.436   6.471  0.0735  0.3171 -0.0236
  121OSM    H6S12769   5.724   3.484   6.464  1.0612  2.4569 -0.4346
  121OSM    H6T12770   5.882   3.516   6.420  1.3642 -1.4604 -1.4440
  121OSM    C7S12771   5.866   3.424   6.614 -0.0184  0.2735  0.1441
  121OSM    H7S12772   5.960   3.366   6.622 -1.5504 -2.3711  0.2450
  121OSM    H7T12773   5.793   3.359   6.667 -0.4006 -0.3622 -1.1295
  121OSM    C8S12774   5.876   3.562   6.679 -0.1355  0.1452  0.0502
  121OSM    H8S12775   5.798   3.640   6.668  0.0473  0.5827  1.5568
  121OSM    H8T12776   5.972   3.605   6.642  1.0484 -0.0042  2.7256
  121OSM    C9S12777   5.902   3.544   6.830  0.0641  0.1741  0.3537
  121OSM    H9S12778   5.987   3.476   6.852 -0.3473 -0.5247 -0.1502
  121OSM    H9T12779   5.815   3.486   6.866  0.6112 -2.2439 -1.8902
  121OSM   C10S12780   5.910   3.674   6.906 -0.7142 -0.9194 -0.6002
  121OSM   H10S12781   5.830   3.746   6.879  0.6112  0.2369 -1.5711
  121OSM   H10T12782   6.000   3.735   6.888 -0.4440 -1.5603 -1.4787
  121OSM   C11S12783   5.912   3.644   7.062  0.0822  0.0863  0.2771
  121OSM   H11S12784   6.005   3.588   7.084 -0.8161 -2.2207 -1.3741
  121OSM   H11T12785   5.826   3.580   7.092 -0.0422 -0.1580 -0.5653
  121OSM   C12S12786   5.901   3.770   7.148  0.5354 -0.6282  0.1124
  121OSM   H12S12787   5.800   3.815   7.146  0.6778 -0.3316 -0.8643
  121OSM   H12T12788   5.956   3.858   7.107  0.8498 -0.5586  0.6670
  121OSM   C13S12789   5.948   3.757   7.296  0.4213  0.8987  0.3503
  121OSM   H13S12790   6.051   3.714   7.295  0.7052  1.5438  0.8286
  121OSM   H13T12791   5.894   3.674   7.346  0.8601 -0.8737 -1.9446
  121OSM   C14S12792   5.931   3.884   7.374  0.0437  0.0486  0.1226
  121OSM   H14S12793   5.823   3.908   7.373  0.6382  3.2646 -0.7462
  121OSM   H14T12794   5.992   3.971   7.340 -0.5137 -0.4617 -2.3587
  121OSM   C15S12795   5.953   3.857   7.529 -0.2091 -0.0586  0.2713
  121OSM   H15S12796   6.057   3.886   7.557 -0.9488  1.6319  1.4405
  121OSM   H15T12797   5.941   3.748   7.546  3.7050 -0.9810 -1.6125
  121OSM   C16S12798   5.856   3.938   7.620 -0.7674 -0.3173 -0.2035
  121OSM   H16S12799   5.867   3.904   7.726 -0.0922 -0.2430 -0.2420
  121OSM   H16T12800   5.752   3.920   7.588 -0.9209 -0.1414  0.1826
  121OSM   C17S12801   5.876   4.093   7.609  0.3908 -0.3900 -0.6969
  121OSM   H17S12802   5.816   4.129   7.523 -0.4337 -1.5838 -0.6486
  121OSM   H17T12803   5.986   4.102   7.596  0.5884 -2.2637 -0.6026
  121OSM   C18S12804   5.837   4.180   7.730  0.6974 -0.7929 -0.1497
  121OSM   H18S12805   5.730   4.165   7.754  0.5812  0.2676  0.0337
  121OSM   H18T12806   5.854   4.288   7.713  3.0159 -0.8598  1.3181
  121OSM   H18U12807   5.910   4.160   7.812  2.3918 -0.5304 -1.5279
  121OSM    C1F12808   6.300   3.138   6.356 -0.3060 -0.9621  0.9028
  121OSM     OF12809   6.373   3.166   6.257 -0.1002 -0.3659 -0.3273
  121OSM    C2F12810   6.364   3.114   6.486 -0.3699  0.3475  0.4018
  121OSM    H2F12811   6.381   3.005   6.500  0.8062  0.1995 -1.7662
  121OSM    H2G12812   6.293   3.142   6.566 -0.4939  2.1808 -0.3189
  121OSM    C3F12813   6.506   3.171   6.509  0.2941  0.4731 -0.4903
  121OSM    H3F12814   6.498   3.282   6.514 -0.0879  0.3847  1.1908
  121OSM    H3G12815   6.573   3.137   6.427 -0.1351  1.6244 -1.3427
  121OSM    C4F12816   6.558   3.113   6.639  0.7746 -0.7961  0.7018
  121OSM    H4F12817   6.661   3.145   6.666  1.1146 -0.9105 -0.3880
  121OSM    H4G12818   6.564   3.002   6.634 -0.5257 -1.0094  2.6769
  121OSM    C5F12819   6.485   3.148   6.773  0.2317  0.5022  0.5126
  121OSM    H5F12820   6.376   3.132   6.767  0.2761  0.5293 -0.4422
  121OSM    H5G12821   6.512   3.254   6.792 -1.3756  0.9034  0.7198
  121OSM    C6F12822   6.545   3.062   6.879 -0.6709 -0.0512  0.4371
  121OSM    H6F12823   6.656   3.059   6.868 -0.6024 -2.9972  1.0337
  121OSM    H6G12824   6.509   2.957   6.869 -0.1355 -0.2570  0.6243
  121OSM    C7F12825   6.504   3.115   7.017  0.0218 -0.2472  0.1058
  121OSM    H7F12826   6.393   3.110   7.026  0.0636  1.1613  1.9565
  121OSM    H7G12827   6.516   3.224   7.033  1.0283 -0.6632  2.7192
  121OSM    C8F12828   6.566   3.044   7.134 -0.1890  0.9341 -0.0017
  121OSM    H8F12829   6.675   3.065   7.139  0.2848 -0.8839 -1.5581
  121OSM    H8G12830   6.550   2.935   7.115 -0.1160  1.1277 -1.1886
  121OSM    C9F12831   6.496   3.069   7.263 -0.1000  0.3728  0.2826
  121OSM    H9F12832   6.464   3.173   7.280 -2.0424 -0.5692  3.0785
  121OSM   C10F12833   6.462   2.984   7.360  0.7191 -0.0003 -0.4534
  121OSM   H10F12834   6.425   3.035   7.450  0.1566  0.4603 -0.9398
  121OSM   C11F12835   6.486   2.832   7.370 -1.0062  0.1517  0.3274
  121OSM   H11F12836   6.583   2.802   7.326 -0.3325  1.1082  1.0989
  121OSM   H11G12837   6.412   2.782   7.305  0.2103 -0.0446 -0.9608
  121OSM   C12F12838   6.472   2.758   7.504 -0.6576 -0.1390 -0.0389
  121OSM   H12F12839   6.482   2.653   7.469  3.5811 -0.0518  0.4439
  121OSM   H12G12840   6.365   2.753   7.536 -0.0422 -1.0324  2.0224
  121OSM   C13F12841   6.576   2.781   7.611 -0.8220 -0.1521  0.2226
  121OSM   H13F12842   6.590   2.886   7.642 -1.1379 -0.1821  0.4710
  121OSM   H13G12843   6.680   2.752   7.582  0.2272  1.1707  2.4056
  121OSM   C14F12844   6.544   2.693   7.738  0.6828  0.3625 -0.9479
  121OSM   H14F12845   6.629   2.714   7.807 -0.5708  3.3255 -0.1235
  121OSM   H14G12846   6.556   2.588   7.706 -2.3617  0.3482 -2.4323
  121OSM   C15F12847   6.406   2.722   7.802  0.1012  0.4800  0.1141
  121OSM   H15F12848   6.334   2.668   7.737 -0.6920  1.1731  0.4019
  121OSM   H15G12849   6.395   2.832   7.803  2.3319  0.7559  1.9976
  121OSM   C16F12850   6.386   2.655   7.938  0.4171  0.2430  0.2027
  121OSM   H16F12851   6.456   2.713   8.002  0.1035  2.4074 -1.3012
  121OSM   H16G12852   6.419   2.549   7.941  2.2501  0.7473 -0.5800
  121OSM   C17F12853   6.240   2.671   7.998  0.2035  0.8621  0.1273
  121OSM   H17F12854   6.211   2.578   8.053  0.4576  2.0070  2.3055
  121OSM   H17G12855   6.159   2.667   7.922 -0.8499  0.2059  1.2428
  121OSM   C18F12856   6.219   2.794   8.086  0.1958 -0.3013  0.0645
  121OSM   H18F12857   6.115   2.804   8.123  1.2158  3.1206  2.5518
  121OSM   H18G12858   6.256   2.881   8.029 -0.0765  0.6188  1.2408
  121OSM   H18H12859   6.280   2.776   8.178 -0.4379 -1.2478  0.3179
  122OSM      N12860   5.498   4.579   5.847  0.4068 -0.6600 -1.2545
  122OSM    C1512861   5.619   4.500   5.816 -0.0014  0.4438  0.3009
  122OSM   H15A12862   5.611   4.453   5.718  0.1240 -1.0377  0.9665
  122OSM   H15B12863   5.642   4.424   5.889  0.5988  0.4429  0.1205
  122OSM   H15C12864   5.707   4.560   5.831  0.9648 -0.7854 -0.1569
  122OSM    C1412865   5.499   4.701   5.751 -0.3386 -0.7950 -0.3223
  122OSM   H14A12866   5.593   4.752   5.766 -0.3345 -0.3961 -1.5898
  122OSM   H14B12867   5.419   4.773   5.767  0.5794 -0.1099  1.5228
  122OSM   H14C12868   5.482   4.671   5.649  0.5738 -0.9403 -0.4321
  122OSM    C1312869   5.374   4.497   5.819 -0.5448 -0.0944 -0.1470
  122OSM   H13A12870   5.378   4.407   5.878 -1.8795 -0.6746 -0.8827
  122OSM   H13B12871   5.361   4.474   5.714  1.8625  0.3485 -0.5881
  122OSM   H13C12872   5.282   4.549   5.841 -1.0968 -1.9023  2.1896
  122OSM    C1212873   5.503   4.623   5.993 -0.2212  0.0026  0.1032
  122OSM   H12A12874   5.492   4.532   6.049  0.3292  0.9023  1.7249
  122OSM   H12B12875   5.420   4.687   6.018 -1.9084 -0.6883 -3.1624
  122OSM    C1112876   5.632   4.696   6.036 -0.5931 -0.3897 -0.1943
  122OSM   H11A12877   5.722   4.656   5.984 -0.2554 -0.4078  0.3993
  122OSM   H11B12878   5.644   4.679   6.145 -1.3857 -3.0433 -0.4718
  122OSM      P12879   5.736   4.913   5.945 -0.4601  0.2109 -0.1386
  122OSM    O1312880   5.765   4.855   5.807  0.2535 -0.2837  0.3179
  122OSM    O1412881   5.705   5.059   5.956 -0.1331  0.1957  0.5919
  122OSM    O1112882   5.853   4.872   6.041  0.2416 -0.2241 -0.5063
  122OSM    O1212883   5.618   4.837   6.010 -0.4681 -0.0244 -0.1779
  122OSM    C1S12884   5.862   4.917   6.180 -0.7744 -0.2429 -0.3407
  122OSM    H1S12885   5.762   4.917   6.229 -0.4629 -1.7699  0.3429
  122OSM    H1T12886   5.917   5.013   6.182 -0.3114 -0.4402  2.8186
  122OSM     NF12887   5.959   4.863   6.406 -0.2589 -0.2395  0.3186
  122OSM    HNF12888   6.043   4.894   6.450  2.1243 -0.8817 -3.3097
  122OSM    C2S12889   5.959   4.820   6.268  0.2167  0.1320  1.0519
  122OSM    H2S12890   5.916   4.717   6.269 -0.6156  0.4716  1.1365
  122OSM    C3S12891   6.101   4.812   6.200 -0.2532  0.4833  0.3415
  122OSM    H3S12892   6.147   4.913   6.200 -1.5730  1.1217 -0.9316
  122OSM     O312893   6.101   4.771   6.056 -0.3251  0.3695 -0.3764
  122OSM    HO312894   6.006   4.762   6.047 -0.3151 -0.0733 -0.0721
  122OSM    C4S12895   6.180   4.704   6.276  0.0660 -0.0500 -0.3998
  122OSM    H4S12896   6.133   4.605   6.279  1.6520 -0.8415 -0.3639
  122OSM    C5S12897   6.296   4.721   6.340 -0.5465  0.2600 -0.5536
  122OSM    H5S12898   6.352   4.814   6.324  0.7681 -0.1919  1.1317
  122OSM    C6S12899   6.361   4.606   6.415  0.2582 -0.9039 -0.7020
  122OSM    H6S12900   6.467   4.600   6.383  0.6930  0.7429  0.2934
  122OSM    H6T12901   6.309   4.508   6.408 -0.0929 -1.0338  2.3076
  122OSM    C7S12902   6.366   4.640   6.568 -0.6258 -0.2176 -0.7254
  122OSM    H7S12903   6.425   4.734   6.577  0.4406 -0.9959  0.8241
  122OSM    H7T12904   6.433   4.571   6.622  0.6557  0.1412 -1.7897
  122OSM    C8S12905   6.231   4.654   6.644 -0.1165 -0.2363  0.2506
  122OSM    H8S12906   6.216   4.557   6.696 -0.7707  0.3662  1.2095
  122OSM    H8T12907   6.146   4.680   6.577  2.0565  4.1111 -1.1770
  122OSM    C9S12908   6.217   4.767   6.748 -0.4377 -0.2179 -0.0798
  122OSM    H9S12909   6.109   4.778   6.772 -0.9204  0.3273 -2.2732
  122OSM    H9T12910   6.234   4.867   6.701 -0.5131  0.8118  1.9703
  122OSM   C10S12911   6.297   4.732   6.875  0.8700  0.2815  0.1162
  122OSM   H10S12912   6.407   4.726   6.859  0.7451  0.5554 -0.8885
  122OSM   H10T12913   6.255   4.636   6.913 -1.6328  1.7044  1.2172
  122OSM   C11S12914   6.276   4.834   6.985 -0.2646 -0.3055  0.8496
  122OSM   H11S12915   6.300   4.938   6.953  0.1544 -0.9780 -1.1727
  122OSM   H11T12916   6.354   4.822   7.064  0.6613  2.8259  0.5707
  122OSM   C12S12917   6.131   4.835   7.049 -0.2532  0.2145 -0.1901
  122OSM   H12S12918   6.102   4.730   7.068 -0.9343  0.7822  2.3352
  122OSM   H12T12919   6.054   4.875   6.979  3.8814  2.3817 -3.9778
  122OSM   C13S12920   6.111   4.920   7.175  0.4574 -0.0710 -0.0009
  122OSM   H13S12921   6.006   4.909   7.208  0.4428 -0.3864 -0.1478
  122OSM   H13T12922   6.123   5.030   7.164 -1.7424  0.3417  1.1020
  122OSM   C14S12923   6.199   4.868   7.284  0.3838  0.6233  0.3005
  122OSM   H14S12924   6.302   4.890   7.249  0.3015  0.5164 -0.0099
  122OSM   H14T12925   6.180   4.758   7.287 -0.9715  0.8473  1.5070
  122OSM   C15S12926   6.176   4.936   7.420  0.2517  0.2763  0.3916
  122OSM   H15S12927   6.073   4.917   7.459 -0.1729  0.8745 -0.4116
  122OSM   H15T12928   6.171   5.047   7.422 -2.5188  0.2342  1.0272
  122OSM   C16S12929   6.275   4.894   7.523  0.0775  0.3918 -0.2385
  122OSM   H16S12930   6.379   4.912   7.488 -0.1081  1.8283 -0.1291
  122OSM   H16T12931   6.264   4.785   7.538 -0.2078  0.3785 -0.5397
  122OSM   C17S12932   6.263   4.959   7.664 -0.0324  0.1059 -0.3272
  122OSM   H17S12933   6.164   4.955   7.714 -0.2896  2.0199 -0.5853
  122OSM   H17T12934   6.269   5.069   7.645  0.9815  0.4505  1.7405
  122OSM   C18S12935   6.366   4.907   7.768 -0.0065 -0.8617  0.1012
  122OSM   H18S12936   6.472   4.920   7.736  0.5692 -0.2994  2.1229
  122OSM   H18T12937   6.357   4.798   7.786  0.5533 -1.0776 -0.8170
  122OSM   H18U12938   6.367   4.957   7.867  0.2073  2.8351 -1.5860
  122OSM    C1F12939   5.852   4.866   6.483 -0.0964  0.1451 -0.1228
  122OSM     OF12940   5.750   4.799   6.462  0.1434 -0.3660 -0.3560
  122OSM    C2F12941   5.865   4.937   6.615  0.4948  0.1430  0.1996
  122OSM    H2F12942   5.872   5.045   6.589  1.6043 -0.2100 -1.1439
  122OSM    H2G12943   5.959   4.900   6.661  0.3622 -1.3092 -0.6486
  122OSM    C3F12944   5.743   4.914   6.705  0.1891  0.9325 -0.2071
  122OSM    H3F12945   5.741   4.808   6.739  0.3704  0.5388 -1.3754
  122OSM    H3G12946   5.652   4.933   6.644  0.3396  1.4079 -0.2897
  122OSM    C4F12947   5.744   5.000   6.832  0.0476  0.5301  0.0745
  122OSM    H4F12948   5.701   5.098   6.800 -2.7384 -1.1699 -1.9132
  122OSM    H4G12949   5.850   5.005   6.865  0.0652 -0.9644  0.2827
  122OSM    C5F12950   5.661   4.951   6.954 -0.2296  0.2496  0.5274
  122OSM    H5F12951   5.687   4.846   6.975 -1.4714 -0.5825 -1.7123
  122OSM    H5G12952   5.554   4.936   6.926 -0.5813 -3.4998  3.1778
  122OSM    C6F12953   5.687   5.036   7.081 -0.5997  0.2376 -1.0618
  122OSM    H6F12954   5.666   5.143   7.058 -2.5716 -0.1317 -1.1358
  122OSM    H6G12955   5.791   5.027   7.119 -0.7245  0.6619 -0.6151
  122OSM    C7F12956   5.598   5.000   7.199  0.2394 -0.1608  0.0215
  122OSM    H7F12957   5.597   4.891   7.221 -0.2701  0.1052  1.4519
  122OSM    H7G12958   5.492   5.021   7.174  1.2042  1.0181 -3.7000
  122OSM    C8F12959   5.647   5.071   7.329  0.0889 -0.0157  0.1191
  122OSM    H8F12960   5.646   5.181   7.312  0.4236 -0.2476 -1.6728
  122OSM    H8G12961   5.756   5.048   7.337  0.3138  1.0697  0.3135
  122OSM    C9F12962   5.562   5.028   7.446 -0.2760 -0.3573 -0.1338
  122OSM    H9F12963   5.457   5.057   7.437 -0.1875 -0.5334 -2.1326
  122OSM   C10F12964   5.593   4.973   7.563 -0.1318  1.0239  0.3355
  122OSM   H10F12965   5.505   4.944   7.622 -0.1152 -0.8840 -0.5137
  122OSM   C11F12966   5.732   4.945   7.617 -0.0834 -0.3008  0.2558
  122OSM   H11F12967   5.811   5.016   7.584 -0.3288 -1.0129 -2.0154
  122OSM   H11G12968   5.763   4.844   7.583 -0.3841  0.2892 -1.9360
  122OSM   C12F12969   5.724   4.931   7.765  0.4126  0.4459  0.5029
  122OSM   H12F12970   5.636   4.874   7.800 -0.9678  1.7219 -0.7416
  122OSM   H12G12971   5.722   5.033   7.808  1.4435 -0.3058  2.4489
  122OSM   C13F12972   5.852   4.875   7.821 -0.4840  0.6647  0.8132
  122OSM   H13F12973   5.935   4.931   7.773  0.3066 -1.3033 -0.2127
  122OSM   H13G12974   5.855   4.770   7.786 -0.1788  0.4172  1.5556
  122OSM   C14F12975   5.865   4.902   7.976  0.7258 -0.2181 -0.1723
  122OSM   H14F12976   5.770   4.884   8.030 -0.2767  2.5589 -0.8580
  122OSM   H14G12977   5.883   5.009   7.998 -1.5382  0.3070 -0.6269
  122OSM   C15F12978   5.969   4.820   8.046  0.6541 -0.5554  0.3093
  122OSM   H15F12979   6.066   4.848   8.000  1.2677 -1.5356  0.9610
  122OSM   H15G12980   5.954   4.715   8.015  0.8522 -0.6112  0.4012
  122OSM   C16F12981   5.978   4.841   8.198 -0.1667 -0.9912 -0.0732
  122OSM   H16F12982   5.902   4.777   8.248 -0.5930  0.3320  1.0497
  122OSM   H16G12983   5.951   4.945   8.228 -0.1060 -0.9365 -0.2068
  122OSM   C17F12984   6.114   4.803   8.256 -0.0286 -0.0287 -0.7194
  122OSM   H17F12985   6.172   4.725   8.202 -0.2187 -0.0529 -0.8926
  122OSM   H17G12986   6.100   4.770   8.361  2.4542  1.0058  0.0178
  122OSM   C18F12987   6.202   4.922   8.260 -0.7992  0.1237  0.6868
  122OSM   H18F12988   6.167   5.003   8.328 -0.7799  0.2334  0.5671
  122OSM   H18G12989   6.215   4.973   8.162  3.1069 -2.0883 -0.1379
  122OSM   H18H12990   6.303   4.894   8.295 -0.9163  0.1889  1.0867
  123OSM      N12991   0.908   0.286   6.234 -0.3606  0.5514 -0.4035
  123OSM    C1512992   0.871   0.159   6.157 -0.1457  0.5598  0.1783
  123OSM   H15A12993   0.897   0.074   6.218 -0.8169 -0.1096 -0.4442
  123OSM   H15B12994   0.920   0.152   6.062  0.1394 -1.1376  0.4055
  123OSM   H15C12995   0.765   0.144   6.142 -0.2192  0.1029  1.0526
  123OSM    C1412996   0.870   0.403   6.142 -0.0376 -0.2449 -0.0643
  123OSM   H14A12997   0.896   0.492   6.197  5.8710 -1.3020 -0.5812
  123OSM   H14B12998   0.762   0.415   6.136 -0.0070  1.5923  1.7318
  123OSM   H14C12999   0.930   0.413   6.053 -1.0504  2.0978 -0.5809
  123OSM    C1313000   0.823   0.296   6.356 -0.2756 -0.1694 -0.3231
  123OSM   H13A13001   0.844   0.223   6.433  0.5368 -0.4495 -0.8001
  123OSM   H13B13002   0.718   0.293   6.332 -0.4619  1.3254  0.1834
  123OSM   H13C13003   0.836   0.393   6.402  4.5351 -1.8629  2.6636
  123OSM    C1213004   1.059   0.285   6.258  0.2133  0.0101 -0.1560
  123OSM   H12A13005   1.089   0.384   6.289  1.1069 -0.2430 -0.1930
  123OSM   H12B13006   1.115   0.256   6.171 -0.4128 -0.7007 -0.3355
  123OSM    C1113007   1.106   0.197   6.376  0.7408  0.5163 -0.6518
  123OSM   H11A13008   1.088   0.249   6.472 -0.5167 -3.3582  1.4380
  123OSM   H11B13009   1.217   0.197   6.371  0.8034  0.3267  0.4824
  123OSM      P13010   1.124  -0.056   6.288  0.3257  0.3545 -0.2512
  123OSM    O1313011   1.052  -0.184   6.312 -0.3136  0.2832 -0.3093
  123OSM    O1413012   1.139  -0.018   6.147 -0.0584  0.1956  0.1862
  123OSM    O1113013   1.271  -0.060   6.349 -0.0507 -0.3792  0.6500
  123OSM    O1213014   1.058   0.063   6.367  0.7027  0.2838  0.2676
  123OSM    C1S13015   1.298  -0.071   6.483 -0.4504 -0.2450 -0.7898
  123OSM    H1S13016   1.255   0.016   6.537 -1.5035 -0.1026 -1.8238
  123OSM    H1T13017   1.407  -0.063   6.503 -1.0416  1.7526  2.5197
  123OSM     NF13018   1.268  -0.191   6.695 -0.1746  0.2740 -0.3612
  123OSM    HNF13019   1.357  -0.229   6.721  0.8459  3.0694  0.5505
  123OSM    C2S13020   1.248  -0.197   6.551 -0.0585  0.1766  0.0622
  123OSM    H2S13021   1.138  -0.207   6.543 -0.2027 -1.6736  2.8950
  123OSM    C3S13022   1.322  -0.322   6.488  0.1230  0.5925 -0.2137
  123OSM    H3S13023   1.432  -0.310   6.497  0.1290 -0.2689  1.1630
  123OSM     O313024   1.279  -0.352   6.353  0.4125 -0.2056 -0.2254
  123OSM    HO313025   1.225  -0.276   6.331  0.1540 -0.2587  0.2042
  123OSM    C4S13026   1.280  -0.434   6.575  0.2656 -0.2828 -0.0896
  123OSM    H4S13027   1.172  -0.436   6.597  0.5598 -4.1978  1.7916
  123OSM    C5S13028   1.345  -0.534   6.638 -0.1878  0.1425  0.0113
  123OSM    H5S13029   1.455  -0.529   6.628 -0.2267 -1.5237 -1.9004
  123OSM    C6S13030   1.288  -0.642   6.730  0.1213  0.3676  0.6632
  123OSM    H6S13031   1.325  -0.743   6.702  4.0975  1.6079  0.9158
  123OSM    H6T13032   1.177  -0.648   6.724  0.0435  1.4090  0.8858
  123OSM    C7S13033   1.319  -0.612   6.880  0.3448 -0.6982 -0.1183
  123OSM    H7S13034   1.427  -0.628   6.895  0.0376 -1.8196  1.1278
  123OSM    H7T13035   1.274  -0.692   6.943 -1.0811  0.9837  1.1164
  123OSM    C8S13036   1.280  -0.471   6.935 -0.1846 -0.2777  0.2393
  123OSM    H8S13037   1.170  -0.467   6.918 -0.3971 -0.6763  1.4001
  123OSM    H8T13038   1.318  -0.390   6.869 -1.5028  1.6549  1.7466
  123OSM    C9S13039   1.334  -0.453   7.075  0.5567 -1.0889 -0.0206
  123OSM    H9S13040   1.293  -0.524   7.149 -0.5675 -1.5379 -1.0475
  123OSM    H9T13041   1.292  -0.355   7.106 -1.0688 -1.5551 -0.6687
  123OSM   C10S13042   1.487  -0.440   7.089 -0.6054 -0.6530 -0.0431
  123OSM   H10S13043   1.533  -0.378   7.009 -1.5892  0.9500  0.5796
  123OSM   H10T13044   1.522  -0.545   7.081 -2.0599 -1.2208  0.7322
  123OSM   C11S13045   1.527  -0.393   7.227  0.1748 -0.4883  1.0468
  123OSM   H11S13046   1.501  -0.286   7.237  1.7133 -0.0706  0.8021
  123OSM   H11T13047   1.637  -0.391   7.218  0.2087  1.2645  1.4897
  123OSM   C12S13048   1.488  -0.479   7.341  0.0864 -0.3807 -0.2496
  123OSM   H12S13049   1.484  -0.589   7.327 -1.0716 -0.4289  0.3841
  123OSM   H12T13050   1.381  -0.455   7.356  0.0509 -0.8176  0.1966
  123OSM   C13S13051   1.563  -0.460   7.472  0.1170  0.4346 -0.2648
  123OSM   H13S13052   1.579  -0.354   7.501 -2.3574  0.9144 -0.4863
  123OSM   H13T13053   1.664  -0.502   7.451  0.1116  0.1648  0.2288
  123OSM   C14S13054   1.508  -0.543   7.578 -0.2609  0.1842 -0.2237
  123OSM   H14S13055   1.526  -0.642   7.531  0.8087  0.7642 -1.0833
  123OSM   H14T13056   1.399  -0.525   7.585 -0.4038 -0.3497 -0.9379
  123OSM   C15S13057   1.585  -0.525   7.712 -0.5925 -0.6977  0.3763
  123OSM   H15S13058   1.585  -0.415   7.727  1.6175 -0.6425  0.3257
  123OSM   H15T13059   1.691  -0.554   7.693 -0.6228 -0.4022 -0.2631
  123OSM   C16S13060   1.536  -0.612   7.826  0.7969  0.5495 -0.0611
  123OSM   H16S13061   1.542  -0.723   7.818  1.4643  0.3945  1.9430
  123OSM   H16T13062   1.427  -0.598   7.840  0.9184  1.2180  0.2335
  123OSM   C17S13063   1.594  -0.571   7.959 -0.1034  0.2857 -0.1428
  123OSM   H17S13064   1.585  -0.462   7.974  1.0791  0.2860  0.7427
  123OSM   H17T13065   1.704  -0.588   7.958  0.2342  2.2407  0.6510
  123OSM   C18S13066   1.536  -0.658   8.075 -0.0455  0.1445  0.1631
  123OSM   H18S13067   1.566  -0.763   8.054  1.6280  0.1227  2.2619
  123OSM   H18T13068   1.430  -0.636   8.097 -0.2219 -1.5720  1.2692
  123OSM   H18U13069   1.587  -0.659   8.174 -0.6231 -4.3093  0.6306
  123OSM    C1F13070   1.205  -0.116   6.793 -0.6409 -0.2183  0.6482
  123OSM     OF13071   1.089  -0.077   6.767  0.2482  0.2125 -0.2273
  123OSM    C2F13072   1.275  -0.084   6.925 -0.0953  0.1651  0.4553
  123OSM    H2F13073   1.386  -0.076   6.921 -0.1447  0.9335  0.5956
  123OSM    H2G13074   1.239  -0.170   6.987 -0.7089 -0.4337 -0.7070
  123OSM    C3F13075   1.234   0.047   6.996 -0.1881  0.5615  0.3954
  123OSM    H3F13076   1.123   0.049   7.000 -0.4237 -3.1348 -0.5716
  123OSM    H3G13077   1.262   0.126   6.923 -1.5383  0.6372 -0.0870
  123OSM    C4F13078   1.272   0.074   7.133  0.0650  0.1690  1.1171
  123OSM    H4F13079   1.195   0.022   7.194 -1.4797 -0.3570 -1.1645
  123OSM    H4G13080   1.270   0.182   7.159  3.2862  0.0137  2.5002
  123OSM    C5F13081   1.413   0.032   7.170 -0.1898  0.6428  0.5006
  123OSM    H5F13082   1.484   0.064   7.090 -1.0707  0.9970 -0.1518
  123OSM    H5G13083   1.422  -0.079   7.170  1.4034  0.6773  3.5362
  123OSM    C6F13084   1.456   0.090   7.301 -0.9080 -0.7296 -0.7699
  123OSM    H6F13085   1.384   0.063   7.381 -0.7401 -1.4727 -0.8646
  123OSM    H6G13086   1.445   0.200   7.292 -2.3158 -0.3168  3.8987
  123OSM    C7F13087   1.598   0.053   7.352  0.9680  0.2506  0.0002
  123OSM    H7F13088   1.676   0.076   7.276  2.1359  0.9389  1.3464
  123OSM    H7G13089   1.599  -0.056   7.370 -3.2618 -0.2140 -1.4659
  123OSM    C8F13090   1.641   0.131   7.481  0.0270  0.1362  0.4078
  123OSM    H8F13091   1.603   0.234   7.465 -0.4577  0.4826  3.2328
  123OSM    H8G13092   1.752   0.137   7.481  0.0996 -0.7182  1.8876
  123OSM    C9F13093   1.591   0.085   7.617 -0.3944 -0.1117  0.9821
  123OSM    H9F13094   1.546  -0.015   7.624 -2.9973  0.8040 -1.1240
  123OSM   C10F13095   1.593   0.159   7.733  0.2694  0.7312  0.3315
  123OSM   H10F13096   1.564   0.110   7.827  1.3872  0.1407  0.3872
  123OSM   C11F13097   1.637   0.295   7.755  0.2280  0.1119 -0.1712
  123OSM   H11F13098   1.629   0.352   7.660 -0.3964  0.9003  0.3414
  123OSM   H11G13099   1.736   0.321   7.799 -0.2977  0.5384  0.7919
  123OSM   C12F13100   1.524   0.368   7.832  0.0785 -0.0340 -0.2368
  123OSM   H12F13101   1.425   0.322   7.809  0.1272 -1.1903  1.6077
  123OSM   H12G13102   1.527   0.477   7.810 -0.2334 -0.3449 -1.9491
  123OSM   C13F13103   1.544   0.371   7.985 -0.0254 -0.0724  0.4638
  123OSM   H13F13104   1.631   0.435   8.010 -0.1576  0.5685 -0.6778
  123OSM   H13G13105   1.560   0.270   8.030  1.7129 -0.0503 -0.0391
  123OSM   C14F13106   1.430   0.445   8.051 -0.2620  0.2686  0.7112
  123OSM   H14F13107   1.345   0.412   7.988  1.5363  0.1629 -1.8359
  123OSM   H14G13108   1.442   0.555   8.047  0.3279  0.2452  1.5684
  123OSM   C15F13109   1.415   0.393   8.195 -0.0459  0.2385  0.2419
  123OSM   H15F13110   1.509   0.422   8.246  1.0558 -0.5597 -1.2353
  123OSM   H15G13111   1.410   0.283   8.176 -0.3827  0.2793  0.0934
  123OSM   C16F13112   1.281   0.440   8.267  0.6732 -0.0402  0.6516
  123OSM   H16F13113   1.201   0.394   8.205  1.9166  1.4926 -2.3233
  123OSM   H16G13114   1.271   0.550   8.255 -2.6976 -0.3591 -0.3347
  123OSM   C17F13115   1.286   0.411   8.413  0.2651  0.7383 -0.5630
  123OSM   H17F13116   1.385   0.446   8.450  1.6921 -0.6617 -2.8194
  123OSM   H17G13117   1.280   0.301   8.429 -1.5251  0.6876 -1.3749
  123OSM   C18F13118   1.183   0.490   8.492 -0.3749  0.8792  0.0048
  123OSM   H18F13119   1.086   0.435   8.482 -0.0317  0.5267 -1.9543
  123OSM   H18G13120   1.182   0.592   8.449  1.2668  1.1431  0.5260
  123OSM   H18H13121   1.206   0.491   8.600 -1.3102  0.6497  0.2131
  124OSM      N13122   2.220   2.457   6.064  0.1401  0.0958 -0.1910
  124OSM    C1513123   2.171   2.334   6.149  0.3383 -0.6803 -0.4562
  124OSM   H15A13124   2.123   2.255   6.094  2.6090 -2.0673 -0.5759
  124OSM   H15B13125   2.114   2.362   6.236  0.9080  1.7366 -0.7886
  124OSM   H15C13126   2.259   2.292   6.196  0.3532  0.1647  0.3083
  124OSM    C1413127   2.319   2.414   5.966  0.6905 -0.3569 -0.2866
  124OSM   H14A13128   2.348   2.494   5.899 -0.6936 -0.0641 -0.5584
  124OSM   H14B13129   2.294   2.319   5.923 -0.6709 -0.8779  1.5193
  124OSM   H14C13130   2.406   2.387   6.025 -1.5031 -2.1146  2.3982
  124OSM    C1313131   2.101   2.515   5.984  0.8585 -0.0799 -0.2940
  124OSM   H13A13132   2.025   2.543   6.056  1.2993 -1.4826  0.7921
  124OSM   H13B13133   2.064   2.438   5.918 -1.3089  1.1870 -0.6437
  124OSM   H13C13134   2.134   2.601   5.929 -2.3274  0.4536 -1.5260
  124OSM    C1213135   2.268   2.568   6.155 -0.2163  0.0344 -0.3169
  124OSM   H12A13136   2.185   2.615   6.206  1.7142  3.1529  0.2588
  124OSM   H12B13137   2.318   2.654   6.111 -0.1738  0.2387  0.1220
  124OSM    C1113138   2.345   2.531   6.284  0.1436 -0.3984  0.5169
  124OSM   H11A13139   2.293   2.453   6.343 -2.2041  0.0167 -0.8815
  124OSM   H11B13140   2.343   2.615   6.356 -2.6388 -0.4745  0.6438
  124OSM      P13141   2.591   2.587   6.180  0.1653  0.2644  0.0984
  124OSM    O1313142   2.674   2.494   6.093  0.2259  0.0861  0.7569
  124OSM    O1413143   2.530   2.708   6.111 -0.1165 -0.2295 -0.5646
  124OSM    O1113144   2.678   2.637   6.293 -0.9652 -0.7065  0.1758
  124OSM    O1213145   2.476   2.497   6.252  0.6564  0.6623  0.6120
  124OSM    C1S13146   2.632   2.741   6.387  0.1015  0.0855 -0.1997
  124OSM    H1S13147   2.547   2.700   6.445  1.2477 -1.7201  0.2843
  124OSM    H1T13148   2.601   2.827   6.324 -0.7568 -0.5615 -0.6782
  124OSM     NF13149   2.680   2.880   6.594 -0.1318  0.3332 -0.1632
  124OSM    HNF13150   2.699   2.977   6.600 -1.0281  0.5221 -0.2269
  124OSM    C2S13151   2.737   2.797   6.489 -0.6856  0.1944 -0.2295
  124OSM    H2S13152   2.786   2.705   6.525 -2.8446 -0.9688 -0.0688
  124OSM    C3S13153   2.849   2.870   6.411  0.1443  0.3613 -0.6338
  124OSM    H3S13154   2.817   2.973   6.386  1.0494  0.8434  0.1144
  124OSM     O313155   2.890   2.805   6.289 -0.2948  0.0795  0.1431
  124OSM    HO313156   2.822   2.737   6.278 -1.9576  1.8678 -1.5467
  124OSM    C4S13157   2.970   2.896   6.500  0.4285  0.7026 -0.3632
  124OSM    H4S13158   2.976   2.995   6.549  1.5970 -0.2348  1.4897
  124OSM    C5S13159   3.075   2.814   6.529 -0.3705 -0.2973  0.1631
  124OSM    H5S13160   3.074   2.713   6.484 -0.6133 -0.2472  0.0508
  124OSM    C6S13161   3.199   2.854   6.604  0.8147 -0.5707 -0.0864
  124OSM    H6S13162   3.275   2.898   6.537  1.3817 -1.0444  0.2401
  124OSM    H6T13163   3.235   2.761   6.653  0.2835  0.0805  1.6227
  124OSM    C7S13164   3.171   2.954   6.720  0.8829  0.1354 -0.5124
  124OSM    H7S13165   3.118   3.041   6.675 -0.4294 -0.3473  0.0222
  124OSM    H7T13166   3.268   2.987   6.761  0.8657  0.0657 -0.4158
  124OSM    C8S13167   3.078   2.905   6.838 -0.6548  0.2521 -0.0740
  124OSM    H8S13168   3.122   2.808   6.871 -0.0609  0.1320 -1.1812
  124OSM    H8T13169   2.969   2.903   6.815 -0.8717  1.0962  0.8051
  124OSM    C9S13170   3.090   2.993   6.970 -0.0016  0.2802 -0.5156
  124OSM    H9S13171   3.042   3.089   6.942 -1.7144 -0.5742 -0.6422
  124OSM    H9T13172   3.200   3.003   6.982 -0.0597 -1.1718  1.8944
  124OSM   C10S13173   3.019   2.931   7.093 -0.5935  0.2934 -0.4407
  124OSM   H10S13174   3.029   2.822   7.076 -0.7920  0.0667  0.7831
  124OSM   H10T13175   2.914   2.967   7.102 -0.7535  0.0610 -1.3337
  124OSM   C11S13176   3.092   2.969   7.219  0.7270  0.5791 -0.1090
  124OSM   H11S13177   3.081   3.078   7.237  0.3690  0.1993  2.3752
  124OSM   H11T13178   3.199   2.941   7.210  0.1323 -1.7392 -0.6818
  124OSM   C12S13179   3.032   2.905   7.348 -0.5037 -0.2117  0.8389
  124OSM   H12S13180   3.062   2.799   7.361 -1.0213 -0.2904  1.4773
  124OSM   H12T13181   2.922   2.894   7.337 -0.3839  0.1473 -0.9975
  124OSM   C13S13182   3.083   2.987   7.466  0.1177  0.3924  0.0959
  124OSM   H13S13183   3.041   3.090   7.459 -0.8616 -0.1183 -2.6149
  124OSM   H13T13184   3.192   3.000   7.454 -0.2641  2.5472 -1.7820
  124OSM   C14S13185   3.036   2.921   7.595 -0.0745  0.3751  0.5189
  124OSM   H14S13186   3.062   2.815   7.575 -0.8389  0.2959 -0.1162
  124OSM   H14T13187   2.930   2.938   7.620  0.3093  0.6893  2.0131
  124OSM   C15S13188   3.117   2.958   7.718 -0.3169 -0.5006  0.3217
  124OSM   H15S13189   3.104   3.067   7.732  3.2391  0.2702 -1.3927
  124OSM   H15T13190   3.225   2.945   7.696 -0.5423  0.2360 -1.2801
  124OSM   C16S13191   3.085   2.866   7.835 -0.5175 -0.5266 -0.5142
  124OSM   H16S13192   3.152   2.876   7.923 -0.6152 -1.1667 -0.3657
  124OSM   H16T13193   3.088   2.759   7.805 -3.6377 -0.4323 -1.6172
  124OSM   C17S13194   2.935   2.885   7.867 -0.2416  0.2026  0.6272
  124OSM   H17S13195   2.903   2.807   7.940  2.9509 -0.8143  1.1121
  124OSM   H17T13196   2.883   2.854   7.774  1.1338  2.6119 -1.0420
  124OSM   C18S13197   2.902   3.019   7.922 -0.4693 -0.7618  0.0579
  124OSM   H18S13198   2.992   3.064   7.970 -0.9080 -1.7422  1.8758
  124OSM   H18T13199   2.813   3.021   7.989  0.4349  0.7380  1.2973
  124OSM   H18U13200   2.888   3.087   7.836  1.1053 -1.2817 -0.6342
  124OSM    C1F13201   2.595   2.828   6.686  0.3456  0.0437  0.5013
  124OSM     OF13202   2.579   2.707   6.689 -0.0068  0.6936 -0.2894
  124OSM    C2F13203   2.526   2.917   6.778  0.2659  0.1355  0.2714
  124OSM    H2F13204   2.417   2.906   6.762  0.2949  1.4176 -1.0913
  124OSM    H2G13205   2.553   3.025   6.772  0.1626  0.1205 -0.5340
  124OSM    C3F13206   2.577   2.864   6.916  0.5901 -0.0262 -0.3985
  124OSM    H3F13207   2.685   2.886   6.924  0.3497  1.4861 -1.1365
  124OSM    H3G13208   2.558   2.755   6.930 -0.1218  0.0812 -0.5162
  124OSM    C4F13209   2.506   2.946   7.030 -0.5595  0.6830  0.3416
  124OSM    H4F13210   2.397   2.956   7.011 -1.1821 -3.3636  0.7593
  124OSM    H4G13211   2.561   3.043   7.029  0.2228  0.2512 -0.4186
  124OSM    C5F13212   2.534   2.878   7.163  0.4383  0.2070  0.6609
  124OSM    H5F13213   2.640   2.844   7.169 -0.3676 -2.3106  3.4283
  124OSM    H5G13214   2.467   2.790   7.155 -1.3206  1.6447 -2.1130
  124OSM    C6F13215   2.511   2.968   7.280  0.4863 -0.3514 -0.4054
  124OSM    H6F13216   2.415   3.023   7.270  0.9993  0.4256 -1.2497
  124OSM    H6G13217   2.570   3.062   7.269 -1.1933  0.7660 -0.3371
  124OSM    C7F13218   2.556   2.907   7.412  0.5825  0.2757 -0.3049
  124OSM    H7F13219   2.546   2.986   7.489  0.9773  1.3555 -1.3306
  124OSM    H7G13220   2.664   2.886   7.396  0.1819 -0.5920 -2.1206
  124OSM    C8F13221   2.468   2.784   7.462 -0.2189 -0.1042  0.4731
  124OSM    H8F13222   2.513   2.700   7.404  1.2785  1.2695 -0.4566
  124OSM    H8G13223   2.364   2.803   7.427  0.8605  0.5117 -2.7807
  124OSM    C9F13224   2.473   2.773   7.610 -0.3755 -0.0232 -0.1074
  124OSM    H9F13225   2.572   2.756   7.654 -0.0877  1.8448  0.0530
  124OSM   C10F13226   2.374   2.789   7.700  0.0385 -0.8757 -0.2265
  124OSM   H10F13227   2.398   2.781   7.807  1.2408  0.0233 -0.4123
  124OSM   C11F13228   2.227   2.811   7.664  0.3703 -0.1905 -0.8012
  124OSM   H11F13229   2.209   2.852   7.562  2.2929  2.0339 -0.3419
  124OSM   H11G13230   2.201   2.893   7.734  0.5929  0.5896 -1.5985
  124OSM   C12F13231   2.146   2.688   7.695  0.4701 -0.1176 -0.1373
  124OSM   H12F13232   2.198   2.600   7.649  1.2288 -0.1200  0.6966
  124OSM   H12G13233   2.044   2.697   7.651 -0.6313 -2.5950  1.6590
  124OSM   C13F13234   2.141   2.666   7.847  0.3573  0.7629 -1.0153
  124OSM   H13F13235   2.240   2.646   7.894 -0.7074 -0.7998  0.7477
  124OSM   H13G13236   2.103   2.563   7.865  2.3008  0.2781  0.7263
  124OSM   C14F13237   2.032   2.747   7.921 -0.7628  0.1236  0.3989
  124OSM   H14F13238   1.931   2.712   7.889 -0.2436 -1.0265 -0.0671
  124OSM   H14G13239   2.041   2.856   7.906  1.1762  0.3018  2.3604
  124OSM   C15F13240   2.051   2.720   8.069  0.2387  0.1694 -0.0167
  124OSM   H15F13241   2.157   2.729   8.102 -0.7189  0.0857  3.4922
  124OSM   H15G13242   2.015   2.615   8.075 -1.4286  0.5300 -2.4988
  124OSM   C16F13243   1.968   2.803   8.164  0.1721  0.2169 -0.6313
  124OSM   H16F13244   1.991   2.909   8.141  0.2646  0.2982 -0.1783
  124OSM   H16G13245   1.999   2.789   8.270  1.7244 -1.2330 -1.2401
  124OSM   C17F13246   1.819   2.780   8.139 -0.2129 -0.0164  0.4521
  124OSM   H17F13247   1.783   2.677   8.161 -2.0131  0.2831 -0.8734
  124OSM   H17G13248   1.795   2.790   8.031 -0.1877  1.3071  0.5523
  124OSM   C18F13249   1.728   2.876   8.221  0.6148  0.3923 -0.1060
  124OSM   H18F13250   1.732   2.830   8.323 -0.2243 -2.5030 -1.2772
  124OSM   H18G13251   1.627   2.862   8.178  1.0097 -1.6821 -0.4977
  124OSM   H18H13252   1.769   2.979   8.216  0.8716  0.2444 -4.8393
  125OSM      N13253   4.664   2.959   6.004 -0.3143 -0.9947  0.0008
  125OSM    C1513254   4.589   3.080   6.056 -0.3326 -0.4052 -0.3604
  125OSM   H15A13255   4.496   3.061   6.108  0.2648  1.5786  1.5866
  125OSM   H15B13256   4.564   3.153   5.980 -1.5500  0.8247  1.1562
  125OSM   H15C13257   4.648   3.141   6.122  0.0074  0.9698 -1.8849
  125OSM    C1413258   4.574   2.866   5.927 -0.0971 -0.1016 -0.0559
  125OSM   H14A13259   4.638   2.782   5.903  0.9971  0.8274 -0.4965
  125OSM   H14B13260   4.527   2.913   5.841 -0.4304 -0.4214 -0.0535
  125OSM   H14C13261   4.499   2.840   6.001  1.7507  0.6113  2.1760
  125OSM    C1313262   4.774   2.999   5.913  0.5218  0.1507 -0.9925
  125OSM   H13A13263   4.820   3.088   5.953 -0.3022  1.2221 -2.3216
  125OSM   H13B13264   4.735   3.033   5.818  1.1687  0.2847 -1.2148
  125OSM   H13C13265   4.845   2.920   5.899  1.7560  0.9232  0.6309
  125OSM    C1213266   4.726   2.892   6.133 -1.2450 -0.2036  0.7658
  125OSM   H12A13267   4.654   2.868   6.210 -0.9596 -0.3177  1.0004
  125OSM   H12B13268   4.791   2.966   6.178 -0.3978 -0.5026  0.0754
  125OSM    C1113269   4.808   2.766   6.121  1.0236 -0.0020 -0.5355
  125OSM   H11A13270   4.754   2.690   6.060 -1.5040  1.7627 -0.6632
  125OSM   H11B13271   4.819   2.711   6.217 -2.5786  0.9551  0.5942
  125OSM      P13272   5.056   2.841   6.138 -0.0948  0.0411  0.2420
  125OSM    O1313273   5.142   2.912   6.038 -0.2316  0.2193  0.2951
  125OSM    O1413274   5.000   2.920   6.248  0.0083 -0.3574 -0.1598
  125OSM    O1113275   5.126   2.711   6.190  0.7443 -0.2394 -0.1569
  125OSM    O1213276   4.932   2.790   6.057  0.6220 -0.0674 -0.6206
  125OSM    C1S13277   5.257   2.717   6.247  0.0550  0.6794  0.3897
  125OSM    H1S13278   5.323   2.791   6.196 -1.8046  2.0383 -0.1266
  125OSM    H1T13279   5.316   2.624   6.230  0.2185  0.3400  2.5309
  125OSM     NF13280   5.382   2.738   6.457 -0.0026  0.3462  0.6098
  125OSM    HNF13281   5.420   2.659   6.505 -1.1084  0.5489  1.8890
  125OSM    C2S13282   5.247   2.724   6.402  0.2434  0.0152  0.0623
  125OSM    H2S13283   5.200   2.823   6.421 -0.3810  0.4285 -3.0744
  125OSM    C3S13284   5.171   2.599   6.448  0.9810  0.0432  0.2982
  125OSM    H3S13285   5.219   2.512   6.399 -0.0387 -0.0156 -0.6505
  125OSM     O313286   5.036   2.587   6.406  0.0800 -0.2830 -0.3663
  125OSM    HO313287   5.043   2.621   6.317  0.7066 -0.7651 -0.5088
  125OSM    C4S13288   5.161   2.592   6.594  0.2811  0.2509  0.1664
  125OSM    H4S13289   5.137   2.692   6.634  1.0169  1.4125 -2.0874
  125OSM    C5S13290   5.196   2.487   6.669  0.4307  0.2234 -0.5822
  125OSM    H5S13291   5.228   2.396   6.615 -1.4278 -1.0124  0.2920
  125OSM    C6S13292   5.189   2.474   6.827 -0.2390  0.1964  0.0943
  125OSM    H6S13293   5.122   2.391   6.859  0.5844 -0.1633  0.9359
  125OSM    H6T13294   5.146   2.559   6.883 -2.0388 -0.2764 -0.4859
  125OSM    C7S13295   5.328   2.434   6.874 -0.5421 -0.4743  0.7026
  125OSM    H7S13296   5.402   2.508   6.835  0.2150 -1.1987  0.7394
  125OSM    H7T13297   5.355   2.331   6.844 -1.2016 -0.6592  0.7323
  125OSM    C8S13298   5.340   2.431   7.026 -0.4958  0.6129 -0.1574
  125OSM    H8S13299   5.271   2.363   7.080  2.0326 -1.4526  0.7123
  125OSM    H8T13300   5.318   2.531   7.068  0.2780  0.2513  1.1762
  125OSM    C9S13301   5.480   2.414   7.077 -1.2407 -0.2835 -0.2044
  125OSM    H9S13302   5.552   2.476   7.020 -0.6056  0.3996  1.2860
  125OSM    H9T13303   5.493   2.304   7.081 -2.3741 -0.3988  1.3833
  125OSM   C10S13304   5.492   2.459   7.227 -0.2743 -0.0287  0.0201
  125OSM   H10S13305   5.430   2.395   7.294 -1.1146 -0.5404 -1.1904
  125OSM   H10T13306   5.449   2.560   7.246 -0.4128 -0.1082  0.1380
  125OSM   C11S13307   5.633   2.443   7.288 -0.3927 -0.8991  0.0336
  125OSM   H11S13308   5.689   2.502   7.212  0.4208 -1.7945 -0.0874
  125OSM   H11T13309   5.672   2.339   7.280 -0.2071 -0.8298  0.0350
  125OSM   C12S13310   5.636   2.492   7.434  0.3915 -0.7801 -0.1404
  125OSM   H12S13311   5.576   2.585   7.439 -0.1858 -1.0928 -1.0216
  125OSM   H12T13312   5.741   2.509   7.465  0.4584 -0.8582 -0.3246
  125OSM   C13S13313   5.582   2.380   7.528 -0.8466 -0.3349 -0.4472
  125OSM   H13S13314   5.642   2.288   7.514  1.3428  1.1875 -1.6873
  125OSM   H13T13315   5.473   2.370   7.511 -1.0072 -1.1203  0.9349
  125OSM   C14S13316   5.589   2.417   7.676 -0.1607  0.0525 -1.2157
  125OSM   H14S13317   5.525   2.345   7.732  1.0617 -1.0907 -1.2436
  125OSM   H14T13318   5.539   2.515   7.694  0.8719  0.5478 -1.0119
  125OSM   C15S13319   5.738   2.412   7.733  0.2369  0.1007  0.7521
  125OSM   H15S13320   5.797   2.493   7.686 -1.9751  0.3068 -1.9769
  125OSM   H15T13321   5.780   2.309   7.723  0.1475  0.0992  0.3753
  125OSM   C16S13322   5.745   2.449   7.879 -0.0242  0.2255  0.1755
  125OSM   H16S13323   5.688   2.389   7.953  2.2468  1.6177  3.2767
  125OSM   H16T13324   5.695   2.548   7.887 -1.7842 -0.5507 -0.6388
  125OSM   C17S13325   5.882   2.462   7.946 -0.3991  0.1826 -0.8985
  125OSM   H17S13326   5.934   2.550   7.904 -0.1550  0.9999  1.0248
  125OSM   H17T13327   5.942   2.376   7.911  0.6735  0.4133  0.3204
  125OSM   C18S13328   5.892   2.456   8.100  0.2899  0.1673 -0.5391
  125OSM   H18S13329   5.792   2.495   8.129 -0.7691 -2.2657 -0.7084
  125OSM   H18T13330   5.974   2.525   8.131 -0.4251  0.9610 -0.3689
  125OSM   H18U13331   5.896   2.356   8.148 -1.0827 -0.5094 -1.7451
  125OSM    C1F13332   5.453   2.847   6.438  0.2333  1.4815 -0.2614
  125OSM     OF13333   5.398   2.941   6.386 -0.1502  0.0998 -0.4269
  125OSM    C2F13334   5.600   2.858   6.484 -0.2301  0.0829  0.5772
  125OSM    H2F13335   5.668   2.866   6.396 -1.0629  0.8828 -0.0033
  125OSM    H2G13336   5.623   2.762   6.535  0.6293 -0.5909 -0.9819
  125OSM    C3F13337   5.610   2.969   6.594  0.2704 -0.4399  0.2905
  125OSM    H3F13338   5.593   3.066   6.542  0.9784 -1.2324 -1.4947
  125OSM    H3G13339   5.719   2.965   6.613  0.6282 -2.2170 -1.7775
  125OSM    C4F13340   5.531   2.961   6.717  0.6415  1.2321 -0.1236
  125OSM    H4F13341   5.425   2.955   6.685  0.9095 -1.9098 -0.6748
  125OSM    H4G13342   5.546   3.048   6.785 -0.7990  0.7325  0.8619
  125OSM    C5F13343   5.551   2.831   6.799 -0.1591  0.2634  0.4191
  125OSM    H5F13344   5.655   2.818   6.836  0.2883  2.2078 -0.0345
  125OSM    H5G13345   5.519   2.745   6.736 -1.0938 -0.2985  1.6233
  125OSM    C6F13346   5.465   2.813   6.922  0.4076 -0.3273 -0.4384
  125OSM    H6F13347   5.511   2.736   6.988  0.9800  0.8666  0.6002
  125OSM    H6G13348   5.365   2.778   6.887  1.8006 -2.6060 -2.4431
  125OSM    C7F13349   5.436   2.936   7.006 -0.5168  0.0258 -0.2345
  125OSM    H7F13350   5.355   2.993   6.955 -2.1820 -3.4275 -1.7835
  125OSM    H7G13351   5.521   3.007   7.014 -2.8656  3.1990 -1.4820
  125OSM    C8F13352   5.377   2.901   7.146 -0.2999 -0.7479 -0.9419
  125OSM    H8F13353   5.432   2.825   7.205 -1.2531 -0.8631 -0.1643
  125OSM    H8G13354   5.281   2.849   7.125 -1.7845 -0.6624  4.3680
  125OSM    C9F13355   5.349   3.021   7.241  0.0825  0.3622 -0.3976
  125OSM    H9F13356   5.268   3.085   7.203  0.7936  0.4159 -1.8961
  125OSM   C10F13357   5.420   3.048   7.353  0.3110  0.4399  0.1389
  125OSM   H10F13358   5.405   3.136   7.417 -0.4970  0.9168 -0.6629
  125OSM   C11F13359   5.543   2.974   7.402 -0.3490  0.2828 -0.3674
  125OSM   H11F13360   5.626   3.036   7.362  2.8350 -2.8957  0.7893
  125OSM   H11G13361   5.549   2.873   7.356 -1.8068  0.0312 -0.0772
  125OSM   C12F13362   5.562   2.948   7.555 -0.0411  0.4546 -0.2180
  125OSM   H12F13363   5.479   2.884   7.592  0.7713 -0.1380  0.6283
  125OSM   H12G13364   5.553   3.047   7.604  0.9933 -0.2555  1.5051
  125OSM   C13F13365   5.692   2.871   7.592 -0.7806  1.0637 -0.1516
  125OSM   H13F13366   5.777   2.941   7.578  0.0741  0.2514  0.7783
  125OSM   H13G13367   5.701   2.785   7.522  0.1924  1.7431 -0.8785
  125OSM   C14F13368   5.688   2.823   7.741  0.2172 -1.1057  0.6702
  125OSM   H14F13369   5.774   2.760   7.773 -0.7046 -2.0389  1.3791
  125OSM   H14G13370   5.597   2.760   7.749 -0.2854 -0.6122 -0.8052
  125OSM   C15F13371   5.658   2.925   7.854 -0.4652 -0.9440 -0.3464
  125OSM   H15F13372   5.555   2.966   7.845 -0.1344  0.5168  1.9022
  125OSM   H15G13373   5.733   3.007   7.844 -0.5123 -1.0255 -1.5522
  125OSM   C16F13374   5.669   2.863   7.994  0.2844 -0.5903  0.1613
  125OSM   H16F13375   5.768   2.811   7.995  0.2583 -0.6364  0.2930
  125OSM   H16G13376   5.583   2.793   7.999  1.3882 -2.0148  0.2609
  125OSM   C17F13377   5.662   2.971   8.100 -0.4335  0.2309  0.5185
  125OSM   H17F13378   5.576   3.040   8.086  0.6513  1.3554 -0.9442
  125OSM   H17G13379   5.746   3.042   8.082 -0.8554  0.6421  0.1366
  125OSM   C18F13380   5.663   2.924   8.248  0.1559 -0.2393 -0.4593
  125OSM   H18F13381   5.632   3.009   8.312  0.7586 -0.8982  0.7375
  125OSM   H18G13382   5.767   2.893   8.270  1.3825  2.1766 -2.3733
  125OSM   H18H13383   5.611   2.829   8.271 -1.2352  0.4112 -0.8393
  126OSM      N13384   3.161   6.204   6.470 -0.3453  0.4009  0.2405
  126OSM    C1513385   3.169   6.161   6.609 -0.3229 -0.0520 -0.3099
  126OSM   H15A13386   3.187   6.056   6.627 -0.2584  0.0227  0.0794
  126OSM   H15B13387   3.080   6.180   6.668 -0.9026 -0.1709 -1.1279
  126OSM   H15C13388   3.242   6.211   6.671 -3.2875  0.7549  2.9069
  126OSM    C1413389   3.265   6.129   6.393 -0.1195  0.0375  0.4729
  126OSM   H14A13390   3.252   6.142   6.286  0.7329  0.8190  0.4600
  126OSM   H14B13391   3.253   6.023   6.411 -0.1747  0.1040  0.8251
  126OSM   H14C13392   3.366   6.157   6.418  0.2024  0.5038 -1.1819
  126OSM    C1313393   3.023   6.164   6.406 -0.1890  0.0468 -0.0783
  126OSM   H13A13394   3.016   6.057   6.404  1.4751 -0.1354  1.5255
  126OSM   H13B13395   3.014   6.198   6.303  1.0260 -0.8062 -0.4834
  126OSM   H13C13396   2.941   6.206   6.462  0.6881  2.1150 -0.2456
  126OSM    C1213397   3.164   6.361   6.465 -0.5236 -0.5290  0.5196
  126OSM   H12A13398   3.073   6.392   6.516 -1.3456 -0.7684 -0.7611
  126OSM   H12B13399   3.150   6.382   6.360  0.9696 -0.0468  0.4005
  126OSM    C1113400   3.285   6.444   6.508 -0.4033 -0.5418 -0.3964
  126OSM   H11A13401   3.299   6.421   6.615 -0.7224 -1.4469 -0.5414
  126OSM   H11B13402   3.257   6.551   6.494  2.8189  0.3263 -0.9327
  126OSM      P13403   3.524   6.513   6.419  0.4978  0.1438 -0.2018
  126OSM    O1313404   3.638   6.417   6.427 -0.0114 -0.1783  0.0746
  126OSM    O1413405   3.508   6.599   6.300 -0.2160  0.3496  0.6374
  126OSM    O1113406   3.522   6.598   6.550  0.1477 -0.3616 -0.4902
  126OSM    O1213407   3.401   6.421   6.429 -0.2415 -0.0492 -0.5188
  126OSM    C1S13408   3.465   6.732   6.548 -0.4892 -0.0098 -0.5234
  126OSM    H1S13409   3.380   6.733   6.475 -0.5218 -0.7325 -0.5052
  126OSM    H1T13410   3.539   6.806   6.512  0.6317 -0.7006  0.3026
  126OSM     NF13411   3.353   6.914   6.669 -0.0560  0.0941  0.4673
  126OSM    HNF13412   3.391   6.994   6.716 -2.3004  1.2664  0.3884
  126OSM    C2S13413   3.422   6.786   6.685 -0.1494  0.1264  0.3458
  126OSM    H2S13414   3.354   6.708   6.726 -0.5840  0.9222  1.1511
  126OSM    C3S13415   3.543   6.791   6.776  0.2786  0.1649 -0.3409
  126OSM    H3S13416   3.618   6.852   6.721  0.6001  0.6175  0.5716
  126OSM     O313417   3.621   6.673   6.800  0.3254 -0.1605  0.2426
  126OSM    HO313418   3.602   6.624   6.719 -0.0678 -0.3110  0.4235
  126OSM    C4S13419   3.507   6.856   6.904 -0.4555  0.0820  0.3383
  126OSM    H4S13420   3.511   6.965   6.891 -0.5437  0.0700  0.2179
  126OSM    C5S13421   3.484   6.811   7.033 -0.2220 -0.3635 -0.0269
  126OSM    H5S13422   3.487   6.703   7.053  0.8242 -0.5957 -1.3173
  126OSM    C6S13423   3.451   6.906   7.147 -1.0945  0.1787 -0.1355
  126OSM    H6S13424   3.343   6.929   7.166 -1.1486  0.7298 -1.0487
  126OSM    H6T13425   3.492   7.003   7.112  0.8748 -0.9082 -0.9856
  126OSM    C7S13426   3.514   6.854   7.277  0.2693  0.3577  0.5928
  126OSM    H7S13427   3.624   6.842   7.266  0.2152  0.2246  0.2111
  126OSM    H7T13428   3.479   6.750   7.295 -1.5890  0.5311 -1.6305
  126OSM    C8S13429   3.471   6.944   7.390  0.5570  0.1634  0.1210
  126OSM    H8S13430   3.363   6.969   7.390  0.2816 -0.6152  3.1457
  126OSM    H8T13431   3.511   7.047   7.388 -1.3161  1.0875  3.0157
  126OSM    C9S13432   3.502   6.881   7.529 -0.2610  0.2210  0.0348
  126OSM    H9S13433   3.612   6.876   7.544  0.0708  0.0343 -2.1662
  126OSM    H9T13434   3.471   6.775   7.537 -1.6129  0.4593 -1.4656
  126OSM   C10S13435   3.450   6.962   7.655  0.1034  0.1763  0.4679
  126OSM   H10S13436   3.340   6.968   7.662  0.2665  3.5410  1.5537
  126OSM   H10T13437   3.498   7.061   7.648  0.5980 -0.1143 -0.5358
  126OSM   C11S13438   3.507   6.902   7.788  0.4944 -0.4810  0.0131
  126OSM   H11S13439   3.615   6.881   7.770  0.5106  1.2922 -2.4241
  126OSM   H11T13440   3.455   6.804   7.796 -0.1406 -0.3426 -1.7710
  126OSM   C12S13441   3.487   6.984   7.914  0.8675 -0.8089 -0.6851
  126OSM   H12S13442   3.389   7.036   7.921 -0.1600 -2.8057  3.4142
  126OSM   H12T13443   3.560   7.068   7.919 -0.3094  0.3208 -1.7620
  126OSM   C13S13444   3.460   6.894   8.034  0.3592 -0.3613  0.0880
  126OSM   H13S13445   3.377   6.825   8.007 -0.8099  1.1196 -0.2183
  126OSM   H13T13446   3.407   6.948   8.116 -2.9136 -1.1862 -1.3281
  126OSM   C14S13447   3.572   6.819   8.088  0.0250 -0.0982 -0.3444
  126OSM   H14S13448   3.658   6.837   8.019  0.1575 -0.4655 -0.2779
  126OSM   H14T13449   3.550   6.711   8.104  0.7301 -0.1879  0.0686
  126OSM   C15S13450   3.623   6.876   8.225  0.3423  0.1210  0.1458
  126OSM   H15S13451   3.547   6.874   8.305 -0.2433 -2.6098 -0.3728
  126OSM   H15T13452   3.646   6.982   8.204  0.5171 -0.2306 -1.5850
  126OSM   C16S13453   3.749   6.792   8.277 -0.6960  0.1761  0.2349
  126OSM   H16S13454   3.713   6.688   8.289 -1.7210  0.4843  0.0075
  126OSM   H16T13455   3.776   6.838   8.374  1.6074  1.0764 -0.7531
  126OSM   C17S13456   3.866   6.810   8.178  0.6725  0.3256 -0.5791
  126OSM   H17S13457   3.866   6.912   8.135  1.5859  0.0417 -1.2761
  126OSM   H17T13458   3.853   6.738   8.095  1.7965 -0.5483 -0.0393
  126OSM   C18S13459   4.003   6.775   8.238  0.1324  0.0234 -0.2062
  126OSM   H18S13460   4.075   6.773   8.153  0.2990 -0.1865 -0.0592
  126OSM   H18T13461   4.002   6.671   8.276 -2.6717 -1.3291 -3.4697
  126OSM   H18U13462   4.042   6.845   8.315  0.7033  0.9914 -1.3262
  126OSM    C1F13463   3.234   6.927   6.610 -0.3320  0.5266  0.5817
  126OSM     OF13464   3.169   6.826   6.586  0.1617  0.3188  0.5485
  126OSM    C2F13465   3.187   7.064   6.587  0.5629 -0.5638 -0.1690
  126OSM    H2F13466   3.115   7.066   6.502 -2.2600  1.6494  2.0745
  126OSM    H2G13467   3.273   7.132   6.566  0.0593  0.5160  1.1181
  126OSM    C3F13468   3.115   7.124   6.711 -1.1620  0.5315  1.3048
  126OSM    H3F13469   3.085   7.228   6.685 -0.3517  0.4536 -0.0562
  126OSM    H3G13470   3.181   7.129   6.800  2.2136 -1.8468 -0.8430
  126OSM    C4F13471   2.980   7.057   6.742  0.1461 -0.2064  0.7286
  126OSM    H4F13472   3.003   6.965   6.800  0.6473 -1.0066 -0.7033
  126OSM    H4G13473   2.923   7.033   6.650  0.5455  1.6884 -0.0604
  126OSM    C5F13474   2.890   7.139   6.835  0.1705 -0.7591 -0.4660
  126OSM    H5F13475   2.797   7.084   6.858 -0.5580  0.4145 -0.5182
  126OSM    H5G13476   2.858   7.237   6.792 -1.3435 -0.4772  1.1663
  126OSM    C6F13477   2.945   7.169   6.976  0.3224 -0.2350 -0.0183
  126OSM    H6F13478   2.874   7.245   7.013  0.8074  2.0521 -3.3506
  126OSM    H6G13479   3.039   7.228   6.971 -1.4887  3.1406  2.0843
  126OSM    C7F13480   2.970   7.046   7.055 -0.3562  0.3520  0.5271
  126OSM    H7F13481   3.041   6.985   6.997  0.7829  2.7324 -0.7157
  126OSM    H7G13482   2.878   6.988   7.082 -0.5345  1.0052  1.3882
  126OSM    C8F13483   3.042   7.073   7.185  0.0277  0.0763  0.6894
  126OSM    H8F13484   3.121   7.147   7.159 -1.8636  2.2558  0.7341
  126OSM    H8G13485   3.089   6.978   7.215 -0.1346 -0.7327 -1.4396
  126OSM    C9F13486   2.944   7.116   7.292  0.7402  0.6365 -0.1442
  126OSM    H9F13487   2.911   7.221   7.292  0.9490  0.7065 -1.1094
  126OSM   C10F13488   2.919   7.039   7.400  0.3110  0.3184 -0.2253
  126OSM   H10F13489   2.857   7.076   7.483 -0.0430  0.1395 -0.4068
  126OSM   C11F13490   2.973   6.899   7.434 -0.6529  0.4422 -0.5363
  126OSM   H11F13491   3.037   6.862   7.351 -0.0528  0.3192 -0.0302
  126OSM   H11G13492   2.889   6.828   7.450  0.4849 -1.0488 -0.9946
  126OSM   C12F13493   3.050   6.881   7.569  0.1061  0.0950  0.2480
  126OSM   H12F13494   3.155   6.913   7.551  0.2897 -0.2426  0.6955
  126OSM   H12G13495   3.055   6.774   7.599  2.9417  0.3177  0.8309
  126OSM   C13F13496   2.984   6.952   7.690 -0.1413  0.0689  0.2431
  126OSM   H13F13497   2.882   6.913   7.707  0.1152 -1.9601 -2.2120
  126OSM   H13G13498   2.968   7.061   7.675 -3.3448 -0.3479 -0.0720
  126OSM   C14F13499   3.078   6.945   7.808 -0.3124 -0.6503 -0.2001
  126OSM   H14F13500   3.162   7.015   7.789 -0.9324  0.6510  1.5688
  126OSM   H14G13501   3.107   6.838   7.819 -4.4076 -1.9996 -0.6455
  126OSM   C15F13502   3.019   7.005   7.937 -0.2247 -0.2794 -0.3246
  126OSM   H15F13503   2.914   6.973   7.950 -1.1159  1.5826 -2.3305
  126OSM   H15G13504   3.026   7.116   7.938 -1.8186 -0.1051  2.5790
  126OSM   C16F13505   3.099   6.974   8.065 -0.0684  0.1692  0.6418
  126OSM   H16F13506   3.195   7.030   8.061  0.1400 -0.2779 -1.7655
  126OSM   H16G13507   3.125   6.867   8.082 -0.2461 -0.3099 -1.7711
  126OSM   C17F13508   3.026   7.005   8.195 -0.0413  0.6371 -0.6344
  126OSM   H17F13509   2.945   6.929   8.188  1.5686 -1.0825 -1.5042
  126OSM   H17G13510   2.993   7.111   8.190  0.6824  1.0669  2.0676
  126OSM   C18F13511   3.112   6.978   8.316 -0.7905  0.0363 -0.3205
  126OSM   H18F13512   3.053   6.999   8.408  0.0869 -0.4481  0.3734
  126OSM   H18G13513   3.201   7.045   8.324  0.6720 -1.7849 -0.7318
  126OSM   H18H13514   3.149   6.874   8.329 -2.6540 -0.5439  0.6534
  127OSM      N13515   0.748   4.816   6.059 -0.3425  0.5265 -0.0803
  127OSM    C1513516   0.878   4.768   6.012 -0.6086 -0.4149  0.2687
  127OSM   H15A13517   0.929   4.709   6.087 -2.2497 -0.4178  1.4484
  127OSM   H15B13518   0.945   4.847   5.983 -0.4784 -1.2549 -1.9156
  127OSM   H15C13519   0.858   4.704   5.927 -1.9220 -0.2714  0.4522
  127OSM    C1413520   0.685   4.905   5.957  0.2950  0.0393  0.7070
  127OSM   H14A13521   0.611   4.963   6.009 -1.6745 -2.4727  0.8991
  127OSM   H14B13522   0.641   4.847   5.877 -0.6988  2.4956 -0.6550
  127OSM   H14C13523   0.751   4.975   5.907  0.1147  0.3398  0.8867
  127OSM    C1313524   0.657   4.701   6.091  0.0705 -0.6209 -0.0498
  127OSM   H13A13525   0.570   4.748   6.133  0.8151 -0.4140  1.3286
  127OSM   H13B13526   0.687   4.653   6.183  2.1654  1.2864  0.3392
  127OSM   H13C13527   0.651   4.635   6.006 -1.5479 -0.6468  0.0679
  127OSM    C1213528   0.763   4.883   6.192 -0.0449 -0.0513  0.9746
  127OSM   H12A13529   0.821   4.974   6.181  0.4566 -0.4525  0.1591
  127OSM   H12B13530   0.822   4.812   6.249  1.2666 -0.0909 -0.3506
  127OSM    C1113531   0.645   4.930   6.272  0.5564 -0.4238 -0.0707
  127OSM   H11A13532   0.684   4.980   6.364  0.8827 -1.0505  0.1385
  127OSM   H11B13533   0.591   4.835   6.289  0.3673 -0.4676 -0.9029
  127OSM      P13534   0.572   5.160   6.206  0.4710  0.3544 -0.1692
  127OSM    O1313535   0.710   5.195   6.162 -0.5369  0.1608 -0.1525
  127OSM    O1413536   0.462   5.217   6.116  0.2839 -0.3021 -0.4866
  127OSM    O1113537   0.547   5.187   6.365 -0.5064 -0.0961  0.5371
  127OSM    O1213538   0.555   5.011   6.197 -0.2576 -0.0437 -0.0725
  127OSM    C1S13539   0.612   5.296   6.427 -0.5845  0.0749 -0.8304
  127OSM    H1S13540   0.586   5.391   6.375  1.5958  0.2847 -1.6303
  127OSM    H1T13541   0.721   5.280   6.418 -0.2672 -0.8230  2.9393
  127OSM     NF13542   0.619   5.434   6.635 -0.1246  0.7085  0.7689
  127OSM    HNF13543   0.703   5.449   6.685  1.5394  0.3701 -1.7243
  127OSM    C2S13544   0.581   5.305   6.577  0.1279  1.1689  0.0218
  127OSM    H2S13545   0.473   5.283   6.594  0.4645 -0.2890  0.4225
  127OSM    C3S13546   0.656   5.181   6.645  1.0362 -0.6781  0.2999
  127OSM    H3S13547   0.765   5.194   6.628  1.7326  0.1971  4.3930
  127OSM     O313548   0.632   5.051   6.592 -0.1149 -0.2210  0.5695
  127OSM    HO313549   0.573   5.069   6.519  0.2764 -1.2286 -0.0066
  127OSM    C4S13550   0.625   5.175   6.790 -0.3252 -0.1716  0.2338
  127OSM    H4S13551   0.520   5.156   6.815 -0.2633 -2.5923 -1.0741
  127OSM    C5S13552   0.710   5.195   6.894  0.0389  0.2569 -0.1279
  127OSM    H5S13553   0.810   5.232   6.866 -0.3692  0.9488 -0.7215
  127OSM    C6S13554   0.674   5.198   7.040  0.3262  0.7165 -0.0940
  127OSM    H6S13555   0.737   5.259   7.107 -0.2564 -1.3809  2.5287
  127OSM    H6T13556   0.687   5.092   7.073 -0.7398  0.3652 -0.7532
  127OSM    C7S13557   0.536   5.245   7.076 -0.1423  0.8417  0.0817
  127OSM    H7S13558   0.469   5.166   7.036  2.0546 -0.6794 -0.7873
  127OSM    H7T13559   0.508   5.342   7.030 -0.4900  0.4844 -0.4761
  127OSM    C8S13560   0.509   5.265   7.225  0.3502  0.3500  0.2837
  127OSM    H8S13561   0.541   5.180   7.289 -0.7902 -0.6081 -0.3726
  127OSM    H8T13562   0.399   5.250   7.235  0.3920  1.3579  2.9592
  127OSM    C9S13563   0.551   5.399   7.288 -0.4455 -0.6987  0.3179
  127OSM    H9S13564   0.510   5.487   7.234  0.9782 -1.3000 -1.8796
  127OSM    H9T13565   0.661   5.412   7.280 -0.3561 -1.9918 -0.8421
  127OSM   C10S13566   0.531   5.417   7.437 -0.4829  0.5386  0.2428
  127OSM   H10S13567   0.438   5.371   7.476  0.1967 -0.2781  0.9757
  127OSM   H10T13568   0.530   5.521   7.475 -3.2620  0.1342  1.5269
  127OSM   C11S13569   0.627   5.332   7.530 -0.0039 -0.1080  0.6246
  127OSM   H11S13570   0.622   5.230   7.486 -1.4395 -0.1855  0.9423
  127OSM   H11T13571   0.600   5.343   7.637 -0.8929 -0.2100  0.4149
  127OSM   C12S13572   0.771   5.380   7.520 -0.6515 -0.0533 -0.7995
  127OSM   H12S13573   0.777   5.490   7.535  0.0908 -0.2495  0.4369
  127OSM   H12T13574   0.812   5.371   7.417  0.5875  1.6412 -0.4984
  127OSM   C13S13575   0.875   5.309   7.605 -0.1050  0.6773 -0.4894
  127OSM   H13S13576   0.972   5.359   7.582  0.3696 -0.9120 -2.1603
  127OSM   H13T13577   0.884   5.202   7.578  2.6305  1.3254 -2.5790
  127OSM   C14S13578   0.855   5.324   7.756 -0.1685  0.6429 -1.3308
  127OSM   H14S13579   0.779   5.249   7.786 -1.9641  2.5367 -0.8743
  127OSM   H14T13580   0.839   5.431   7.781 -0.8689  0.1597  0.4276
  127OSM   C15S13581   0.983   5.281   7.833 -0.7762 -0.5499 -0.0754
  127OSM   H15S13582   1.075   5.336   7.803 -0.9156 -0.6508 -0.7088
  127OSM   H15T13583   0.995   5.172   7.811  0.7011 -0.5014  0.3477
  127OSM   C16S13584   0.966   5.292   7.989 -0.0647 -0.1240 -0.3131
  127OSM   H16S13585   1.052   5.245   8.041  3.0886  0.8225 -4.1063
  127OSM   H16T13586   0.878   5.238   8.029 -0.3006 -1.3364 -2.3213
  127OSM   C17S13587   0.964   5.435   8.038  0.0163  0.2256 -1.1647
  127OSM   H17S13588   0.873   5.492   8.009  0.7394  1.7783 -0.4910
  127OSM   H17T13589   1.048   5.495   7.997  0.8054 -1.0211 -1.4020
  127OSM   C18S13590   0.960   5.444   8.195  0.5490  0.2046  0.1568
  127OSM   H18S13591   1.060   5.471   8.237  2.1577 -0.7788 -2.6983
  127OSM   H18T13592   0.920   5.355   8.248  0.0732  1.0354  1.2253
  127OSM   H18U13593   0.888   5.525   8.216 -0.6551 -0.4521 -1.3064
  127OSM    C1F13594   0.535   5.536   6.619 -1.0785 -0.2857 -0.4311
  127OSM     OF13595   0.427   5.515   6.575  0.0590 -0.3798  0.3325
  127OSM    C2F13596   0.573   5.680   6.655 -0.2180 -0.1931 -0.2410
  127OSM    H2F13597   0.554   5.745   6.566 -2.4722  1.6199  1.4190
  127OSM    H2G13598   0.682   5.681   6.674  0.2123 -0.8467 -2.4185
  127OSM    C3F13599   0.502   5.732   6.777 -0.1225 -0.6527  0.4002
  127OSM    H3F13600   0.392   5.727   6.761  0.0327  1.4621 -1.7924
  127OSM    H3G13601   0.522   5.838   6.803  1.9327 -0.5017 -1.5021
  127OSM    C4F13602   0.544   5.648   6.901  0.1749 -0.4379 -0.0422
  127OSM    H4F13603   0.647   5.609   6.888  0.0828 -0.9530  0.6981
  127OSM    H4G13604   0.476   5.560   6.908 -0.8113  0.3168 -0.0168
  127OSM    C5F13605   0.545   5.718   7.038  0.4460  0.0067 -0.6562
  127OSM    H5F13606   0.577   5.824   7.029  0.8925 -0.1866 -1.3444
  127OSM    H5G13607   0.611   5.666   7.111 -0.0798 -0.2115 -0.3218
  127OSM    C6F13608   0.404   5.724   7.099 -0.0173 -0.3442 -0.4182
  127OSM    H6F13609   0.355   5.624   7.100 -2.2768  0.7064  0.7208
  127OSM    H6G13610   0.341   5.781   7.028  0.8636  1.9434  0.5196
  127OSM    C7F13611   0.414   5.775   7.245 -0.7244 -0.2657  0.3011
  127OSM    H7F13612   0.469   5.724   7.327 -0.6157 -1.0401 -0.2315
  127OSM    H7G13613   0.305   5.776   7.265 -1.1282 -0.1825 -1.6713
  127OSM    C8F13614   0.462   5.926   7.265 -0.3834  0.1633  0.4297
  127OSM    H8F13615   0.417   5.981   7.180  1.5515 -1.1927 -1.5810
  127OSM    H8G13616   0.573   5.929   7.255 -0.1493 -0.8822  2.2498
  127OSM    C9F13617   0.418   5.980   7.397 -0.4714 -0.2049 -0.0134
  127OSM    H9F13618   0.376   6.082   7.392  1.2985  0.5373 -1.1655
  127OSM   C10F13619   0.450   5.937   7.518 -0.1571 -0.0385 -0.4012
  127OSM   H10F13620   0.401   5.978   7.608 -0.4320 -0.9135 -0.1338
  127OSM   C11F13621   0.536   5.818   7.559 -0.3219 -0.1255 -0.1281
  127OSM   H11F13622   0.613   5.803   7.481 -1.7177 -3.2283 -1.0861
  127OSM   H11G13623   0.467   5.730   7.559 -2.4159  1.3970  1.7287
  127OSM   C12F13624   0.594   5.842   7.698  0.3826  0.1390 -0.0251
  127OSM   H12F13625   0.514   5.843   7.775  2.0018  0.6808  1.7081
  127OSM   H12G13626   0.661   5.930   7.708  1.0839 -0.1908 -1.5688
  127OSM   C13F13627   0.663   5.705   7.753  0.4107  0.1134 -1.3380
  127OSM   H13F13628   0.753   5.676   7.695 -0.4426  2.1352 -3.9180
  127OSM   H13G13629   0.587   5.625   7.750  0.2637  0.1753 -0.0019
  127OSM   C14F13630   0.706   5.722   7.903  0.1014 -0.0378 -0.3313
  127OSM   H14F13631   0.757   5.636   7.953  4.0614  1.9218 -0.6072
  127OSM   H14G13632   0.618   5.750   7.965  1.5121  1.8709  0.9384
  127OSM   C15F13633   0.812   5.834   7.919  0.7092 -0.1501 -0.0743
  127OSM   H15F13634   0.788   5.933   7.875  0.0193 -0.1102  0.3792
  127OSM   H15G13635   0.903   5.804   7.863  2.3835  2.3016  1.1595
  127OSM   C16F13636   0.858   5.863   8.059 -0.0527  0.1063 -1.2359
  127OSM   H16F13637   0.937   5.796   8.099 -0.1757 -0.0011 -1.1766
  127OSM   H16G13638   0.765   5.846   8.116  0.9645  1.1397  0.8215
  127OSM   C17F13639   0.903   6.013   8.094 -0.4769  0.1738  0.0167
  127OSM   H17F13640   0.823   6.088   8.075 -0.2433  0.2166 -0.8157
  127OSM   H17G13641   0.988   6.039   8.029  0.8135  0.6093  1.7951
  127OSM   C18F13642   0.948   6.026   8.239  0.2707  0.3919 -0.6464
  127OSM   H18F13643   0.863   5.987   8.299  0.7881  0.9149  0.4718
  127OSM   H18G13644   0.969   6.126   8.283  1.9912 -0.2127 -0.0302
  127OSM   H18H13645   1.033   5.959   8.262 -0.3192 -1.2285 -2.8694
  128OSM      N13646   0.661   3.070   6.346  0.0071  0.0052 -0.3016
  128OSM    C1513647   0.544   2.973   6.318 -0.1153 -1.0988  0.4904
  128OSM   H15A13648   0.580   2.871   6.321  1.6485 -0.4952  0.8786
  128OSM   H15B13649   0.500   2.999   6.223  2.0082  0.3254 -0.1751
  128OSM   H15C13650   0.472   2.978   6.398  1.3617  1.8496  1.7716
  128OSM    C1413651   0.714   3.053   6.479 -0.0661 -0.2336 -0.3951
  128OSM   H14A13652   0.633   3.073   6.548 -0.3305 -0.3378 -0.6762
  128OSM   H14B13653   0.802   3.111   6.505  0.8820 -2.0429  0.6324
  128OSM   H14C13654   0.744   2.951   6.498  0.1143  0.2280  2.1604
  128OSM    C1313655   0.764   3.041   6.246 -0.6027 -0.4155 -0.6414
  128OSM   H13A13656   0.834   3.122   6.258  0.7827 -1.4667 -1.3417
  128OSM   H13B13657   0.712   3.047   6.152 -1.1587  1.8492 -0.2579
  128OSM   H13C13658   0.817   2.948   6.264  0.8084  0.1575 -1.6442
  128OSM    C1213659   0.610   3.216   6.332  0.2150 -0.4316 -0.7431
  128OSM   H12A13660   0.511   3.216   6.375 -0.4619 -2.6427 -2.1945
  128OSM   H12B13661   0.579   3.230   6.230 -1.9837 -1.3955 -0.2638
  128OSM    C1113662   0.702   3.339   6.370  0.8448 -0.2810 -0.9299
  128OSM   H11A13663   0.778   3.307   6.444 -0.2108 -1.2357 -0.2431
  128OSM   H11B13664   0.640   3.414   6.423 -1.1031 -2.9518  0.8252
  128OSM      P13665   0.921   3.411   6.237  0.1448  0.0947 -0.2691
  128OSM    O1313666   0.987   3.290   6.189 -0.1005 -0.6594 -0.2840
  128OSM    O1413667   0.918   3.531   6.150  0.1951  0.1276  0.5906
  128OSM    O1113668   0.971   3.442   6.381 -0.0039  0.2001  0.0848
  128OSM    O1213669   0.772   3.383   6.254  0.2828 -0.9812  0.5149
  128OSM    C1S13670   0.983   3.575   6.433  0.0002 -0.0342  0.6760
  128OSM    H1S13671   0.886   3.625   6.456  1.3367  2.5685  1.0243
  128OSM    H1T13672   1.035   3.638   6.357 -0.1274 -2.8331 -1.9061
  128OSM     NF13673   1.083   3.714   6.618 -0.3820  0.2373  0.7723
  128OSM    HNF13674   1.175   3.753   6.611  0.8583 -2.6344 -1.2007
  128OSM    C2S13675   1.074   3.577   6.567  0.3831 -0.4218 -0.7800
  128OSM    H2S13676   1.020   3.512   6.639  1.2606 -0.3257 -0.0159
  128OSM    C3S13677   1.223   3.515   6.547  0.1481  0.3946 -0.4356
  128OSM    H3S13678   1.281   3.593   6.492 -0.2017 -1.2924 -3.4332
  128OSM     O313679   1.225   3.393   6.472  0.0663  0.0778 -0.5366
  128OSM    HO313680   1.135   3.394   6.440 -0.8257 -1.0390  1.6635
  128OSM    C4S13681   1.289   3.498   6.682  0.6044 -0.7428  0.8277
  128OSM    H4S13682   1.332   3.594   6.715 -1.0243  0.0681  0.7488
  128OSM    C5S13683   1.306   3.388   6.764  0.2579 -0.0745  0.5402
  128OSM    H5S13684   1.270   3.287   6.741  0.1519 -0.2319  1.3715
  128OSM    C6S13685   1.393   3.399   6.884 -0.4324 -0.3617 -0.4403
  128OSM    H6S13686   1.330   3.443   6.963 -0.9585 -2.1288  0.1819
  128OSM    H6T13687   1.486   3.454   6.860 -0.6322  0.0954 -0.1684
  128OSM    C7S13688   1.434   3.255   6.920  0.5292  0.6299  0.3074
  128OSM    H7S13689   1.490   3.206   6.837 -0.9321 -0.0375 -0.3117
  128OSM    H7T13690   1.343   3.195   6.943 -0.2748  2.0767  1.0367
  128OSM    C8S13691   1.527   3.242   7.048 -0.2437  0.1334 -0.0262
  128OSM    H8S13692   1.620   3.304   7.044 -1.4324  2.0616  0.5950
  128OSM    H8T13693   1.552   3.134   7.050 -0.8151 -0.0281 -0.9536
  128OSM    C9S13694   1.463   3.281   7.179 -0.8037  0.6923  0.9134
  128OSM    H9S13695   1.372   3.220   7.194 -0.1536 -0.4909  0.2668
  128OSM    H9T13696   1.434   3.387   7.169  2.3161  1.5722 -0.1409
  128OSM   C10S13697   1.569   3.269   7.295  0.1587  0.0062  1.0432
  128OSM   H10S13698   1.641   3.353   7.287  1.3162 -0.8999  1.6881
  128OSM   H10T13699   1.616   3.169   7.304 -2.9422 -1.8200 -0.9981
  128OSM   C11S13700   1.498   3.298   7.422  0.2620  0.2914  0.0358
  128OSM   H11S13701   1.412   3.228   7.429 -1.4375  2.1656 -1.0105
  128OSM   H11T13702   1.444   3.395   7.414  0.9422  0.6991  0.3043
  128OSM   C12S13703   1.589   3.282   7.544  0.4499 -0.1155 -0.1870
  128OSM   H12S13704   1.677   3.349   7.534 -1.6264  3.0745  1.2194
  128OSM   H12T13705   1.630   3.179   7.539 -2.9669 -1.6295  0.0746
  128OSM   C13S13706   1.523   3.302   7.681  0.0930 -0.0543  0.0239
  128OSM   H13S13707   1.433   3.238   7.683  0.1218 -0.1305 -0.8906
  128OSM   H13T13708   1.514   3.412   7.697 -0.4612 -0.3593  2.2009
  128OSM   C14S13709   1.610   3.252   7.798 -0.5405 -0.5898  0.1184
  128OSM   H14S13710   1.711   3.300   7.797 -1.7185  2.1480  1.9635
  128OSM   H14T13711   1.636   3.146   7.775  0.9150 -0.6620  1.8158
  128OSM   C15S13712   1.545   3.265   7.939  0.7392  0.1226  0.2813
  128OSM   H15S13713   1.447   3.216   7.922  2.2049 -2.9755 -0.0282
  128OSM   H15T13714   1.531   3.373   7.955 -0.0879 -0.2030  1.9411
  128OSM   C16S13715   1.633   3.228   8.058  0.3942  0.3826  0.1142
  128OSM   H16S13716   1.665   3.123   8.044  0.5691  0.2706  1.2606
  128OSM   H16T13717   1.577   3.248   8.152 -1.5362  2.5523 -1.3855
  128OSM   C17S13718   1.754   3.319   8.068 -0.1425  0.6844 -0.1457
  128OSM   H17S13719   1.722   3.426   8.072 -2.6284 -0.0184  0.5455
  128OSM   H17T13720   1.822   3.314   7.980  2.1291 -0.2016  1.5670
  128OSM   C18S13721   1.842   3.272   8.182  0.5014  0.2599 -0.1218
  128OSM   H18S13722   1.914   3.355   8.200 -0.6036  1.8253 -2.4142
  128OSM   H18T13723   1.900   3.181   8.156 -1.1881 -0.3844 -1.8945
  128OSM   H18U13724   1.786   3.258   8.277 -2.0331 -0.1222 -1.5666
  128OSM    C1F13725   0.982   3.763   6.678  0.1704 -0.3146  0.3241
  128OSM     OF13726   0.882   3.699   6.692  0.5817 -0.3648 -0.5411
  128OSM    C2F13727   1.005   3.903   6.734 -0.0818  0.0584  0.2506
  128OSM    H2F13728   1.036   3.968   6.650 -0.5098 -2.2133 -1.7602
  128OSM    H2G13729   1.087   3.896   6.809  0.1794  3.2106  0.3942
  128OSM    C3F13730   0.881   3.976   6.789  1.2094  0.2390 -0.9394
  128OSM    H3F13731   0.814   3.989   6.701 -1.1752  1.8449  0.9727
  128OSM    H3G13732   0.901   4.082   6.817  0.0547  0.0612  0.6536
  128OSM    C4F13733   0.799   3.916   6.905  0.0951  0.0437  0.5855
  128OSM    H4F13734   0.738   3.828   6.873  1.1613 -0.2293 -0.7769
  128OSM    H4G13735   0.731   3.998   6.936  0.5492  0.7540 -0.2706
  128OSM    C5F13736   0.879   3.859   7.029  0.1086  0.1496  0.1513
  128OSM    H5F13737   0.973   3.918   7.031  0.0962  0.4651 -3.2560
  128OSM    H5G13738   0.911   3.755   7.007 -0.5341 -0.3039  1.2965
  128OSM    C6F13739   0.794   3.865   7.159 -0.0603  0.2068 -0.1192
  128OSM    H6F13740   0.710   3.792   7.170 -0.0849  0.5145  2.4844
  128OSM    H6G13741   0.731   3.956   7.164 -0.4008 -0.0473  0.3270
  128OSM    C7F13742   0.871   3.856   7.292  0.2044 -0.0850  0.1321
  128OSM    H7F13743   0.950   3.933   7.288 -0.4110  0.5031 -1.1645
  128OSM    H7G13744   0.915   3.754   7.280 -3.7318 -1.7437 -2.0091
  128OSM    C8F13745   0.789   3.868   7.421  0.2934  0.4882 -0.2388
  128OSM    H8F13746   0.697   3.806   7.423 -0.4689  1.6118  0.7934
  128OSM    H8G13747   0.761   3.975   7.423 -1.8928 -0.0454 -0.0654
  128OSM    C9F13748   0.879   3.830   7.534 -0.2702 -0.4560  0.6023
  128OSM    H9F13749   0.978   3.795   7.504  0.8003  3.4902 -0.9899
  128OSM   C10F13750   0.843   3.846   7.660  0.5191 -0.5808 -0.1885
  128OSM   H10F13751   0.923   3.818   7.731  0.9555  0.2428 -0.3388
  128OSM   C11F13752   0.707   3.897   7.712 -0.3714  0.2077 -0.5025
  128OSM   H11F13753   0.677   3.987   7.655  0.2808  0.2432 -0.8039
  128OSM   H11G13754   0.732   3.928   7.816  0.0468 -1.3956 -0.0983
  128OSM   C12F13755   0.589   3.804   7.726  0.0052  0.1884  0.9496
  128OSM   H12F13756   0.627   3.705   7.760 -1.6857 -0.4807  1.0231
  128OSM   H12G13757   0.537   3.791   7.629  1.1226  0.7672  0.2600
  128OSM   C13F13758   0.487   3.855   7.827  0.5527  0.3722  0.9243
  128OSM   H13F13759   0.404   3.784   7.807  0.2468  0.7641  0.7842
  128OSM   H13G13760   0.464   3.956   7.786  1.0303 -0.2241 -0.9144
  128OSM   C14F13761   0.527   3.849   7.974 -0.3149 -0.1589 -0.0067
  128OSM   H14F13762   0.603   3.929   7.984 -0.8925  0.5956 -1.2801
  128OSM   H14G13763   0.563   3.748   8.001  1.4550  0.9437  2.0933
  128OSM   C15F13764   0.408   3.883   8.072 -0.0037  0.1816 -0.2983
  128OSM   H15F13765   0.318   3.835   8.028 -1.1152 -0.3704  2.3736
  128OSM   H15G13766   0.393   3.992   8.087  0.7482  0.8346 -3.5511
  128OSM   C16F13767   0.420   3.813   8.213 -0.3980  0.1884  0.2857
  128OSM   H16F13768   0.417   3.703   8.199 -0.0621  0.0461  1.2623
  128OSM   H16G13769   0.336   3.840   8.281 -0.4490  1.2440 -0.1692
  128OSM   C17F13770   0.547   3.850   8.281 -0.0316  0.1104 -0.0937
  128OSM   H17F13771   0.543   3.961   8.287  0.2690  0.2195 -1.5164
  128OSM   H17G13772   0.637   3.833   8.219  0.3400  2.1286 -0.2060
  128OSM   C18F13773   0.568   3.778   8.409 -0.2453 -0.0342 -0.1724
  128OSM   H18F13774   0.592   3.670   8.400  1.0298  0.1246  0.9163
  128OSM   H18G13775   0.477   3.771   8.473 -0.0429 -0.1111  0.1078
  128OSM   H18H13776   0.650   3.823   8.469  0.1877  0.2281 -0.9446
  129OSM      N13777   0.555   3.374   5.865 -0.1458 -0.0073 -0.0838
  129OSM    C1513778   0.581   3.459   5.981  0.4718 -0.5103  0.6058
  129OSM   H15A13779   0.657   3.534   5.966 -0.4896  0.2849 -0.4509
  129OSM   H15B13780   0.614   3.393   6.060  0.6659  0.5945  1.4568
  129OSM   H15C13781   0.488   3.500   6.015  1.5903  1.0204  1.9755
  129OSM    C1413782   0.545   3.457   5.743 -0.3873 -0.3922  0.3430
  129OSM   H14A13783   0.530   3.393   5.658 -1.9081  0.0738  0.2295
  129OSM   H14B13784   0.632   3.516   5.720  0.0182 -0.8972  0.5692
  129OSM   H14C13785   0.459   3.522   5.754  0.1418  0.1993  1.0674
  129OSM    C1313786   0.672   3.291   5.836 -0.5354  0.4708  0.2475
  129OSM   H13A13787   0.693   3.228   5.921 -1.1349  0.0708  0.1097
  129OSM   H13B13788   0.760   3.347   5.812  0.2493 -1.1080 -0.7502
  129OSM   H13C13789   0.652   3.223   5.755 -0.1962 -0.5589  1.0052
  129OSM    C1213790   0.432   3.284   5.888 -0.1093 -0.0355  0.5718
  129OSM   H12A13791   0.457   3.201   5.953  2.0711  2.0676  2.6395
  129OSM   H12B13792   0.399   3.242   5.795 -1.3004 -2.3406  1.9398
  129OSM    C1113793   0.301   3.343   5.939  0.2492  0.1012 -0.4849
  129OSM   H11A13794   0.219   3.272   5.918  1.7366 -2.3310  1.4375
  129OSM   H11B13795   0.288   3.441   5.888  1.5908  0.4759 -0.1696
  129OSM      P13796   0.284   3.239   6.169  0.1476  0.0221  0.6506
  129OSM    O1313797   0.138   3.211   6.181  0.6234 -0.5427 -0.1454
  129OSM    O1413798   0.366   3.125   6.127  0.2915 -0.1861  0.1908
  129OSM    O1113799   0.331   3.278   6.313  0.0378 -0.2235  0.8441
  129OSM    O1213800   0.319   3.365   6.080  0.4466 -0.4068 -0.2382
  129OSM    C1S13801   0.274   3.399   6.362  0.6558 -0.0743 -0.6008
  129OSM    H1S13802   0.190   3.433   6.298 -3.0516 -1.0122  3.2987
  129OSM    H1T13803   0.346   3.482   6.380 -1.7125  1.8989  0.3091
  129OSM     NF13804   0.144   3.500   6.551  0.0384  0.4964 -0.2801
  129OSM    HNF13805   0.183   3.526   6.639 -1.2107  0.0169  0.4342
  129OSM    C2S13806   0.195   3.377   6.499  0.4093  0.3444  0.1830
  129OSM    H2S13807   0.116   3.302   6.476  1.0892 -0.5441  0.6861
  129OSM    C3S13808   0.289   3.311   6.600  0.5830 -0.1017  0.4216
  129OSM    H3S13809   0.368   3.382   6.633  1.5731 -2.6565  4.2078
  129OSM     O313810   0.370   3.195   6.566 -0.0953 -0.0466  0.7168
  129OSM    HO313811   0.365   3.201   6.470 -0.7950  0.9331  0.8035
  129OSM    C4S13812   0.207   3.269   6.718 -0.4044  0.5483  0.5291
  129OSM    H4S13813   0.156   3.171   6.716  0.3168  0.1394  1.4914
  129OSM    C5S13814   0.196   3.343   6.826 -0.8965  0.0314  0.1483
  129OSM    H5S13815   0.251   3.438   6.836 -0.8789  0.3411 -2.2979
  129OSM    C6S13816   0.112   3.315   6.946  0.1596 -0.1684 -0.7446
  129OSM    H6S13817   0.031   3.239   6.935 -1.2943  0.8800  1.7104
  129OSM    H6T13818   0.065   3.412   6.973 -0.2270 -0.1690 -1.3957
  129OSM    C7S13819   0.208   3.269   7.055 -0.7961  0.1697  0.3644
  129OSM    H7S13820   0.301   3.323   7.083 -0.4715 -0.0773 -0.2124
  129OSM    H7T13821   0.250   3.168   7.035  0.1024  0.1140  2.3401
  129OSM    C8S13822   0.128   3.243   7.183  0.0245  0.4602  0.6215
  129OSM    H8S13823   0.063   3.158   7.152 -0.3908  1.0497 -0.1366
  129OSM    H8T13824   0.066   3.332   7.206 -1.1760  0.2778 -1.6389
  129OSM    C9S13825   0.217   3.211   7.309 -0.4013 -0.4492 -0.7037
  129OSM    H9S13826   0.148   3.192   7.393 -0.5913  0.0793 -0.7379
  129OSM    H9T13827   0.279   3.295   7.347  0.7644 -0.9917 -1.3319
  129OSM   C10S13828   0.314   3.094   7.288 -0.6053  0.2281 -0.2300
  129OSM   H10S13829   0.382   3.110   7.201 -0.3900  1.2698  0.1147
  129OSM   H10T13830   0.262   2.997   7.270  1.0945 -0.4294 -2.0417
  129OSM   C11S13831   0.403   3.080   7.411  0.3789 -0.2528 -0.4810
  129OSM   H11S13832   0.332   3.068   7.495 -1.1166  1.0321 -1.5137
  129OSM   H11T13833   0.453   3.179   7.420  2.1505 -1.2551  1.9069
  129OSM   C12S13834   0.498   2.957   7.402 -0.4667  0.1271 -0.5238
  129OSM   H12S13835   0.541   2.960   7.299  0.5396 -1.1418 -0.1584
  129OSM   H12T13836   0.439   2.863   7.409 -2.4367  1.3476  0.2949
  129OSM   C13S13837   0.614   2.953   7.504 -0.1841 -0.7093 -0.0304
  129OSM   H13S13838   0.662   3.052   7.515  1.0708 -1.3745  0.7938
  129OSM   H13T13839   0.689   2.882   7.465 -1.6240 -3.1551  1.3173
  129OSM   C14S13840   0.570   2.906   7.637  0.2604  0.1286 -0.8580
  129OSM   H14S13841   0.510   2.813   7.629  0.7092 -0.1863 -0.6469
  129OSM   H14T13842   0.508   2.980   7.692  1.9621 -0.1865  1.6832
  129OSM   C15S13843   0.690   2.865   7.714  0.8042  0.4897  0.4207
  129OSM   H15S13844   0.750   2.956   7.735  0.2567  0.6771  1.2437
  129OSM   H15T13845   0.742   2.793   7.647 -0.9335  0.1656 -0.6698
  129OSM   C16S13846   0.661   2.785   7.844 -0.6906  0.2900 -0.3368
  129OSM   H16S13847   0.757   2.731   7.857 -0.3075  1.3948  1.7595
  129OSM   H16T13848   0.578   2.711   7.848 -1.0783  0.5250 -2.6575
  129OSM   C17S13849   0.645   2.877   7.968 -0.3548  0.3286 -0.4007
  129OSM   H17S13850   0.570   2.950   7.931  1.3587  0.8586 -3.1462
  129OSM   H17T13851   0.736   2.932   7.999  0.0061 -0.0950 -0.6809
  129OSM   C18S13852   0.601   2.806   8.094  0.4446 -0.2210 -0.2295
  129OSM   H18S13853   0.505   2.751   8.080  1.2099 -1.9791  1.1313
  129OSM   H18T13854   0.595   2.886   8.171 -0.1513 -0.6582  0.1880
  129OSM   H18U13855   0.687   2.741   8.120  0.4240 -1.5725 -3.1560
  129OSM    C1F13856   0.032   3.555   6.508  0.5811 -0.8311  0.5791
  129OSM     OF13857  -0.007   3.524   6.399 -0.3826  0.1753 -0.0990
  129OSM    C2F13858  -0.035   3.657   6.595 -0.1624  0.2902  0.0010
  129OSM    H2F13859  -0.037   3.754   6.541  0.9826  0.3550  0.0337
  129OSM    H2G13860   0.016   3.676   6.693  1.4152 -2.8906 -0.0611
  129OSM    C3F13861  -0.185   3.620   6.628  0.0441  0.2066 -0.7441
  129OSM    H3F13862  -0.226   3.567   6.540  1.4919 -1.0422 -0.6974
  129OSM    H3G13863  -0.245   3.712   6.646  1.5591  0.8825  1.3691
  129OSM    C4F13864  -0.202   3.533   6.748 -0.0555 -0.2619  0.2315
  129OSM    H4F13865  -0.160   3.431   6.741 -1.3191 -0.7270 -1.1425
  129OSM    H4G13866  -0.312   3.523   6.759 -0.8377  2.8423 -2.8098
  129OSM    C5F13867  -0.139   3.590   6.878 -0.0228  0.0131  1.1055
  129OSM    H5F13868  -0.154   3.700   6.879 -1.6444 -0.1672  0.2744
  129OSM    H5G13869  -0.030   3.570   6.871 -0.3714 -1.4538 -1.3664
  129OSM    C6F13870  -0.211   3.522   6.992 -1.0912 -0.5188 -0.1898
  129OSM    H6F13871  -0.186   3.414   6.984  2.0989 -0.1850  3.0072
  129OSM    H6G13872  -0.320   3.535   6.973 -1.3297  0.4519  1.6665
  129OSM    C7F13873  -0.172   3.571   7.135  0.6692  0.4717 -0.0045
  129OSM    H7F13874  -0.161   3.682   7.133  0.6005  0.4927  0.6149
  129OSM    H7G13875  -0.069   3.532   7.147 -0.1818 -1.6016  1.0217
  129OSM    C8F13876  -0.264   3.516   7.250  0.2533  0.3042  0.4748
  129OSM    H8F13877  -0.249   3.406   7.242 -1.0164  0.1087  0.6521
  129OSM    H8G13878  -0.368   3.551   7.235  0.0818  0.2061  1.4199
  129OSM    C9F13879  -0.217   3.567   7.384  0.5071 -0.2688 -0.0826
  129OSM    H9F13880  -0.199   3.676   7.386 -0.4852 -0.0897 -0.2361
  129OSM   C10F13881  -0.172   3.487   7.487 -0.3119  0.3364 -0.1808
  129OSM   H10F13882  -0.138   3.531   7.582 -3.1112  0.4226  0.8981
  129OSM   C11F13883  -0.185   3.342   7.507  1.4031  0.0142 -0.8932
  129OSM   H11F13884  -0.174   3.280   7.415  2.8034  1.4165 -1.7240
  129OSM   H11G13885  -0.285   3.317   7.547  1.7713 -1.0149 -0.5960
  129OSM   C12F13886  -0.072   3.300   7.611 -0.1605 -0.0162  0.6300
  129OSM   H12F13887  -0.106   3.355   7.702 -1.2710 -0.3232  0.4149
  129OSM   H12G13888   0.023   3.349   7.580 -0.2865 -0.2559 -0.1528
  129OSM   C13F13889  -0.053   3.150   7.635 -0.3076  0.1948  0.1235
  129OSM   H13F13890  -0.044   3.099   7.537  0.2632  0.1698  0.1853
  129OSM   H13G13891  -0.148   3.100   7.664  1.2474 -3.2741 -0.3511
  129OSM   C14F13892   0.060   3.104   7.729  0.4298 -0.1253 -0.0990
  129OSM   H14F13893   0.040   3.141   7.832 -2.1911 -1.2227 -0.1203
  129OSM   H14G13894   0.157   3.144   7.693  0.2238  0.1825 -0.3153
  129OSM   C15F13895   0.062   2.952   7.731 -1.0345  0.6806  0.5459
  129OSM   H15F13896   0.086   2.924   7.627  0.4876  3.6300 -0.0028
  129OSM   H15G13897  -0.041   2.919   7.753 -0.7090  0.0105  1.0974
  129OSM   C16F13898   0.156   2.896   7.839  0.9302  0.8043 -0.8873
  129OSM   H16F13899   0.150   2.966   7.925 -0.9287  1.0657 -1.1774
  129OSM   H16G13900   0.259   2.894   7.797  0.7205 -2.4062 -1.5054
  129OSM   C17F13901   0.137   2.747   7.878  0.7972  0.5401 -0.4911
  129OSM   H17F13902   0.138   2.690   7.782 -0.4864 -1.7332  0.7668
  129OSM   H17G13903   0.039   2.717   7.920  0.5046 -2.6729 -3.0123
  129OSM   C18F13904   0.232   2.694   7.984 -0.9476  0.4099 -0.5242
  129OSM   H18F13905   0.339   2.718   7.966 -0.3424 -2.2391 -0.7762
  129OSM   H18G13906   0.215   2.585   7.986  0.5320  0.1569  0.8838
  129OSM   H18H13907   0.207   2.738   8.083  1.9103 -0.2006  0.5776
  130OSM      N13908   3.112   2.081   6.251  0.3508 -0.1720  0.4815
  130OSM    C1513909   3.214   1.984   6.295  0.0335  0.3532 -0.1100
  130OSM   H15A13910   3.258   1.921   6.219 -0.7470 -0.4690  0.1033
  130OSM   H15B13911   3.173   1.914   6.366  1.9139 -1.9881 -1.1992
  130OSM   H15C13912   3.305   2.023   6.339 -0.5513  2.8806 -0.9211
  130OSM    C1413913   3.179   2.177   6.155 -1.0991 -0.0531 -0.0278
  130OSM   H14A13914   3.265   2.216   6.207  0.0048  0.1930 -1.9577
  130OSM   H14B13915   3.120   2.255   6.108  2.4694  1.7675 -1.8272
  130OSM   H14C13916   3.224   2.122   6.074  0.9671  0.7625  0.5164
  130OSM    C1313917   3.015   2.009   6.162  0.1041 -0.2646  0.2546
  130OSM   H13A13918   2.953   2.070   6.098  0.3447  0.0070  0.2830
  130OSM   H13B13919   2.951   1.948   6.224 -2.0235 -0.3345 -1.8535
  130OSM   H13C13920   3.072   1.945   6.096 -0.5923 -0.5697 -0.0609
  130OSM    C1213921   3.045   2.149   6.370  0.0949  0.4915  0.7392
  130OSM   H12A13922   2.967   2.215   6.336 -0.6316 -0.4047  0.6249
  130OSM   H12B13923   3.119   2.211   6.420  0.8344 -1.6545  2.5114
  130OSM    C1113924   2.972   2.052   6.466  0.6788  0.0532 -0.2428
  130OSM   H11A13925   2.969   2.095   6.569 -2.2206 -0.3427 -0.0762
  130OSM   H11B13926   3.035   1.961   6.474 -1.1317 -1.5365 -2.8530
  130OSM      P13927   2.722   2.088   6.402  0.1142 -0.1946  0.3376
  130OSM    O1313928   2.693   2.112   6.256 -0.7907 -0.1151 -0.1507
  130OSM    O1413929   2.610   2.034   6.485 -0.3385 -0.2303 -0.0986
  130OSM    O1113930   2.771   2.230   6.460  0.1617  0.7973  0.3026
  130OSM    O1213931   2.853   1.999   6.419  0.3276  0.0973 -0.4051
  130OSM    C1S13932   2.680   2.337   6.465  0.1884 -0.1683  0.0148
  130OSM    H1S13933   2.577   2.321   6.428  0.1207  1.0353 -0.3721
  130OSM    H1T13934   2.727   2.428   6.422 -0.3133  0.3754  0.5874
  130OSM     NF13935   2.537   2.454   6.630 -0.5877 -0.1518  0.0577
  130OSM    HNF13936   2.561   2.551   6.637  1.2970 -0.4987 -0.9183
  130OSM    C2S13937   2.650   2.361   6.617  0.9237 -0.4029 -0.2811
  130OSM    H2S13938   2.607   2.269   6.663  0.0408  0.8103  1.4287
  130OSM    C3S13939   2.774   2.410   6.697 -0.4479  0.3996 -0.7960
  130OSM    H3S13940   2.808   2.509   6.661 -0.6183  0.8023  0.1279
  130OSM     O313941   2.889   2.324   6.687  0.0252 -0.1313 -0.2572
  130OSM    HO313942   2.858   2.258   6.625 -0.9929  0.5176 -0.4679
  130OSM    C4S13943   2.744   2.428   6.840 -0.2861  0.0414  0.4909
  130OSM    H4S13944   2.672   2.356   6.883 -2.2226  1.8064  0.4024
  130OSM    C5S13945   2.798   2.525   6.906 -0.4325 -0.7088  0.0246
  130OSM    H5S13946   2.866   2.598   6.859 -0.1428  0.2264  1.7806
  130OSM    C6S13947   2.761   2.568   7.042  0.3113  0.0415 -0.5880
  130OSM    H6S13948   2.667   2.519   7.074  0.1608  1.6986  1.7117
  130OSM    H6T13949   2.750   2.678   7.046  2.2987  0.2749  0.0240
  130OSM    C7S13950   2.858   2.535   7.158 -0.8488  0.0578 -0.1155
  130OSM    H7S13951   2.957   2.571   7.122 -1.1651 -0.0671 -1.1437
  130OSM    H7T13952   2.872   2.425   7.161 -0.8548  0.0750  0.5970
  130OSM    C8S13953   2.821   2.596   7.297  0.1852 -0.1390 -0.1689
  130OSM    H8S13954   2.714   2.583   7.322  0.3049  0.8295  0.9354
  130OSM    H8T13955   2.841   2.705   7.297  0.2995 -0.1600 -0.1900
  130OSM    C9S13956   2.901   2.539   7.413 -0.4901 -0.5383  0.0751
  130OSM    H9S13957   3.010   2.552   7.401 -0.3034  1.6038  3.1790
  130OSM    H9T13958   2.880   2.430   7.402 -2.8584 -0.1238 -0.0402
  130OSM   C10S13959   2.854   2.584   7.549 -0.0863  0.1255  0.1365
  130OSM   H10S13960   2.743   2.596   7.554 -0.2415 -1.5008  1.6123
  130OSM   H10T13961   2.889   2.687   7.569 -1.7631  0.5511  1.0801
  130OSM   C11S13962   2.889   2.482   7.651 -0.1245  0.6648  0.1246
  130OSM   H11S13963   2.997   2.458   7.657 -0.0675  0.3033 -1.7870
  130OSM   H11T13964   2.832   2.390   7.624 -0.3999  0.0885  2.4031
  130OSM   C12S13965   2.823   2.522   7.784 -0.2353 -0.0431 -0.1978
  130OSM   H12S13966   2.724   2.479   7.808 -1.8687  3.4622 -0.0584
  130OSM   H12T13967   2.790   2.627   7.768  1.4400  0.5307 -0.1125
  130OSM   C13S13968   2.926   2.512   7.890 -0.5819 -0.1358 -0.0852
  130OSM   H13S13969   3.015   2.577   7.884 -2.3184  2.3167 -1.0460
  130OSM   H13T13970   2.977   2.414   7.876  0.4910 -0.0171  2.4259
  130OSM   C14S13971   2.860   2.483   8.026  0.3111  0.1149  0.3079
  130OSM   H14S13972   2.798   2.391   8.030  0.6530 -0.0668  1.5008
  130OSM   H14T13973   2.788   2.566   8.043  0.4448  0.1985  0.4712
  130OSM   C15S13974   2.956   2.470   8.146  0.3084 -0.0726 -0.1445
  130OSM   H15S13975   3.037   2.396   8.128  0.1461 -0.4326  0.5818
  130OSM   H15T13976   2.900   2.420   8.228  0.2603  0.4727  0.1549
  130OSM   C16S13977   3.019   2.600   8.190  0.0793 -0.0732 -0.0443
  130OSM   H16S13978   2.942   2.668   8.233  1.6493  0.8119  1.4652
  130OSM   H16T13979   3.066   2.641   8.099  0.2455  0.0209  0.0834
  130OSM   C17S13980   3.137   2.595   8.292  0.0035 -0.3525 -0.4275
  130OSM   H17S13981   3.221   2.659   8.259 -0.3623 -0.8859 -2.5315
  130OSM   H17T13982   3.180   2.493   8.295  2.2546  0.4695 -2.0118
  130OSM   C18S13983   3.083   2.643   8.433  0.2131  0.7782 -0.1456
  130OSM   H18S13984   2.986   2.592   8.456  0.1418  1.9377  2.4632
  130OSM   H18T13985   3.057   2.751   8.429 -0.5215  0.7114  1.7238
  130OSM   H18U13986   3.155   2.620   8.514  0.9739  0.5158 -0.8854
  130OSM    C1F13987   2.411   2.423   6.627  0.4790 -0.6212  0.5920
  130OSM     OF13988   2.373   2.309   6.640 -0.5127  0.4984  0.1520
  130OSM    C2F13989   2.307   2.526   6.615  1.1352  0.7318  0.7861
  130OSM    H2F13990   2.244   2.512   6.525  0.6639 -1.4071  1.3894
  130OSM    H2G13991   2.348   2.629   6.606 -3.2160  2.5738 -0.2320
  130OSM    C3F13992   2.211   2.521   6.730 -0.0905  0.0363  0.5903
  130OSM    H3F13993   2.144   2.433   6.717  1.3283 -0.7183 -3.0730
  130OSM    H3G13994   2.146   2.609   6.715  1.1311  0.8291 -0.2340
  130OSM    C4F13995   2.275   2.544   6.870  0.1573 -0.2027  0.4853
  130OSM    H4F13996   2.340   2.634   6.875  0.4021 -0.2780 -0.8064
  130OSM    H4G13997   2.348   2.462   6.889 -0.9945 -1.8175 -1.5982
  130OSM    C5F13998   2.166   2.541   6.984 -1.0066 -0.0458  0.2278
  130OSM    H5F13999   2.127   2.437   6.983 -0.2108 -0.3663  0.8397
  130OSM    H5G14000   2.082   2.608   6.956 -1.2469  0.1550  1.3680
  130OSM    C6F14001   2.216   2.589   7.118  0.6641 -0.0408  0.0899
  130OSM    H6F14002   2.269   2.685   7.102  1.1009 -0.5893 -2.0665
  130OSM    H6G14003   2.286   2.513   7.160  0.6028  0.3662  0.9498
  130OSM    C7F14004   2.107   2.621   7.219 -0.1185 -0.4415  0.3101
  130OSM    H7F14005   2.050   2.700   7.165  0.5135 -0.3936 -0.2981
  130OSM    H7G14006   2.152   2.671   7.307 -1.0258 -0.0942  0.5953
  130OSM    C8F14007   2.014   2.501   7.250  0.1183 -0.2862 -0.4052
  130OSM    H8F14008   2.073   2.410   7.271  0.5284  0.7292  3.9603
  130OSM    H8G14009   1.946   2.488   7.163 -0.1141 -1.7690 -0.0270
  130OSM    C9F14010   1.920   2.530   7.368  0.3451  0.0347  0.9771
  130OSM    H9F14011   1.865   2.625   7.363 -1.4236 -0.9485  0.9108
  130OSM   C10F14012   1.892   2.449   7.471 -0.1989 -0.2178 -0.3955
  130OSM   H10F14013   1.813   2.478   7.542 -0.0359 -0.3622 -0.1547
  130OSM   C11F14014   1.937   2.308   7.496  0.0459 -0.2078 -0.2963
  130OSM   H11F14015   1.998   2.262   7.415 -2.7784  0.5475 -3.0523
  130OSM   H11G14016   1.841   2.253   7.482  0.6000 -1.7653  1.6089
  130OSM   C12F14017   2.007   2.294   7.632  0.5651  0.2284  0.0150
  130OSM   H12F14018   2.079   2.377   7.650  0.0642  0.3584  1.5229
  130OSM   H12G14019   2.063   2.198   7.632 -0.8402 -0.6641  1.9149
  130OSM   C13F14020   1.908   2.297   7.757  0.3710 -0.7592  0.6030
  130OSM   H13F14021   1.837   2.211   7.750 -1.4267  0.7849 -2.5618
  130OSM   H13G14022   1.855   2.394   7.761  0.0845 -0.9328  1.0570
  130OSM   C14F14023   1.996   2.291   7.889  0.3259  0.1077 -0.2294
  130OSM   H14F14024   2.046   2.388   7.910 -1.4426  0.9029  0.4850
  130OSM   H14G14025   2.071   2.209   7.894 -0.7238 -0.7872  2.2683
  130OSM   C15F14026   1.893   2.270   8.007  0.6743 -0.1679  0.9103
  130OSM   H15F14027   1.814   2.199   7.977  0.6187  0.3603 -0.2283
  130OSM   H15G14028   1.844   2.368   8.024  0.2499 -0.4037  1.0507
  130OSM   C16F14029   1.950   2.222   8.144  0.5677  0.7988  0.0080
  130OSM   H16F14030   2.003   2.303   8.199  2.3419 -1.2306  1.4919
  130OSM   H16G14031   2.017   2.134   8.154 -1.0129 -0.4005  0.4055
  130OSM   C17F14032   1.829   2.170   8.234  0.3270 -0.3245 -0.3357
  130OSM   H17F14033   1.880   2.118   8.318 -0.4654  1.7790  1.5599
  130OSM   H17G14034   1.764   2.088   8.196  0.4671 -0.7848  0.3827
  130OSM   C18F14035   1.742   2.282   8.298  0.3995  0.1415  0.2544
  130OSM   H18F14036   1.807   2.339   8.368  1.1610  0.9834 -1.0891
  130OSM   H18G14037   1.657   2.265   8.367  1.7455 -0.9817  1.7153
  130OSM   H18H14038   1.711   2.341   8.209  1.2992  0.2110 -0.0246
  131OSM      N14039   0.974   6.391   6.100 -0.4976  0.2901  0.6613
  131OSM    C1514040   1.099   6.420   6.018 -0.6819  0.1622 -0.0638
  131OSM   H15A14041   1.083   6.440   5.913  1.9084  1.3772 -0.3089
  131OSM   H15B14042   1.158   6.331   6.031 -2.6664 -1.2438 -0.2973
  131OSM   H15C14043   1.158   6.506   6.047 -0.5734  0.3041 -0.6877
  131OSM    C1414044   0.910   6.273   6.033  0.1752 -0.5805  0.0852
  131OSM   H14A14045   0.907   6.296   5.927 -3.6987 -1.0465 -0.0726
  131OSM   H14B14046   0.810   6.246   6.066  0.8806 -3.0300  0.4032
  131OSM   H14C14047   0.971   6.184   6.034 -1.9392 -2.1399 -1.0956
  131OSM    C1314048   1.018   6.353   6.240 -0.3224  0.1041  0.5524
  131OSM   H13A14049   1.064   6.255   6.239 -1.2075 -0.3549  2.0002
  131OSM   H13B14050   0.932   6.355   6.305 -1.3794  0.1264 -0.8004
  131OSM   H13C14051   1.101   6.409   6.280  1.7988 -1.5554 -1.2459
  131OSM    C1214052   0.887   6.509   6.116  0.7012 -0.0748  0.2034
  131OSM   H12A14053   0.937   6.590   6.168 -0.2090 -0.0683  1.0983
  131OSM   H12B14054   0.810   6.476   6.184  0.7189  0.3338  0.4288
  131OSM    C1114055   0.824   6.567   5.985 -0.1002  0.7059  0.0193
  131OSM   H11A14056   0.797   6.489   5.910  1.4188 -0.8897  1.0429
  131OSM   H11B14057   0.909   6.603   5.924 -1.1369 -0.2467 -2.0940
  131OSM      P14058   0.574   6.608   6.043  0.7911  0.1966 -0.1459
  131OSM    O1314059   0.468   6.712   6.024  0.0693 -0.2319  0.0789
  131OSM    O1414060   0.545   6.482   5.970  0.2470  0.4481 -0.1745
  131OSM    O1114061   0.589   6.577   6.198  0.4190 -0.0314  0.1363
  131OSM    O1214062   0.714   6.656   6.003  0.2537  0.2068 -0.2020
  131OSM    C1S14063   0.601   6.672   6.307 -0.4851  0.3382  0.0432
  131OSM    H1S14064   0.514   6.740   6.300 -1.3037 -0.5181  1.4479
  131OSM    H1T14065   0.697   6.729   6.297 -1.8034  2.4784 -1.2138
  131OSM     NF14066   0.628   6.721   6.544  0.2250 -0.3406 -0.3931
  131OSM    HNF14067   0.716   6.765   6.562  0.5438 -1.8489  2.3022
  131OSM    C2S14068   0.610   6.612   6.449  0.4197  0.3020 -0.3311
  131OSM    H2S14069   0.519   6.554   6.473  1.3733 -1.4255 -0.6733
  131OSM    C3S14070   0.729   6.503   6.448  0.4179  0.3198 -0.0771
  131OSM    H3S14071   0.824   6.538   6.404  0.9514 -2.4628 -1.3842
  131OSM     O314072   0.704   6.390   6.360 -0.4877 -0.3245 -0.1023
  131OSM    HO314073   0.627   6.420   6.311 -0.2915  0.0705 -0.1715
  131OSM    C4S14074   0.747   6.449   6.586  0.0921 -0.2878 -0.7527
  131OSM    H4S14075   0.678   6.371   6.622  1.0718 -1.2422 -0.8876
  131OSM    C5S14076   0.853   6.469   6.673 -0.0265 -0.6266  0.1298
  131OSM    H5S14077   0.938   6.535   6.649  0.0748 -0.7789  0.0666
  131OSM    C6S14078   0.872   6.410   6.809  0.3288  0.2929  0.1025
  131OSM    H6S14079   0.962   6.348   6.832 -0.4333 -0.1966  2.0029
  131OSM    H6T14080   0.795   6.329   6.815 -0.2493  0.8746  0.6698
  131OSM    C7S14081   0.877   6.522   6.918  0.0430 -0.3049 -0.4805
  131OSM    H7S14082   0.788   6.589   6.916  0.4558  0.3768  1.4749
  131OSM    H7T14083   0.963   6.588   6.893  0.1720 -0.8011 -1.3440
  131OSM    C8S14084   0.889   6.470   7.066  0.1485 -0.4551  0.1446
  131OSM    H8S14085   0.994   6.445   7.090 -0.2662 -1.0469  1.4358
  131OSM    H8T14086   0.830   6.375   7.070 -1.2848  0.2943 -1.7912
  131OSM    C9S14087   0.848   6.584   7.164 -0.0950  0.7351 -0.5913
  131OSM    H9S14088   0.856   6.534   7.263  0.6600 -1.5789 -1.7616
  131OSM    H9T14089   0.743   6.616   7.150 -0.6331  0.1867  1.7065
  131OSM   C10S14090   0.946   6.698   7.179  1.2404 -0.5256 -0.1792
  131OSM   H10S14091   0.970   6.745   7.081  0.6445 -0.0677 -0.1112
  131OSM   H10T14092   1.039   6.659   7.226  0.4923 -0.3712  1.5143
  131OSM   C11S14093   0.897   6.805   7.284 -0.0334 -0.2772 -0.0785
  131OSM   H11S14094   0.804   6.842   7.235 -0.3468 -0.0956  0.6404
  131OSM   H11T14095   0.966   6.892   7.288 -0.7804  0.5742 -3.2784
  131OSM   C12S14096   0.880   6.756   7.426  0.4968 -0.3774  0.2820
  131OSM   H12S14097   0.805   6.674   7.429 -1.5769  1.4406  2.8789
  131OSM   H12T14098   0.842   6.837   7.492  1.1029 -1.7902  2.4808
  131OSM   C13S14099   1.015   6.707   7.488  0.1351 -0.9732 -0.1672
  131OSM   H13S14100   1.067   6.635   7.421 -0.8399 -0.9447 -0.9815
  131OSM   H13T14101   0.986   6.650   7.579 -3.1966 -0.9908 -1.1053
  131OSM   C14S14102   1.113   6.821   7.535 -0.3420  0.3396 -0.4308
  131OSM   H14S14103   1.046   6.893   7.586  0.5249  0.6868  0.2432
  131OSM   H14T14104   1.163   6.880   7.455  3.0801  0.5689  1.6822
  131OSM   C15S14105   1.238   6.767   7.620  0.2092  0.5113 -0.2376
  131OSM   H15S14106   1.310   6.851   7.635  1.5252 -0.1897 -2.2620
  131OSM   H15T14107   1.286   6.689   7.558  0.8063  0.1344  0.6753
  131OSM   C16S14108   1.193   6.702   7.761 -0.3485 -0.1666  0.5072
  131OSM   H16S14109   1.137   6.612   7.728 -1.0012  0.6286 -0.6468
  131OSM   H16T14110   1.125   6.769   7.819  0.0036 -0.2320  1.0022
  131OSM   C17S14111   1.314   6.655   7.838 -0.6609  0.0740 -0.4696
  131OSM   H17S14112   1.390   6.611   7.770  1.4941  0.6430  1.4316
  131OSM   H17T14113   1.267   6.580   7.904 -2.2058  0.7998 -0.6984
  131OSM   C18S14114   1.352   6.772   7.930 -0.2285  0.1214  0.2474
  131OSM   H18S14115   1.257   6.787   7.986  0.2659 -2.3513  1.8605
  131OSM   H18T14116   1.357   6.863   7.866 -3.0618 -0.0934 -0.4236
  131OSM   H18U14117   1.441   6.747   7.991  1.0074 -1.7776 -2.1816
  131OSM    C1F14118   0.524   6.777   6.609 -0.7157  0.5115 -0.9065
  131OSM     OF14119   0.404   6.768   6.579  0.5198 -0.2522 -0.0869
  131OSM    C2F14120   0.570   6.869   6.717 -0.6944 -0.0564  0.1459
  131OSM    H2F14121   0.584   6.975   6.689  0.5908 -0.1114  0.5462
  131OSM    H2G14122   0.674   6.842   6.743 -1.5177 -1.3769  2.3681
  131OSM    C3F14123   0.482   6.862   6.850  0.6647 -0.0982  0.5791
  131OSM    H3F14124   0.374   6.878   6.827  1.1279  1.5599 -0.6712
  131OSM    H3G14125   0.499   6.947   6.920  0.1605 -0.3260  0.9862
  131OSM    C4F14126   0.503   6.724   6.917 -0.1081  0.0251 -0.0492
  131OSM    H4F14127   0.611   6.712   6.938 -0.1668 -0.4392  0.0047
  131OSM    H4G14128   0.464   6.642   6.853  0.8902  0.1906 -0.8951
  131OSM    C5F14129   0.429   6.726   7.058 -0.2133 -0.0879 -0.0840
  131OSM    H5F14130   0.461   6.634   7.110  1.9420  0.9763  0.6017
  131OSM    H5G14131   0.318   6.724   7.045  0.0177 -0.5981 -2.4114
  131OSM    C6F14132   0.466   6.846   7.148  0.4107 -0.1483  0.4903
  131OSM    H6F14133   0.425   6.942   7.109  1.0222  0.2504  0.8133
  131OSM    H6G14134   0.575   6.854   7.130  0.3706 -1.3592 -0.4169
  131OSM    C7F14135   0.435   6.811   7.294  0.1291 -0.3549 -0.6223
  131OSM    H7F14136   0.506   6.738   7.340  0.1126  0.5521  0.9054
  131OSM    H7G14137   0.334   6.764   7.300 -0.3294  0.6921  5.0616
  131OSM    C8F14138   0.431   6.934   7.379 -0.7990  0.6801 -0.6772
  131OSM    H8F14139   0.366   6.998   7.317 -0.1064  0.3615 -1.7496
  131OSM    H8G14140   0.528   6.986   7.391  0.1608 -1.1574  0.0465
  131OSM    C9F14141   0.366   6.920   7.511  0.1544 -0.2991 -0.5760
  131OSM    H9F14142   0.256   6.915   7.503  0.1856  0.4044 -1.5980
  131OSM   C10F14143   0.418   6.920   7.632 -0.0581  0.2903 -0.1390
  131OSM   H10F14144   0.353   6.892   7.716  0.2192 -0.3073 -0.1208
  131OSM   C11F14145   0.564   6.935   7.672  0.2654 -0.3600 -0.3328
  131OSM   H11F14146   0.562   7.002   7.760 -3.3674 -2.4727  1.4566
  131OSM   H11G14147   0.630   6.973   7.591 -0.5613  0.8646 -0.4633
  131OSM   C12F14148   0.615   6.793   7.720 -0.3441 -0.3961  0.9037
  131OSM   H12F14149   0.624   6.723   7.634  1.8432 -0.5180  1.1992
  131OSM   H12G14150   0.547   6.741   7.792 -1.7400 -0.6207 -0.5159
  131OSM   C13F14151   0.750   6.804   7.799  0.2062  0.2732  0.8870
  131OSM   H13F14152   0.748   6.881   7.880 -0.4086  1.2786 -0.0481
  131OSM   H13G14153   0.829   6.839   7.728  0.1313  2.3410  1.7341
  131OSM   C14F14154   0.796   6.670   7.865  0.2322 -0.2468  0.2018
  131OSM   H14F14155   0.904   6.681   7.887  0.6493 -0.6550 -1.4968
  131OSM   H14G14156   0.789   6.581   7.798 -0.5831 -0.5975  0.7326
  131OSM   C15F14157   0.716   6.644   7.992  0.4168 -0.8244 -0.5143
  131OSM   H15F14158   0.613   6.606   7.981  0.3634 -0.4546 -1.3969
  131OSM   H15G14159   0.703   6.739   8.047  1.5845 -1.1800  0.4077
  131OSM   C16F14160   0.784   6.534   8.073  0.6080  0.0048 -0.0804
  131OSM   H16F14161   0.883   6.576   8.101  0.1908  1.5265 -0.8098
  131OSM   H16G14162   0.791   6.441   8.013 -2.5828  0.5469 -1.5058
  131OSM   C17F14163   0.713   6.497   8.202 -1.1809 -0.3266 -0.0323
  131OSM   H17F14164   0.613   6.467   8.164 -1.2818  0.9856 -0.8719
  131OSM   H17G14165   0.702   6.579   8.276 -1.2026  2.4232 -2.8659
  131OSM   C18F14166   0.768   6.375   8.270  0.4864 -0.2766 -0.3819
  131OSM   H18F14167   0.686   6.327   8.329  1.4122 -1.8550 -0.3030
  131OSM   H18G14168   0.845   6.397   8.347  0.6709 -1.3305 -0.2436
  131OSM   H18H14169   0.802   6.294   8.202  0.8479 -1.2344  0.8912
  132OSM      N14170   2.179   5.864   6.076 -0.2265 -0.7069 -0.2138
  132OSM    C1514171   2.249   5.840   5.945 -0.8290 -0.4178  0.0895
  132OSM   H15A14172   2.210   5.905   5.868  1.8090  0.4953 -0.5599
  132OSM   H15B14173   2.238   5.739   5.909 -1.7411  0.0468 -0.9977
  132OSM   H15C14174   2.355   5.857   5.956 -0.8826 -0.4424  0.7327
  132OSM    C1414175   2.236   5.759   6.169 -0.7164  0.0895 -0.4475
  132OSM   H14A14176   2.340   5.777   6.190 -0.7277  0.5970 -0.8028
  132OSM   H14B14177   2.228   5.666   6.115 -1.9645 -0.1865  0.1715
  132OSM   H14C14178   2.189   5.753   6.266  0.3946 -0.0225  0.0949
  132OSM    C1314179   2.208   6.005   6.116  0.2536 -0.5749 -0.3539
  132OSM   H13A14180   2.174   6.078   6.044  1.6334  0.5271  0.0483
  132OSM   H13B14181   2.314   6.019   6.135  0.1429 -1.1226  0.7258
  132OSM   H13C14182   2.143   6.029   6.199  1.2980  3.0349 -0.3885
  132OSM    C1214183   2.031   5.846   6.068  0.3700  0.0390  0.7927
  132OSM   H12A14184   2.005   5.750   6.028 -2.1214  0.8154  0.3889
  132OSM   H12B14185   1.996   5.922   5.999  1.2735 -0.6040 -0.4080
  132OSM    C1114186   1.943   5.866   6.197 -0.3237  0.2527 -0.0766
  132OSM   H11A14187   1.964   5.792   6.278  0.5315  0.9695  0.3820
  132OSM   H11B14188   1.837   5.847   6.172 -0.3189 -0.3758  0.3606
  132OSM      P14189   1.860   6.107   6.212 -0.4670  0.1304  0.0438
  132OSM    O1314190   1.910   6.236   6.257  0.3158 -0.9583  0.1721
  132OSM    O1414191   1.837   6.088   6.064  0.4381 -0.1290 -0.0724
  132OSM    O1114192   1.725   6.072   6.297  0.2112  0.0046  0.4100
  132OSM    O1214193   1.956   5.993   6.270 -0.4668  0.4100  0.3065
  132OSM    C1S14194   1.735   6.091   6.438 -0.1895 -0.4758 -0.3611
  132OSM    H1S14195   1.699   6.193   6.463 -1.9432 -1.1131 -0.1341
  132OSM    H1T14196   1.833   6.065   6.482 -0.3835 -0.1985  0.2466
  132OSM     NF14197   1.687   5.992   6.664  0.1149  1.3053  0.1151
  132OSM    HNF14198   1.743   5.913   6.690 -0.8307  0.3017 -0.7867
  132OSM    C2S14199   1.647   5.990   6.524  0.7841  0.5250  0.0844
  132OSM    H2S14200   1.542   6.024   6.513  0.8212  0.2711 -1.2324
  132OSM    C3S14201   1.635   5.854   6.444  0.6392  0.3390 -0.0513
  132OSM    H3S14202   1.739   5.827   6.418  0.6734 -0.6656  1.0379
  132OSM     O314203   1.562   5.864   6.316 -0.3998  0.0837  0.1558
  132OSM    HO314204   1.587   5.951   6.283 -1.4056 -0.0722 -1.0633
  132OSM    C4S14205   1.569   5.741   6.529 -0.4914 -0.1376  0.2292
  132OSM    H4S14206   1.459   5.747   6.530 -0.4411  1.1947  2.2935
  132OSM    C5S14207   1.634   5.650   6.607  0.6072  0.4860  0.1443
  132OSM    H5S14208   1.742   5.643   6.584  0.4891  3.6873 -1.9212
  132OSM    C6S14209   1.584   5.537   6.696  0.6332  0.4564  0.1292
  132OSM    H6S14210   1.607   5.568   6.801  1.1255  2.6380 -0.5665
  132OSM    H6T14211   1.646   5.447   6.676 -0.8507 -1.0335  1.8191
  132OSM    C7S14212   1.448   5.470   6.700  0.3147 -0.2066  0.8376
  132OSM    H7S14213   1.437   5.414   6.605 -0.3748  1.7849 -0.3219
  132OSM    H7T14214   1.369   5.548   6.695  0.2685 -0.3346 -1.1656
  132OSM    C8S14215   1.421   5.393   6.831 -0.2166 -0.5650  0.6485
  132OSM    H8S14216   1.313   5.365   6.838  0.3059 -2.9445 -0.0076
  132OSM    H8T14217   1.436   5.463   6.916  1.2834 -0.2320  0.1293
  132OSM    C9S14218   1.499   5.264   6.854 -0.0261 -0.6347  0.2196
  132OSM    H9S14219   1.605   5.289   6.833 -0.1925  1.5712  1.6538
  132OSM    H9T14220   1.466   5.202   6.768  0.3246  0.0376 -0.4016
  132OSM   C10S14221   1.477   5.192   6.980 -0.2906 -0.4244  0.0123
  132OSM   H10S14222   1.371   5.196   7.015 -0.4470  1.7057 -0.5535
  132OSM   H10T14223   1.541   5.228   7.063  0.8581  0.2292 -1.1103
  132OSM   C11S14224   1.492   5.043   6.965 -0.1097  0.5537  0.2840
  132OSM   H11S14225   1.593   5.008   6.934  1.1334  1.5167  2.9709
  132OSM   H11T14226   1.417   5.003   6.893  0.8454 -3.1311  1.1375
  132OSM   C12S14227   1.460   4.970   7.101 -0.4537  0.0732 -0.0084
  132OSM   H12S14228   1.455   4.862   7.077  1.0482 -0.3532  1.4204
  132OSM   H12T14229   1.362   4.992   7.148  0.0186  1.4401  0.4030
  132OSM   C13S14230   1.571   4.984   7.207  0.0065 -0.0936 -0.7062
  132OSM   H13S14231   1.601   5.090   7.215 -0.2501  0.0170 -1.1903
  132OSM   H13T14232   1.666   4.933   7.180  0.1171  0.9026 -2.3430
  132OSM   C14S14233   1.512   4.932   7.339  0.1477 -0.1599 -0.5506
  132OSM   H14S14234   1.472   4.828   7.334 -1.2517  0.1444  2.3966
  132OSM   H14T14235   1.425   4.998   7.353 -1.2324 -1.8107 -0.9744
  132OSM   C15S14236   1.595   4.960   7.462  0.1288 -0.3296  1.0231
  132OSM   H15S14237   1.615   5.068   7.482 -0.8268 -0.2498  1.6094
  132OSM   H15T14238   1.696   4.917   7.451  1.3990  2.3780  1.1522
  132OSM   C16S14239   1.520   4.890   7.574 -0.1477 -0.1018  0.0213
  132OSM   H16S14240   1.548   4.783   7.582  0.4173  0.0710  0.4389
  132OSM   H16T14241   1.409   4.891   7.564 -0.2717  1.6674  1.1136
  132OSM   C17S14242   1.552   4.936   7.714  1.0018 -0.5292 -0.2037
  132OSM   H17S14243   1.482   4.882   7.782 -1.3343  1.9989 -0.4347
  132OSM   H17T14244   1.540   5.045   7.726 -0.0031 -0.7129  0.5110
  132OSM   C18S14245   1.683   4.886   7.766 -0.2839 -0.0004  0.5407
  132OSM   H18S14246   1.717   4.793   7.715 -1.9273  0.0671 -0.7791
  132OSM   H18T14247   1.684   4.870   7.876 -0.7458 -1.0533  0.4029
  132OSM   H18U14248   1.770   4.950   7.741 -1.0109  0.8423  0.1265
  132OSM    C1F14249   1.696   6.099   6.747  0.1410  0.2145 -0.3699
  132OSM     OF14250   1.627   6.196   6.727 -0.5032  0.3152 -0.3335
  132OSM    C2F14251   1.791   6.082   6.859 -0.4374 -0.6200 -0.3681
  132OSM    H2F14252   1.892   6.123   6.836  0.6451 -1.4272  2.4536
  132OSM    H2G14253   1.819   5.976   6.876  0.6796 -0.3228 -0.2723
  132OSM    C3F14254   1.749   6.139   7.000  0.0157  0.3892  0.5465
  132OSM    H3F14255   1.646   6.104   7.021 -0.3303  0.2493 -1.2239
  132OSM    H3G14256   1.747   6.250   6.991  0.6105  0.4520  1.0912
  132OSM    C4F14257   1.854   6.096   7.109 -0.3644  0.2758 -0.0374
  132OSM    H4F14258   1.919   6.185   7.112 -0.4058  0.2908  2.9029
  132OSM    H4G14259   1.911   6.004   7.082  1.3032  1.6085 -1.2314
  132OSM    C5F14260   1.780   6.072   7.244  0.4219 -0.3941  0.3130
  132OSM    H5F14261   1.714   5.983   7.238  0.8163 -0.8672  2.1773
  132OSM    H5G14262   1.713   6.156   7.275 -0.5182 -1.4918  1.3836
  132OSM    C6F14263   1.878   6.050   7.354  0.3842  0.4776 -0.5641
  132OSM    H6F14264   1.927   6.146   7.382 -0.6957  0.8274  0.1704
  132OSM    H6G14265   1.967   5.988   7.327 -0.2712 -1.2444  0.9893
  132OSM    C7F14266   1.800   5.998   7.478 -0.3816  0.3638  0.4445
  132OSM    H7F14267   1.745   5.908   7.444 -0.5691  0.8477 -0.5915
  132OSM    H7G14268   1.714   6.064   7.503  0.2473  1.2294  0.3718
  132OSM    C8F14269   1.884   5.972   7.595  0.0009 -0.0493 -0.0661
  132OSM    H8F14270   1.942   6.060   7.631  1.0493 -0.3001 -1.0935
  132OSM    H8G14271   1.964   5.901   7.567  0.1721 -0.6957  1.9066
  132OSM    C9F14272   1.796   5.899   7.694 -0.7171  0.0093  1.0464
  132OSM    H9F14273   1.718   5.833   7.652  0.1010 -0.3570  0.0629
  132OSM   C10F14274   1.806   5.913   7.828  0.3989 -0.2274 -0.3265
  132OSM   H10F14275   1.733   5.862   7.892  1.2258  0.4680  1.2384
  132OSM   C11F14276   1.904   6.003   7.898 -0.5487  0.1373 -0.2722
  132OSM   H11F14277   1.909   6.109   7.866  0.3052  0.2171  0.0838
  132OSM   H11G14278   2.008   5.968   7.879  0.5934  1.5782  2.6029
  132OSM   C12F14279   1.879   6.014   8.054 -0.6024  0.4687 -0.4305
  132OSM   H12F14280   1.884   5.926   8.122 -1.2279  1.8582  1.4837
  132OSM   H12G14281   1.770   6.034   8.065 -0.5960  0.3236 -0.1014
  132OSM   C13F14282   1.955   6.132   8.113  0.6366  0.0659  0.3505
  132OSM   H13F14283   1.919   6.222   8.060 -1.0855 -1.3138 -0.9499
  132OSM   H13G14284   2.062   6.125   8.083  0.7337  0.7681  0.5225
  132OSM   C14F14285   1.946   6.137   8.266  0.8013  0.1690  0.1195
  132OSM   H14F14286   1.978   6.038   8.306  0.0212 -0.1571 -0.0377
  132OSM   H14G14287   1.837   6.135   8.284  0.2181  0.6307 -2.8094
  132OSM   C15F14288   2.020   6.254   8.328 -0.1517  0.0708  0.2370
  132OSM   H15F14289   1.975   6.349   8.291 -1.1894 -0.6933 -0.4869
  132OSM   H15G14290   2.129   6.251   8.305  0.5973  1.2097  3.2090
  132OSM   C16F14291   1.996   6.255   8.474  0.5913  0.8304 -0.6021
  132OSM   H16F14292   2.033   6.159   8.516  0.9019  0.6255 -1.3080
  132OSM   H16G14293   1.887   6.269   8.485  0.7453  0.6773  1.3214
  132OSM   C17F14294   2.058   6.371   8.552  0.0791 -0.3949  0.0306
  132OSM   H17F14295   2.030   6.469   8.508 -0.8122 -0.4780  0.3968
  132OSM   H17G14296   2.168   6.359   8.541 -0.0471 -0.3707 -1.3845
  132OSM   C18F14297   2.014   6.379   8.700  0.0667  0.3651 -0.6296
  132OSM   H18F14298   2.044   6.458   8.772  0.0453 -2.2148  2.4319
  132OSM   H18G14299   2.044   6.283   8.748  0.1473  0.0802 -1.2412
  132OSM   H18H14300   1.904   6.396   8.700  0.2232  1.4833  0.1839
  133SAPE     N14301   5.537   3.704  10.795 -0.1955 -0.1576  0.5274
  133SAPE   HN114302   5.480   3.776  10.843  1.6490  0.6938  1.5209
  133SAPE   HN214303   5.566   3.727  10.698 -1.2229  0.0530  0.2518
  133SAPE   HN314304   5.498   3.607  10.798  0.6992 -0.6610  6.2856
  133SAPE   C1214305   5.668   3.702  10.869 -0.1826  0.1563 -0.3239
  133SAPE  H12A14306   5.645   3.702  10.978 -0.2666 -3.4160 -0.2345
  133SAPE  H12B14307   5.715   3.800  10.846 -1.8225  0.9403 -0.5119
  133SAPE   C1114308   5.765   3.594  10.822 -0.1747 -0.2872 -0.1413
  133SAPE  H11A14309   5.854   3.594  10.890 -0.6453 -0.7398  0.4872
  133SAPE  H11B14310   5.806   3.622  10.723 -0.6133 -3.0375 -1.1752
  133SAPE     P14311   5.746   3.365  10.707  0.3458 -0.1131 -0.0189
  133SAPE   O1314312   5.892   3.331  10.702  0.1141 -0.0423  0.0310
  133SAPE   O1414313   5.656   3.246  10.717 -0.6225 -0.1467 -0.2198
  133SAPE   O1214314   5.705   3.462  10.826  1.0095 -0.7287 -0.0338
  133SAPE   O1114315   5.698   3.445  10.583 -0.1524 -0.4856 -0.4682
  133SAPE    C114316   5.784   3.476  10.471 -0.0453  0.2491 -1.3550
  133SAPE    HA14317   5.742   3.567  10.423 -1.1613  0.8338  0.5980
  133SAPE    HB14318   5.883   3.512  10.506  0.1671 -0.5555 -1.1024
  133SAPE    C214319   5.783   3.364  10.362  0.4976  1.1267  0.0177
  133SAPE    HS14320   5.825   3.272  10.408 -1.1163 -0.7864 -2.0710
  133SAPE   O2114321   5.855   3.408  10.243  0.3947  0.0150 -0.0506
  133SAPE   C2114322   5.990   3.403  10.260  0.6872  0.1598  0.7477
  133SAPE   O2214323   6.038   3.341  10.354 -0.3301 -0.0066  0.3924
  133SAPE   C2214324   6.061   3.450  10.130 -0.0578 -0.5524  0.0959
  133SAPE   H2R14325   6.004   3.413  10.042 -0.7647  0.5934  0.0532
  133SAPE   H2S14326   6.062   3.561  10.139 -1.2497 -0.5412  0.2924
  133SAPE    C314327   5.642   3.318  10.324 -0.0878  0.8536 -0.1407
  133SAPE    HX14328   5.564   3.394  10.300  0.9182  1.4519 -1.6640
  133SAPE    HY14329   5.606   3.279  10.422  3.7387  0.0035  1.1115
  133SAPE   O3114330   5.644   3.227  10.211  0.1957  0.1229  0.0372
  133SAPE   C3114331   5.671   3.097  10.242  0.1832  0.5813  0.1641
  133SAPE   O3214332   5.688   3.051  10.356 -0.2722  0.1038  0.6646
  133SAPE   C3214333   5.696   3.018  10.116  0.4202  0.1616 -0.0997
  133SAPE   H2X14334   5.625   3.053  10.037 -1.6132  1.0989  2.0052
  133SAPE   H2Y14335   5.662   2.917  10.147 -0.9932  1.1081  1.6761
  133SAPE   C2314336   6.205   3.389  10.127  0.1958 -0.3053  0.0731
  133SAPE   H3R14337   6.191   3.279  10.128 -0.2328 -0.2531  1.1656
  133SAPE   H3S14338   6.263   3.416  10.217 -1.0723  1.2469  0.4606
  133SAPE   C2414339   6.281   3.435  10.006 -1.0936 -0.4615 -0.0157
  133SAPE   H4R14340   6.227   3.412   9.911 -0.1232  0.7638 -0.8933
  133SAPE   H4S14341   6.380   3.387  10.015 -0.1305  1.3841 -0.3009
  133SAPE   C2514342   6.306   3.586  10.013  0.0947  0.3011  0.1350
  133SAPE   H5R14343   6.305   3.638  10.110  0.5122 -2.2509  1.5914
  133SAPE   C2614344   6.322   3.666   9.909 -0.5103 -0.0670  0.4549
  133SAPE   H6R14345   6.318   3.771   9.942 -0.6345 -0.9328  3.4669
  133SAPE   C2714346   6.333   3.630   9.760  0.3664  0.4646  0.2854
  133SAPE   H7R14347   6.373   3.527   9.751 -2.6565 -1.0186  2.2040
  133SAPE   H7S14348   6.403   3.694   9.702 -1.3685  0.4180 -1.9915
  133SAPE   C2814349   6.196   3.631   9.681 -0.1824  0.1709 -0.8073
  133SAPE   H8R14350   6.111   3.652   9.746 -0.9626 -0.8496 -1.4697
  133SAPE   C2914351   6.177   3.621   9.547  0.1820  0.0625  0.1520
  133SAPE   H9R14352   6.075   3.633   9.508  0.4314 -1.0593 -0.9282
  133SAPE  C21014353   6.283   3.586   9.454  1.0868 -0.5342  0.9286
  133SAPE  H10R14354   6.273   3.479   9.424  1.2162 -0.5260  0.8508
  133SAPE  H10S14355   6.387   3.593   9.494  1.5192  2.9152 -0.4846
  133SAPE  C21114356   6.271   3.681   9.342 -0.3531 -0.3910 -0.1594
  133SAPE  H11R14357   6.338   3.767   9.355  0.5494 -1.0782 -0.1144
  133SAPE  C21214358   6.185   3.675   9.244  0.2410 -0.1948 -0.4618
  133SAPE  H12R14359   6.182   3.752   9.165  1.0714 -0.3826 -0.6900
  133SAPE  C21314360   6.084   3.570   9.214  0.4049 -0.0943  0.1325
  133SAPE  H13R14361   5.978   3.604   9.213 -0.0198 -1.3729 -0.6812
  133SAPE  H13S14362   6.080   3.492   9.293 -1.5012 -0.6362 -0.4419
  133SAPE  C21414363   6.120   3.483   9.101 -0.0474 -0.0405 -0.1403
  133SAPE  H14R14364   6.223   3.450   9.083 -0.0400  0.3906 -0.9396
  133SAPE  C21514365   6.030   3.448   9.005  0.5081 -0.0493 -0.5170
  133SAPE  H15R14366   6.064   3.370   8.936 -0.2431 -1.8367  1.0477
  133SAPE  C21614367   5.888   3.491   8.989 -0.5667 -0.2754 -0.5592
  133SAPE  H16R14368   5.854   3.570   9.059 -0.3605 -1.5475  1.0113
  133SAPE  H16S14369   5.832   3.402   9.027 -0.1412 -1.0996 -1.7957
  133SAPE  C21714370   5.858   3.532   8.849  0.1342 -0.0344 -0.2505
  133SAPE  H17R14371   5.876   3.452   8.775 -1.2930  1.7856 -2.7312
  133SAPE  H17S14372   5.927   3.617   8.828  0.2139  0.3495  1.4203
  133SAPE  C21814373   5.712   3.579   8.847  0.0849 -0.9713 -0.5509
  133SAPE  H18R14374   5.704   3.670   8.911  0.6597  0.5694 -2.5570
  133SAPE  H18S14375   5.639   3.513   8.900 -0.7635  0.1605 -0.2617
  133SAPE  C21914376   5.667   3.616   8.703  0.3552 -0.2441  0.4096
  133SAPE  H19R14377   5.671   3.524   8.641  0.9139  2.2254 -3.5871
  133SAPE  H19S14378   5.733   3.689   8.651 -2.2350  0.1864 -2.5908
  133SAPE  C22014379   5.526   3.674   8.691 -0.1794 -0.0864 -0.4344
  133SAPE  H20R14380   5.512   3.684   8.581  2.4101 -3.0664 -1.1618
  133SAPE  H20S14381   5.507   3.767   8.748 -0.5041  0.3884 -1.2885
  133SAPE  H20T14382   5.452   3.598   8.724 -1.1239  0.6357 -0.8174
  133SAPE   C3314383   5.844   3.011  10.062  0.0500  0.1863 -0.7048
  133SAPE   H3X14384   5.857   2.919  10.002 -2.3616 -1.2306  0.8036
  133SAPE   H3Y14385   5.905   2.997  10.154 -0.6121 -2.9140 -0.6279
  133SAPE   C3414386   5.876   3.138   9.980 -0.1883  1.0832 -0.3895
  133SAPE   H4X14387   5.986   3.151   9.972 -0.2753  2.5713  0.4761
  133SAPE   H4Y14388   5.832   3.221  10.039 -2.2341  0.1794 -0.5799
  133SAPE   C3514389   5.814   3.129   9.839 -0.6839 -0.0934  0.5117
  133SAPE   H5X14390   5.706   3.128   9.863 -0.0958  0.6186  3.5877
  133SAPE   H5Y14391   5.844   3.034   9.790 -1.4783 -0.3365  0.4880
  133SAPE   C3614392   5.855   3.254   9.758 -0.6184  0.5786 -0.8281
  133SAPE   H6X14393   5.964   3.265   9.776 -0.3665 -0.7034 -1.4720
  133SAPE   H6Y14394   5.814   3.343   9.810  1.1917  0.3919  1.0595
  133SAPE   C3714395   5.835   3.254   9.604  0.4930 -0.3289 -0.2741
  133SAPE   H7X14396   5.870   3.348   9.556  0.4990 -0.6189 -0.8433
  133SAPE   H7Y14397   5.725   3.242   9.596  0.3014 -1.3007  2.5518
  133SAPE   C3814398   5.908   3.141   9.532 -0.3650 -0.5778  0.0268
  133SAPE   H8X14399   5.913   3.034   9.560  0.9047 -1.1433 -2.1277
  133SAPE   H8Y14400   6.015   3.171   9.535  0.3122 -2.5615 -1.7778
  133SAPE   C3914401   5.865   3.138   9.381 -0.1884  0.3286 -0.2406
  133SAPE   H9X14402   5.828   3.236   9.345  0.3434  1.3406  1.7739
  133SAPE   H9Y14403   5.775   3.075   9.367  0.0351 -0.0636  0.0553
  133SAPE  C31014404   5.977   3.083   9.289 -0.0038 -0.0872 -0.0975
  133SAPE  H10X14405   6.009   2.982   9.323 -2.5626 -1.4017 -1.2750
  133SAPE  H10Y14406   6.064   3.151   9.288 -1.0023  1.2394  0.0664
  133SAPE  C31114407   5.925   3.069   9.144  0.0174 -0.3507 -0.4676
  133SAPE  H11X14408   5.899   3.166   9.097 -1.3639 -0.8400 -0.7612
  133SAPE  H11Y14409   5.831   3.009   9.143  0.9919 -2.2012  2.9187
  133SAPE  C31214410   6.036   3.025   9.048 -0.2984 -0.2640  0.7853
  133SAPE  H12X14411   6.071   2.923   9.076  1.2652  0.5179  1.8103
  133SAPE  H12Y14412   6.123   3.091   9.069 -1.2743  1.9147 -1.4533
  133SAPE  C31314413   6.011   3.025   8.896 -0.1878 -0.2590 -0.3823
  133SAPE  H13X14414   6.001   3.128   8.856  0.7220  0.3189  0.7939
  133SAPE  H13Y14415   5.913   2.977   8.878  0.6955 -1.1367 -3.3696
  133SAPE  C31414416   6.113   2.950   8.807 -0.1457  0.4385 -0.0308
  133SAPE  H14X14417   6.144   2.851   8.849 -0.1396  0.0758 -0.8665
  133SAPE  H14Y14418   6.207   3.009   8.808 -0.3603  0.7729  1.2760
  133SAPE  C31514419   6.050   2.928   8.672  0.4306 -1.1645 -0.4522
  133SAPE  H15X14420   6.015   3.024   8.629  0.4206 -1.0369 -0.1657
  133SAPE  H15Y14421   5.948   2.886   8.685 -1.5187  3.4595  1.0433
  133SAPE  C31614422   6.137   2.853   8.579  0.0820  0.4202 -0.3190
  133SAPE  H16X14423   6.182   2.769   8.636  0.2644  0.3551 -0.5567
  133SAPE  H16Y14424   6.220   2.914   8.537 -0.5839  0.6826 -1.2756
  133SAPE  C31714425   6.052   2.798   8.455  1.1296  0.0463  1.1013
  133SAPE  H17X14426   6.130   2.781   8.378 -0.3706 -0.3451 -0.3830
  133SAPE  H17Y14427   5.979   2.871   8.416  0.9486  0.3013  1.9103
  133SAPE  C31814428   5.982   2.660   8.494  0.1043 -0.3539  0.4200
  133SAPE  H18X14429   5.950   2.600   8.407 -0.9517  1.8240 -0.7977
  133SAPE  H18Y14430   5.897   2.687   8.561 -0.4185  1.3659 -0.8274
  133SAPE  H18Z14431   6.056   2.600   8.549  1.2856  0.4949 -0.1834
  134SAPE     N14432   0.856   2.276  10.487 -0.7246 -0.6843  0.2183
  134SAPE   HN114433   0.755   2.251  10.480 -0.4937 -1.1747 -1.8962
  134SAPE   HN214434   0.893   2.241  10.578 -0.7522 -1.3938 -0.0433
  134SAPE   HN314435   0.872   2.379  10.494  0.4504 -0.8443  0.0787
  134SAPE   C1214436   0.940   2.223  10.370  0.3694  0.2544  0.0865
  134SAPE  H12A14437   0.882   2.234  10.276 -1.6914  0.8735  1.3437
  134SAPE  H12B14438   0.934   2.114  10.387 -2.1944  0.3171 -0.0174
  134SAPE   C1114439   1.080   2.290  10.361  0.7524  0.5901 -0.0938
  134SAPE  H11A14440   1.063   2.393  10.324 -0.6381  0.5964  0.4992
  134SAPE  H11B14441   1.127   2.233  10.278 -0.2193 -1.5727  0.7564
  134SAPE     P14442   1.208   2.154  10.546 -0.1542 -0.1837  0.2309
  134SAPE   O1314443   1.320   2.184  10.630  0.0748  0.0998  0.0680
  134SAPE   O1414444   1.095   2.080  10.609 -0.4311  0.2636 -0.3293
  134SAPE   O1214445   1.156   2.286  10.488 -0.3042 -0.1478  0.0693
  134SAPE   O1114446   1.265   2.081  10.420 -0.4521 -0.0087 -0.1027
  134SAPE    C114447   1.410   2.067  10.392 -0.1250 -0.0979 -0.1936
  134SAPE    HA14448   1.470   2.053  10.485 -1.5045 -0.2703  0.7010
  134SAPE    HB14449   1.426   1.981  10.324  2.6044  0.6649 -0.6502
  134SAPE    C214450   1.461   2.201  10.328  0.3746  0.6137  0.1577
  134SAPE    HS14451   1.410   2.281  10.386 -1.7597 -1.1709  0.8478
  134SAPE   O2114452   1.407   2.200  10.189  0.4311 -0.0817  0.3868
  134SAPE   C2114453   1.388   2.316  10.144  0.5189 -0.5751  0.4658
  134SAPE   O2214454   1.385   2.423  10.205 -0.0540 -0.1891  0.3289
  134SAPE   C2214455   1.372   2.312   9.990  0.0520  0.0879 -0.2117
  134SAPE   H2R14456   1.275   2.269   9.958  1.3913 -3.2023 -0.2437
  134SAPE   H2S14457   1.379   2.418   9.960 -4.5871  0.5668 -0.3472
  134SAPE    C314458   1.609   2.215  10.340 -0.0179  0.3142  0.3841
  134SAPE    HX14459   1.657   2.124  10.298 -1.5721 -0.8235  1.0083
  134SAPE    HY14460   1.640   2.227  10.446  0.4954  0.7940  0.1837
  134SAPE   O3114461   1.671   2.315  10.258  0.1157  0.7795  0.5281
  134SAPE   C3114462   1.657   2.439  10.313  0.0475  0.3982 -0.5298
  134SAPE   O3214463   1.591   2.457  10.419  0.0293  0.4233 -0.0914
  134SAPE   C3214464   1.721   2.545  10.221 -0.4193 -0.1569 -0.1548
  134SAPE   H2X14465   1.820   2.561  10.270 -1.4614 -0.6475  2.2984
  134SAPE   H2Y14466   1.657   2.635  10.228 -0.0712  0.3477 -2.6507
  134SAPE   C2314467   1.488   2.227   9.934 -0.1858 -0.4303  0.4732
  134SAPE   H3R14468   1.490   2.120   9.964  1.1612 -0.6643 -0.3415
  134SAPE   H3S14469   1.586   2.261   9.976  0.5276 -1.2795 -0.4574
  134SAPE   C2414470   1.490   2.234   9.775  0.2710  0.3400  0.1591
  134SAPE   H4R14471   1.394   2.202   9.731  0.3986  1.1983 -0.7773
  134SAPE   H4S14472   1.556   2.151   9.742  0.7352  0.2735  1.2210
  134SAPE   C2514473   1.542   2.357   9.705 -0.5109 -0.1425 -0.8123
  134SAPE   H5R14474   1.605   2.417   9.771 -2.1332  0.2386  0.4459
  134SAPE   C2614475   1.522   2.383   9.579 -0.8111  0.9112  0.7547
  134SAPE   H6R14476   1.569   2.473   9.538  5.2895 -3.4413 -3.4765
  134SAPE   C2714477   1.438   2.307   9.475 -0.3052 -0.4538 -0.0683
  134SAPE   H7R14478   1.418   2.203   9.508  1.0139 -0.9554 -0.7755
  134SAPE   H7S14479   1.497   2.284   9.384 -0.0097 -0.6717  0.1749
  134SAPE   C2814480   1.313   2.385   9.456  0.2641  0.4099  1.0817
  134SAPE   H8R14481   1.264   2.406   9.553  0.5893  1.5352  1.0206
  134SAPE   C2914482   1.267   2.444   9.346  0.5097 -0.1615  0.0555
  134SAPE   H9R14483   1.174   2.502   9.353  0.3041 -0.5326  0.4432
  134SAPE  C21014484   1.337   2.445   9.207  0.1106  0.1978 -0.6645
  134SAPE  H10R14485   1.446   2.457   9.218  0.2283 -0.6824 -0.8281
  134SAPE  H10S14486   1.285   2.529   9.155 -0.2813 -0.6628 -1.7223
  134SAPE  C21114487   1.320   2.320   9.124  0.1154 -0.3651  0.1443
  134SAPE  H11R14488   1.242   2.250   9.160 -2.4732  1.6899 -1.0819
  134SAPE  C21214489   1.380   2.287   9.010 -0.2027 -0.5482  0.1695
  134SAPE  H12R14490   1.355   2.192   8.962  0.8388 -1.2966  1.0541
  134SAPE  C21314491   1.495   2.369   8.943  1.2293  0.0953 -0.3923
  134SAPE  H13R14492   1.575   2.390   9.017 -1.6476  0.8648  2.7089
  134SAPE  H13S14493   1.455   2.469   8.914 -3.5194 -1.6217 -0.6012
  134SAPE  C21414494   1.561   2.306   8.821  0.5687  0.1048  0.1256
  134SAPE  H14R14495   1.595   2.203   8.842  1.8024  0.4685  0.0223
  134SAPE  C21514496   1.598   2.358   8.706  0.9679 -0.7586  0.3041
  134SAPE  H15R14497   1.636   2.291   8.627 -1.5987  0.3990 -2.0966
  134SAPE  C21614498   1.573   2.502   8.667 -0.2059 -0.6438  0.4569
  134SAPE  H16R14499   1.647   2.572   8.713  0.9140 -2.6450  1.8726
  134SAPE  H16S14500   1.482   2.541   8.717  0.2955 -0.0615  0.9482
  134SAPE  C21714501   1.568   2.522   8.513  0.4256  0.1004  0.7480
  134SAPE  H17R14502   1.467   2.479   8.493  0.1397  0.5295  1.2279
  134SAPE  H17S14503   1.625   2.446   8.456 -0.8106 -0.6331  0.4466
  134SAPE  C21814504   1.579   2.667   8.471 -0.1891 -0.1452 -0.5682
  134SAPE  H18R14505   1.534   2.682   8.370  0.3319 -1.0631 -0.9525
  134SAPE  H18S14506   1.686   2.693   8.471  0.2165 -1.2485  3.3691
  134SAPE  C21914507   1.513   2.775   8.561  0.0405 -0.0409  0.4957
  134SAPE  H19R14508   1.564   2.773   8.659 -0.9086  2.4805  1.1145
  134SAPE  H19S14509   1.406   2.745   8.563  0.2224 -0.7449  3.0953
  134SAPE  C22014510   1.516   2.910   8.499 -0.5465 -0.3976 -0.3411
  134SAPE  H20R14511   1.460   2.904   8.403 -1.6208  0.6476  0.1944
  134SAPE  H20S14512   1.616   2.950   8.472 -1.1388  2.4156  1.3074
  134SAPE  H20T14513   1.461   2.990   8.552  1.9212  1.8491 -0.9751
  134SAPE   C3314514   1.738   2.500  10.077 -0.5705 -0.1710  0.8204
  134SAPE   H3X14515   1.652   2.551  10.027 -0.4460 -0.4733  0.2967
  134SAPE   H3Y14516   1.749   2.390  10.066  2.9271  0.1119  0.5301
  134SAPE   C3414517   1.857   2.570  10.018  0.2731 -0.3177 -0.1643
  134SAPE   H4X14518   1.952   2.537  10.064  1.0499  0.7627 -0.9618
  134SAPE   H4Y14519   1.845   2.679  10.036 -0.2209 -0.7279  2.4876
  134SAPE   C3514520   1.877   2.562   9.868  0.2589 -0.1884 -0.2606
  134SAPE   H5X14521   1.858   2.456   9.839  0.1563 -0.7504  1.7079
  134SAPE   H5Y14522   1.979   2.585   9.833 -0.2260  3.0338  0.1364
  134SAPE   C3614523   1.802   2.665   9.780 -0.0925  0.2743 -0.4861
  134SAPE   H6X14524   1.833   2.764   9.820  0.6181 -0.1256 -0.0446
  134SAPE   H6Y14525   1.692   2.655   9.791 -0.4860  3.4035 -0.6869
  134SAPE   C3714526   1.823   2.664   9.626  0.4726 -0.6638 -0.3887
  134SAPE   H7X14527   1.817   2.558   9.595  0.6885 -0.3294 -1.6302
  134SAPE   H7Y14528   1.924   2.702   9.600  0.1162 -0.9530 -2.3595
  134SAPE   C3814529   1.726   2.742   9.549 -0.1858  0.7805  1.0814
  134SAPE   H8X14530   1.716   2.846   9.589  1.0022  0.4237  2.4169
  134SAPE   H8Y14531   1.628   2.694   9.565  0.2152 -1.1700 -1.6173
  134SAPE   C3914532   1.749   2.745   9.397 -1.1544 -0.3752  0.4776
  134SAPE   H9X14533   1.857   2.752   9.375 -1.6564  2.5104 -1.6301
  134SAPE   H9Y14534   1.704   2.840   9.361 -0.2154 -0.6532 -1.5158
  134SAPE  C31014535   1.697   2.628   9.311 -0.1247 -0.8248  0.1806
  134SAPE  H10X14536   1.589   2.608   9.331 -0.7189  2.0869  0.3705
  134SAPE  H10Y14537   1.762   2.547   9.349  0.0974 -0.2340  1.0952
  134SAPE  C31114538   1.732   2.656   9.168 -0.0038 -0.1036 -0.0032
  134SAPE  H11X14539   1.716   2.565   9.107 -1.2443 -2.8783  4.0050
  134SAPE  H11Y14540   1.839   2.682   9.158  0.4565 -2.1802 -1.0760
  134SAPE  C31214541   1.646   2.763   9.096 -0.0915  0.3914 -0.6534
  134SAPE  H12X14542   1.679   2.852   9.154 -1.1493 -0.1100  0.7641
  134SAPE  H12Y14543   1.544   2.736   9.129  0.6695 -2.2515 -0.2365
  134SAPE  C31314544   1.661   2.782   8.945 -0.1934 -0.1793  0.3830
  134SAPE  H13X14545   1.609   2.875   8.912  1.1977 -0.0355 -1.6518
  134SAPE  H13Y14546   1.616   2.698   8.888  0.2877  0.1258 -0.4637
  134SAPE  C31414547   1.804   2.806   8.908  0.0416 -0.4889  0.2445
  134SAPE  H14X14548   1.872   2.731   8.953  2.4552  2.8750  2.7572
  134SAPE  H14Y14549   1.825   2.904   8.956 -1.2633  0.2749 -0.6600
  134SAPE  C31514550   1.829   2.834   8.765  0.0435  0.2796 -0.0584
  134SAPE  H15X14551   1.755   2.911   8.735  2.1522  1.3040 -3.1219
  134SAPE  H15Y14552   1.815   2.736   8.714 -2.7781 -0.1176  1.2901
  134SAPE  C31614553   1.971   2.891   8.736  0.1208 -0.4147 -0.7606
  134SAPE  H16X14554   2.040   2.812   8.772 -0.0091  0.8982  2.8586
  134SAPE  H16Y14555   1.972   2.982   8.801 -1.2441 -0.9651  0.0731
  134SAPE  C31714556   2.003   2.915   8.590 -0.5966 -0.0850 -0.6722
  134SAPE  H17X14557   1.998   2.822   8.530  1.3490 -2.1258  2.0651
  134SAPE  H17Y14558   2.114   2.928   8.588 -0.3918 -0.9463  1.5936
  134SAPE  C31814559   1.941   3.043   8.524  0.7206 -0.0562 -0.8266
  134SAPE  H18X14560   1.923   3.031   8.415  0.3326  1.1934 -0.9165
  134SAPE  H18Y14561   1.998   3.138   8.537  0.2631  0.0822  0.3056
  134SAPE  H18Z14562   1.839   3.068   8.560  0.4725 -0.9948 -0.8606
  135SAPE     N14563   0.426   0.420  10.311 -0.2082 -0.0286  0.0386
  135SAPE   HN114564   0.398   0.520  10.320  0.6934  0.0621  2.8672
  135SAPE   HN214565   0.521   0.416  10.269 -1.0002  0.1720 -1.8703
  135SAPE   HN314566   0.360   0.378  10.242 -1.1758  0.1486  0.8297
  135SAPE   C1214567   0.418   0.351  10.446 -0.6643  0.6994 -0.2098
  135SAPE  H12A14568   0.331   0.392  10.501 -0.0343  0.7967  0.7433
  135SAPE  H12B14569   0.506   0.390  10.502 -0.0562  0.3340 -0.8845
  135SAPE   C1114570   0.422   0.199  10.435 -0.3128 -0.2026  0.3690
  135SAPE  H11A14571   0.422   0.146  10.532 -0.7417  1.5350  1.3550
  135SAPE  H11B14572   0.518   0.173  10.386 -1.2526 -0.7678 -1.2671
  135SAPE     P14573   0.165   0.127  10.413 -0.3630 -0.0712  0.1601
  135SAPE   O1314574   0.177   0.020  10.512  1.0542  0.3539 -0.1448
  135SAPE   O1414575   0.113   0.253  10.463  0.3506  0.5226  0.2543
  135SAPE   O1214576   0.311   0.149  10.353  0.6685  0.0311  0.1357
  135SAPE   O1114577   0.071   0.073  10.297  0.0187  0.2079 -0.1948
  135SAPE    C114578   0.070  -0.063  10.260 -0.0431  0.6177 -0.5134
  135SAPE    HA14579   0.154  -0.122  10.302  1.7674  1.5096 -2.6674
  135SAPE    HB14580  -0.032  -0.105  10.274 -0.2365  0.5512 -2.0134
  135SAPE    C214581   0.096  -0.068  10.105 -1.5240 -0.2698  0.3435
  135SAPE    HS14582   0.199  -0.027  10.098 -1.5448 -0.1718  0.5952
  135SAPE   O2114583  -0.005  -0.001  10.033  0.5265 -0.1321 -0.2546
  135SAPE   C2114584   0.019   0.115   9.989 -0.1806 -0.5093  0.5650
  135SAPE   O2214585   0.119   0.183   9.994 -0.4881  0.1657 -0.1876
  135SAPE   C2214586  -0.120   0.160   9.932 -0.3000 -1.3190 -0.5726
  135SAPE   H2R14587  -0.203   0.149  10.005 -0.0120  0.9889  0.2000
  135SAPE   H2S14588  -0.104   0.269   9.919 -0.9055 -1.2217 -0.5377
  135SAPE    C314589   0.118  -0.217  10.060  0.6779 -0.2246 -1.0835
  135SAPE    HX14590   0.025  -0.269  10.093  0.3613  0.5037 -0.8209
  135SAPE    HY14591   0.195  -0.262  10.126 -1.0738  0.1602  1.3378
  135SAPE   O3114592   0.148  -0.220   9.923  0.2259  0.1581  0.3366
  135SAPE   C3114593   0.057  -0.266   9.831  0.6648 -0.3167 -0.5202
  135SAPE   O3214594  -0.058  -0.300   9.862  0.1963 -0.0875 -0.3628
  135SAPE   C3214595   0.101  -0.251   9.693  0.2383 -0.1432  0.3090
  135SAPE   H2X14596   0.143  -0.349   9.660  1.0827 -0.3271  1.8097
  135SAPE   H2Y14597   0.182  -0.175   9.690 -0.0158  0.1044 -1.4912
  135SAPE   C2314598  -0.161   0.099   9.799  0.0440  0.0998  0.4020
  135SAPE   H3R14599  -0.269   0.122   9.781 -0.0153  2.2167  2.9162
  135SAPE   H3S14600  -0.154  -0.009   9.821  1.0749  0.1259  0.2542
  135SAPE   C2414601  -0.078   0.142   9.673  0.6392  0.4350 -0.4556
  135SAPE   H4R14602  -0.103   0.079   9.585  0.4592 -0.5212  0.2576
  135SAPE   H4S14603   0.032   0.131   9.685  0.8692  1.8163 -1.1418
  135SAPE   C2514604  -0.117   0.288   9.649 -0.7245 -0.0270  0.1773
  135SAPE   H5R14605  -0.097   0.359   9.731 -1.8313  2.2686 -1.4339
  135SAPE   C2614606  -0.158   0.342   9.529  0.1705 -0.0984 -0.0205
  135SAPE   H6R14607  -0.172   0.451   9.525 -0.5140 -0.1039  1.3824
  135SAPE   C2714608  -0.166   0.275   9.396 -0.0971  0.2470  0.0598
  135SAPE   H7R14609  -0.249   0.321   9.337 -0.4797  0.3425  0.6637
  135SAPE   H7S14610  -0.193   0.170   9.418  1.6129  0.2394  2.4465
  135SAPE   C2814611  -0.035   0.277   9.319 -0.1267 -0.3747  0.4256
  135SAPE   H8R14612   0.047   0.221   9.367 -0.9115 -0.4371  1.7414
  135SAPE   C2914613  -0.007   0.342   9.204  0.8042 -0.6861  1.1322
  135SAPE   H9R14614   0.095   0.332   9.164  0.7637 -0.4064  0.9539
  135SAPE  C21014615  -0.102   0.434   9.130  0.2377 -0.0539  0.2553
  135SAPE  H10R14616  -0.210   0.406   9.139  0.1588 -0.0839 -0.7147
  135SAPE  H10S14617  -0.081   0.403   9.025 -1.6126  0.0373 -0.1812
  135SAPE  C21114618  -0.085   0.579   9.164 -0.5544 -0.2489 -0.6741
  135SAPE  H11R14619  -0.030   0.605   9.256 -0.7891 -0.9482 -0.3258
  135SAPE  C21214620  -0.106   0.683   9.082  0.6510  0.8232 -0.2375
  135SAPE  H12R14621  -0.090   0.788   9.111  0.2780  1.1563 -1.2073
  135SAPE  C21314622  -0.167   0.662   8.945  0.7336  0.4427 -0.5178
  135SAPE  H13R14623  -0.276   0.666   8.962  0.1810  0.6516 -3.5480
  135SAPE  H13S14624  -0.149   0.564   8.894 -3.3340 -2.2743  2.6398
  135SAPE  C21414625  -0.127   0.772   8.851  0.1650  0.2716  0.6207
  135SAPE  H14R14626  -0.019   0.778   8.832  0.7305 -1.4142  2.8798
  135SAPE  C21514627  -0.207   0.855   8.785  0.3675  0.3354 -0.5329
  135SAPE  H15R14628  -0.168   0.932   8.716 -0.7847  0.2261 -1.3389
  135SAPE  C21614629  -0.356   0.863   8.792 -0.2838  0.0662 -0.0899
  135SAPE  H16R14630  -0.387   0.919   8.882  3.1897  2.1022  0.0249
  135SAPE  H16S14631  -0.391   0.757   8.793 -1.0705  0.3137 -0.6675
  135SAPE  C21714632  -0.404   0.930   8.654 -1.4752  0.1479  0.4125
  135SAPE  H17R14633  -0.333   0.915   8.570 -1.0814 -0.0383  0.7808
  135SAPE  H17S14634  -0.407   1.040   8.664  0.2523  0.0908  2.0418
  135SAPE  C21814635  -0.540   0.882   8.607 -0.1774 -0.2190  0.3330
  135SAPE  H18R14636  -0.610   0.876   8.693 -3.8667 -0.5396 -2.5033
  135SAPE  H18S14637  -0.528   0.782   8.560 -0.7031  0.7369 -1.9639
  135SAPE  C21914638  -0.590   0.987   8.505  0.6154 -0.3011  0.5608
  135SAPE  H19R14639  -0.685   0.945   8.465  1.3136 -0.8112 -0.5963
  135SAPE  H19S14640  -0.520   0.993   8.419 -1.5806 -1.2159 -1.3975
  135SAPE  C22014641  -0.632   1.119   8.564 -0.1162  0.7465  1.1806
  135SAPE  H20R14642  -0.713   1.153   8.496 -0.3348 -4.5153 -1.7290
  135SAPE  H20S14643  -0.546   1.190   8.558  0.6857 -0.2820 -0.4964
  135SAPE  H20T14644  -0.678   1.095   8.662 -0.7353 -2.8658  0.1357
  135SAPE   C3314645  -0.018  -0.221   9.600 -0.3155 -0.0183 -0.3589
  135SAPE   H3X14646  -0.069  -0.131   9.640 -1.8182 -2.2235  3.2664
  135SAPE   H3Y14647  -0.098  -0.297   9.612 -1.7026  1.5542  0.8471
  135SAPE   C3414648   0.005  -0.220   9.445  0.2509 -0.1806 -0.9790
  135SAPE   H4X14649  -0.090  -0.183   9.402 -0.8557  0.2471  1.6653
  135SAPE   H4Y14650   0.003  -0.328   9.418  1.2164  0.0723 -2.1736
  135SAPE   C3514651   0.132  -0.140   9.395 -0.1733  0.4312  0.8956
  135SAPE   H5X14652   0.217  -0.210   9.407 -1.9352 -1.8742  0.5670
  135SAPE   H5Y14653   0.148  -0.048   9.455  0.8667  0.3226  0.8054
  135SAPE   C3614654   0.112  -0.104   9.244 -0.1997 -0.1272 -0.7046
  135SAPE   H6X14655   0.006  -0.075   9.226 -0.0929 -0.5131 -2.1326
  135SAPE   H6Y14656   0.133  -0.202   9.195  0.5175 -1.3015  1.8039
  135SAPE   C3714657   0.211   0.009   9.191  0.3790  0.1473  0.4745
  135SAPE   H7X14658   0.319  -0.008   9.210  1.1814  1.6594 -2.2257
  135SAPE   H7Y14659   0.175   0.103   9.238 -2.1723 -0.6643  0.3000
  135SAPE   C3814660   0.190   0.035   9.042 -0.7063  0.3601 -0.7239
  135SAPE   H8X14661   0.093   0.089   9.038 -0.2837  1.0705 -1.8973
  135SAPE   H8Y14662   0.200  -0.062   8.988  1.8657  0.1285 -0.0017
  135SAPE   C3914663   0.297   0.127   8.975  0.0916  0.3441 -0.0694
  135SAPE   H9X14664   0.396   0.077   8.977 -0.6540 -1.2048 -0.5271
  135SAPE   H9Y14665   0.296   0.217   9.041 -1.0982 -2.4145  4.0320
  135SAPE  C31014666   0.266   0.168   8.833  0.5998  0.0472  0.0429
  135SAPE  H10X14667   0.272   0.078   8.769  2.2397 -0.1838  0.4738
  135SAPE  H10Y14668   0.341   0.237   8.790  0.2228 -0.0207 -0.7304
  135SAPE  C31114669   0.124   0.233   8.807  0.1003 -0.4504  0.3164
  135SAPE  H11X14670   0.105   0.320   8.873  2.5552 -0.9450  1.7982
  135SAPE  H11Y14671   0.038   0.165   8.830  0.5596 -1.1285  0.0711
  135SAPE  C31214672   0.116   0.275   8.657  1.5157  0.0904 -0.0386
  135SAPE  H12X14673   0.112   0.188   8.588  2.1722  1.1220 -1.4502
  135SAPE  H12Y14674   0.206   0.327   8.618  1.2133 -0.0308 -0.9360
  135SAPE  C31314675  -0.005   0.367   8.627  0.2981  0.0069 -0.0407
  135SAPE  H13X14676   0.008   0.467   8.675  1.0979 -0.5900  1.0142
  135SAPE  H13Y14677  -0.094   0.312   8.664 -1.4843  1.9428 -1.2041
  135SAPE  C31414678  -0.034   0.383   8.483  0.3028 -0.0063  0.3549
  135SAPE  H14X14679  -0.063   0.282   8.448 -0.7497 -0.5247  2.5626
  135SAPE  H14Y14680   0.055   0.430   8.435  0.9350  0.9920  2.3821
  135SAPE  C31514681  -0.160   0.473   8.455 -0.7944  0.0722  0.0880
  135SAPE  H15X14682  -0.154   0.559   8.526 -1.0267 -0.7030  1.0650
  135SAPE  H15Y14683  -0.246   0.411   8.486  0.5962 -2.2870 -0.5610
  135SAPE  C31614684  -0.188   0.516   8.311  0.4154  0.1385  0.0374
  135SAPE  H16X14685  -0.188   0.422   8.252 -0.4456  0.1629 -0.0138
  135SAPE  H16Y14686  -0.098   0.573   8.280  1.5461 -0.1162  2.5905
  135SAPE  C31714687  -0.310   0.605   8.300  0.0858  0.0883  0.0460
  135SAPE  H17X14688  -0.388   0.554   8.360  0.4617  0.1268  0.5758
  135SAPE  H17Y14689  -0.344   0.587   8.196 -0.6972 -1.8146  0.5881
  135SAPE  C31814690  -0.296   0.748   8.333 -0.0705  0.6094 -0.1820
  135SAPE  H18X14691  -0.389   0.777   8.388  0.8972 -1.6351  2.8754
  135SAPE  H18Y14692  -0.282   0.812   8.243  0.4265 -0.6525 -1.0289
  135SAPE  H18Z14693  -0.227   0.763   8.419 -1.1079 -0.5380  0.8811
  136SAPE     N14694   2.804   0.648  10.868  0.2422  0.0692  0.2195
  136SAPE   HN114695   2.844   0.743  10.874  1.5323 -0.3632 -0.8952
  136SAPE   HN214696   2.878   0.575  10.868 -1.0628 -1.3181  1.6323
  136SAPE   HN314697   2.741   0.626  10.788 -0.7255 -1.6788  1.3911
  136SAPE   C1214698   2.725   0.641  10.993  0.1370 -0.1257 -0.0133
  136SAPE  H12A14699   2.632   0.699  10.979 -1.3384 -1.9049  1.6606
  136SAPE  H12B14700   2.774   0.684  11.083  1.7513 -1.7097 -0.0670
  136SAPE   C1114701   2.688   0.498  11.036 -1.0312 -0.0655 -0.3522
  136SAPE  H11A14702   2.622   0.509  11.124  1.0271 -3.1120  1.7723
  136SAPE  H11B14703   2.780   0.442  11.063 -1.9161 -1.4882 -0.1649
  136SAPE     P14704   2.568   0.275  10.971  0.0146  0.3217 -0.1932
  136SAPE   O1314705   2.620   0.240  11.108  0.2788  0.5822  0.5948
  136SAPE   O1414706   2.419   0.264  10.964  0.2358  0.0098 -0.5432
  136SAPE   O1214707   2.620   0.425  10.933 -0.2685 -0.5992 -0.4166
  136SAPE   O1114708   2.626   0.179  10.859 -0.1066 -0.2561  0.2003
  136SAPE    C114709   2.752   0.203  10.791  0.3661  0.5627 -0.0899
  136SAPE    HA14710   2.820   0.259  10.859 -1.1282 -0.6377  2.5441
  136SAPE    HB14711   2.796   0.108  10.753 -0.9520 -0.1580  0.1364
  136SAPE    C214712   2.729   0.284  10.663 -0.8545 -0.3015 -0.0729
  136SAPE    HS14713   2.695   0.387  10.685 -2.0629 -0.3547 -1.4912
  136SAPE   O2114714   2.645   0.213  10.564  0.2579  0.3085  0.0088
  136SAPE   C2114715   2.578   0.296  10.488  0.7224 -0.5757 -0.1155
  136SAPE   O2214716   2.556   0.413  10.507 -0.1655 -0.8397 -0.3761
  136SAPE   C2214717   2.531   0.221  10.363  0.8876 -1.1308 -0.1303
  136SAPE   H2R14718   2.619   0.191  10.303  2.0179  2.5423 -0.5640
  136SAPE   H2S14719   2.463   0.136  10.384 -0.5047 -0.7357 -2.6169
  136SAPE    C314720   2.868   0.312  10.602 -0.4936  0.0437 -0.1930
  136SAPE    HX14721   2.921   0.214  10.594 -0.7484 -0.1251  0.1672
  136SAPE    HY14722   2.929   0.358  10.683 -1.5879 -2.0996  1.9818
  136SAPE   O3114723   2.870   0.384  10.476  0.1206 -0.1102 -0.4832
  136SAPE   C3114724   2.892   0.511  10.482 -0.2060 -0.2394 -0.0708
  136SAPE   O3214725   2.907   0.575  10.585  0.3030  0.2659 -0.2720
  136SAPE   C3214726   2.914   0.560  10.346 -0.9016 -0.0773 -0.0878
  136SAPE   H2X14727   2.829   0.521  10.286 -1.3101  0.3606  0.2032
  136SAPE   H2Y14728   3.005   0.515  10.301 -0.0574  0.8545  0.6552
  136SAPE   C2314729   2.452   0.318  10.259 -0.3785 -0.3698  0.8021
  136SAPE   H3R14730   2.430   0.264  10.164 -0.6090 -0.8285  1.1156
  136SAPE   H3S14731   2.516   0.403  10.226 -2.0424 -0.2527 -2.5787
  136SAPE   C2414732   2.318   0.382  10.312 -0.2300 -0.1960 -0.1304
  136SAPE   H4R14733   2.270   0.456  10.244 -2.3117  0.1661  1.6179
  136SAPE   H4S14734   2.336   0.433  10.409  2.4987  0.7181 -1.0226
  136SAPE   C2514735   2.214   0.276  10.336  0.8731  0.1804  0.1774
  136SAPE   H5R14736   2.219   0.240  10.440 -0.5573  0.0849  0.2308
  136SAPE   C2614737   2.111   0.246  10.254 -0.3986 -0.3030  0.2214
  136SAPE   H6R14738   2.043   0.166  10.286  2.0343 -2.3282  0.6527
  136SAPE   C2714739   2.100   0.304  10.117  0.7411 -0.1106 -0.5074
  136SAPE   H7R14740   2.124   0.220  10.048  0.7273 -0.3640 -0.2046
  136SAPE   H7S14741   2.177   0.378  10.084  1.9832 -0.6149  1.1149
  136SAPE   C2814742   1.965   0.352  10.093  0.3824 -0.4700 -0.2368
  136SAPE   H8R14743   1.915   0.397  10.181 -0.2312 -2.4418  0.4921
  136SAPE   C2914744   1.890   0.337   9.984  0.5114  0.5201  0.4658
  136SAPE   H9R14745   1.784   0.368   9.988  0.2051  0.1019 -2.5845
  136SAPE  C21014746   1.938   0.280   9.853  0.2705  0.3795  0.1766
  136SAPE  H10R14747   2.032   0.226   9.879  0.7669  1.1748  0.0602
  136SAPE  H10S14748   1.971   0.364   9.789  2.0999  0.0964  0.6799
  136SAPE  C21114749   1.838   0.183   9.789  0.1195 -0.3059  0.5813
  136SAPE  H11R14750   1.767   0.131   9.854 -0.2195 -0.1710  0.3205
  136SAPE  C21214751   1.824   0.161   9.655 -0.6254 -0.1321 -0.3241
  136SAPE  H12R14752   1.731   0.118   9.615 -0.3621 -0.2741 -0.7961
  136SAPE  C21314753   1.915   0.235   9.558 -0.5688  0.2441 -0.4416
  136SAPE  H13R14754   2.017   0.255   9.599  0.7680  0.1473 -3.4327
  136SAPE  H13S14755   1.872   0.336   9.545  0.6127  0.8142 -0.0770
  136SAPE  C21414756   1.922   0.155   9.437 -0.0571  0.1766 -0.3171
  136SAPE  H14R14757   1.947   0.049   9.452 -2.6476 -0.5767 -0.7652
  136SAPE  C21514758   1.905   0.207   9.311 -0.1864 -0.4328 -0.3917
  136SAPE  H15R14759   1.909   0.138   9.226  0.4026 -1.0062  0.0815
  136SAPE  C21614760   1.886   0.350   9.274  0.5179 -0.2032 -0.4649
  136SAPE  H16R14761   1.986   0.398   9.278  0.1125  0.5985  1.6077
  136SAPE  H16S14762   1.829   0.406   9.352 -0.0631 -0.9494 -0.3425
  136SAPE  C21714763   1.829   0.376   9.138  0.4033  0.3661  1.0730
  136SAPE  H17R14764   1.811   0.485   9.125 -2.0662 -0.1597 -0.6856
  136SAPE  H17S14765   1.734   0.322   9.118 -0.0875  1.4586  0.3421
  136SAPE  C21814766   1.929   0.336   9.029  0.2395  0.2862  0.8079
  136SAPE  H18R14767   1.946   0.227   9.042  1.9316  0.7836  3.3958
  136SAPE  H18S14768   2.030   0.377   9.047  0.5189  0.3622 -0.7434
  136SAPE  C21914769   1.896   0.376   8.889  0.5623  0.4095  0.4165
  136SAPE  H19R14770   1.887   0.486   8.890  1.0370  0.4757  2.3232
  136SAPE  H19S14771   1.800   0.335   8.850  0.6580  1.0616 -0.5289
  136SAPE  C22014772   2.005   0.330   8.791  0.6104 -0.3773 -0.3000
  136SAPE  H20R14773   2.101   0.344   8.845  0.5985 -0.3412 -0.2877
  136SAPE  H20S14774   1.994   0.392   8.699  0.1194  0.6042  0.4047
  136SAPE  H20T14775   1.985   0.222   8.777 -3.7633  0.1481  0.5439
  136SAPE   C3314776   2.917   0.713  10.345  0.2594  0.5396  0.4308
  136SAPE   H3X14777   3.000   0.743  10.413 -2.3937 -0.2631  4.3811
  136SAPE   H3Y14778   2.820   0.761  10.372 -0.3261 -1.2828  1.7182
  136SAPE   C3414779   2.956   0.776  10.207  1.0013 -0.4027 -0.9821
  136SAPE   H4X14780   2.881   0.756  10.128  0.7140 -1.1559 -0.5271
  136SAPE   H4Y14781   3.049   0.728  10.171  1.6244  0.4358 -0.5291
  136SAPE   C3514782   2.975   0.924  10.224 -0.4055  0.2843  0.0107
  136SAPE   H5X14783   3.055   0.950  10.297 -0.7961  0.1309  0.5015
  136SAPE   H5Y14784   2.879   0.974  10.248  0.3668  2.6851 -1.5421
  136SAPE   C3614785   3.011   0.990  10.089 -0.0177 -0.1231  0.3110
  136SAPE   H6X14786   2.959   0.941  10.003  1.2602  0.7266 -0.9856
  136SAPE   H6Y14787   3.118   0.968  10.068  0.0442  1.5745 -1.4630
  136SAPE   C3714788   2.990   1.145  10.087 -0.4649 -0.1142 -0.4091
  136SAPE   H7X14789   3.070   1.194  10.146 -0.1137 -2.0163  0.7714
  136SAPE   H7Y14790   2.890   1.168  10.131  0.1287  1.1088  0.3627
  136SAPE   C3814791   2.989   1.195   9.945 -0.3308 -0.2040 -0.7895
  136SAPE   H8X14792   2.967   1.304   9.956  1.1613 -0.0569  1.1842
  136SAPE   H8Y14793   2.906   1.139   9.896 -0.0126 -0.5168 -0.9783
  136SAPE   C3914794   3.115   1.181   9.859  0.0160  0.1787  0.3373
  136SAPE   H9X14795   3.132   1.071   9.858 -0.7090 -0.0079  2.4329
  136SAPE   H9Y14796   3.202   1.226   9.911  0.4398 -1.4965  1.1538
  136SAPE  C31014797   3.117   1.245   9.721  0.1361  0.2095 -0.7708
  136SAPE  H10X14798   3.149   1.350   9.735  0.5941 -0.0026 -0.2280
  136SAPE  H10Y14799   3.012   1.258   9.686  0.2551  0.5243 -1.0173
  136SAPE  C31114800   3.209   1.181   9.616 -0.4842 -0.6110 -0.0035
  136SAPE  H11X14801   3.223   1.075   9.647  0.8842 -0.2539  0.6424
  136SAPE  H11Y14802   3.311   1.225   9.615 -1.0180  0.6913  0.8077
  136SAPE  C31214803   3.146   1.178   9.476 -0.2446  0.1543 -0.2058
  136SAPE  H12X14804   3.036   1.163   9.486 -0.0879  0.0291  1.7081
  136SAPE  H12Y14805   3.187   1.090   9.421 -2.0094 -1.4692  0.9195
  136SAPE  C31314806   3.173   1.309   9.395 -0.0039  0.6675  0.5417
  136SAPE  H13X14807   3.282   1.332   9.394  0.0810  0.3320 -1.3249
  136SAPE  H13Y14808   3.126   1.395   9.448 -2.0839 -0.2168  0.1983
  136SAPE  C31414809   3.117   1.307   9.256 -0.2596  0.2929 -0.1040
  136SAPE  H14X14810   3.012   1.274   9.270  0.6874 -3.8015 -1.2725
  136SAPE  H14Y14811   3.167   1.227   9.197  0.1601  0.8577 -0.5161
  136SAPE  C31514812   3.126   1.433   9.175 -0.1551 -0.3050 -0.7277
  136SAPE  H15X14813   3.231   1.467   9.166  0.4580 -0.7269  3.0065
  136SAPE  H15Y14814   3.078   1.513   9.235  1.0099 -0.4937  0.5079
  136SAPE  C31614815   3.041   1.423   9.047 -0.0553  0.3934  0.3523
  136SAPE  H16X14816   2.932   1.434   9.066  0.1382  0.6286  1.4362
  136SAPE  H16Y14817   3.058   1.321   9.007 -0.2412  0.8337 -0.8674
  136SAPE  C31714818   3.091   1.529   8.944  0.0390 -0.7531 -0.3550
  136SAPE  H17X14819   3.200   1.544   8.960 -0.4670  0.2870  2.9412
  136SAPE  H17Y14820   3.048   1.628   8.972  2.4376 -0.3973  2.5352
  136SAPE  C31814821   3.044   1.489   8.802  0.5252  0.0475 -0.5801
  136SAPE  H18X14822   3.080   1.567   8.732 -0.4988  0.2373 -0.9079
  136SAPE  H18Y14823   2.935   1.487   8.781  0.6470  0.9258 -1.3483
  136SAPE  H18Z14824   3.079   1.389   8.769  0.8832 -0.4494  1.1833
  137SAPE     N14825   1.853   3.232  10.782 -0.3691 -0.4583  0.1521
  137SAPE   HN114826   1.943   3.252  10.830  0.8931 -4.1753 -0.3233
  137SAPE   HN214827   1.779   3.224  10.854 -0.8262  1.7485 -0.0090
  137SAPE   HN314828   1.874   3.134  10.752  3.5348 -0.5061  2.2827
  137SAPE   C1214829   1.809   3.335  10.685  0.5692  0.6559 -0.8649
  137SAPE  H12A14830   1.736   3.288  10.616  2.1165 -0.4132 -1.8448
  137SAPE  H12B14831   1.900   3.375  10.635 -0.5591  1.2271 -2.5584
  137SAPE   C1114832   1.748   3.468  10.737 -1.2642 -0.1795  0.1738
  137SAPE  H11A14833   1.732   3.535  10.650  2.3326 -0.0279 -0.4943
  137SAPE  H11B14834   1.824   3.521  10.797  0.1974  0.9474 -2.5254
  137SAPE     P14835   1.517   3.566  10.824  0.3952 -0.3506 -0.0193
  137SAPE   O1314836   1.437   3.526  10.940  0.4178  0.6544 -0.1481
  137SAPE   O1414837   1.582   3.701  10.829 -0.2745  0.2922  0.0431
  137SAPE   O1214838   1.627   3.454  10.806  0.0476 -0.1478 -0.0171
  137SAPE   O1114839   1.425   3.567  10.703 -0.1986  0.3216 -0.0404
  137SAPE    C114840   1.463   3.576  10.566 -0.0957  0.9805 -0.2749
  137SAPE    HA14841   1.437   3.675  10.522 -3.1048  1.0442  1.3840
  137SAPE    HB14842   1.572   3.569  10.544 -0.2565  0.6645 -1.0362
  137SAPE    C214843   1.409   3.459  10.480  1.1744 -0.0858  0.0445
  137SAPE    HS14844   1.300   3.479  10.481  0.8010 -1.6126  3.0632
  137SAPE   O2114845   1.441   3.331  10.538 -0.7567 -0.6706  0.4942
  137SAPE   C2114846   1.354   3.235  10.519 -0.0789  0.0244  0.2024
  137SAPE   O2214847   1.245   3.244  10.467  0.3433  0.1403 -0.5728
  137SAPE   C2214848   1.417   3.108  10.584 -0.2972 -0.2029  0.2968
  137SAPE   H2R14849   1.511   3.140  10.634  0.4143  2.8516 -2.6325
  137SAPE   H2S14850   1.349   3.072  10.663  0.1118 -1.1098  0.2479
  137SAPE    C314851   1.463   3.464  10.328  0.1467  0.1365  0.4385
  137SAPE    HX14852   1.406   3.382  10.280 -1.6447  0.4032  1.9742
  137SAPE    HY14853   1.572   3.441  10.328  0.0544 -0.3067 -0.0779
  137SAPE   O3114854   1.427   3.586  10.254  0.1767 -0.3756 -0.5067
  137SAPE   C3114855   1.511   3.687  10.254  0.5105  0.3225  0.3589
  137SAPE   O3214856   1.619   3.689  10.311  0.0135  0.2831 -0.6244
  137SAPE   C3214857   1.440   3.807  10.183  0.0807 -0.2021 -0.0262
  137SAPE   H2X14858   1.433   3.884  10.263  1.6469  0.2031 -0.2470
  137SAPE   H2Y14859   1.337   3.786  10.150  0.3762 -0.0187 -1.0822
  137SAPE   C2314860   1.448   2.994  10.483  0.6853 -0.2090 -0.8952
  137SAPE   H3R14861   1.348   2.978  10.438 -1.0166  2.6816  1.4986
  137SAPE   H3S14862   1.472   2.895  10.529 -2.9209 -0.4855  0.7198
  137SAPE   C2414863   1.553   3.027  10.373  0.1573 -0.5377  0.1103
  137SAPE   H4R14864   1.657   3.045  10.410  1.2220 -2.1309 -1.8841
  137SAPE   H4S14865   1.526   3.127  10.334  0.7726 -0.1739  0.5897
  137SAPE   C2514866   1.564   2.923  10.259  0.0752 -0.0939  0.4638
  137SAPE   H5R14867   1.597   2.823  10.289  0.8371 -0.2333 -0.7646
  137SAPE   C2614868   1.541   2.935  10.122  1.5644  0.0644  0.5931
  137SAPE   H6R14869   1.556   2.848  10.057 -1.1905 -0.9341  1.1896
  137SAPE   C2714870   1.486   3.061  10.055 -0.0942  1.0362  0.2289
  137SAPE   H7R14871   1.393   3.076  10.113  0.0572 -0.2080  0.8333
  137SAPE   H7S14872   1.443   3.041   9.954 -0.4438  2.1041  0.1513
  137SAPE   C2814873   1.570   3.186  10.063 -0.5954  0.0358 -0.5888
  137SAPE   H8R14874   1.643   3.200  10.144 -1.7635  1.6790  0.2085
  137SAPE   C2914875   1.566   3.292   9.981  0.5051 -0.5959  0.3261
  137SAPE   H9R14876   1.632   3.376  10.007  1.9673 -1.3023 -0.9695
  137SAPE  C21014877   1.481   3.307   9.861  0.0685 -0.2831 -0.1799
  137SAPE  H10R14878   1.410   3.223   9.848 -0.3844 -0.0315  0.6012
  137SAPE  H10S14879   1.552   3.318   9.776  0.2021  1.5561  0.1328
  137SAPE  C21114880   1.404   3.439   9.880 -0.2518 -0.1312 -0.1585
  137SAPE  H11R14881   1.353   3.448   9.977 -2.6336 -1.3301 -1.2289
  137SAPE  C21214882   1.390   3.537   9.783  0.6916 -0.0197  0.6938
  137SAPE  H12R14883   1.326   3.621   9.812  0.2831  1.0349 -2.8003
  137SAPE  C21314884   1.456   3.533   9.648 -0.5044  0.3768  0.1138
  137SAPE  H13R14885   1.382   3.525   9.566  3.1688  0.4438 -3.4906
  137SAPE  H13S14886   1.527   3.449   9.630  0.5339  1.0332  0.9998
  137SAPE  C21414887   1.523   3.661   9.615 -0.2101 -0.6489  0.2455
  137SAPE  H14R14888   1.617   3.672   9.670 -0.0266  0.9806 -0.3541
  137SAPE  C21514889   1.475   3.770   9.550  1.0349  1.0635 -0.0559
  137SAPE  H15R14890   1.532   3.864   9.542 -0.8631  2.0874 -4.3727
  137SAPE  C21614891   1.337   3.773   9.474 -0.6554  0.7703 -0.4429
  137SAPE  H16R14892   1.274   3.851   9.523  0.8283  1.8096 -0.0905
  137SAPE  H16S14893   1.284   3.677   9.463 -0.2068  0.7964 -4.0663
  137SAPE  C21714894   1.376   3.799   9.319  0.3534 -0.3766  0.0297
  137SAPE  H17R14895   1.439   3.890   9.309  0.8622 -0.5089  1.7575
  137SAPE  H17S14896   1.282   3.818   9.263  1.1251 -1.5441 -1.7544
  137SAPE  C21814897   1.449   3.679   9.245 -0.3666  0.0578 -0.0432
  137SAPE  H18R14898   1.392   3.591   9.283 -0.6932  0.7071  1.0365
  137SAPE  H18S14899   1.549   3.677   9.293 -0.4758  2.3686  0.3918
  137SAPE  C21914900   1.450   3.690   9.095 -0.4228  0.1085  0.0906
  137SAPE  H19R14901   1.345   3.706   9.063  0.6816  2.4683 -2.8784
  137SAPE  H19S14902   1.484   3.591   9.057  0.2739  0.7116 -0.9220
  137SAPE  C22014903   1.542   3.796   9.031  0.1369 -0.2453 -0.3974
  137SAPE  H20R14904   1.501   3.898   9.048  1.5603  0.1878  0.6289
  137SAPE  H20S14905   1.561   3.780   8.923  0.1777  0.5395 -0.5148
  137SAPE  H20T14906   1.631   3.795   9.098 -0.0797  1.3229 -0.0325
  137SAPE   C3314907   1.524   3.850  10.070 -0.1875 -0.0234 -0.3095
  137SAPE   H3X14908   1.514   3.769   9.994 -1.2874 -0.4472  0.2722
  137SAPE   H3Y14909   1.631   3.850  10.099  0.2012 -0.4031 -1.6534
  137SAPE   C3414910   1.492   3.994  10.022 -0.0716  0.5719 -0.6782
  137SAPE   H4X14911   1.488   4.062  10.110 -2.5192 -0.7849  0.3521
  137SAPE   H4Y14912   1.393   3.999   9.974 -0.5442  2.0605  0.3820
  137SAPE   C3514913   1.601   4.042   9.932 -0.0676 -0.0767  0.4978
  137SAPE   H5X14914   1.587   3.991   9.834 -0.2115  1.0999 -0.1073
  137SAPE   H5Y14915   1.705   4.017   9.964  0.0112 -0.5674 -0.1298
  137SAPE   C3614916   1.601   4.197   9.904 -0.1360 -0.2084 -0.9228
  137SAPE   H6X14917   1.674   4.227   9.826 -0.6655  1.1624 -0.9146
  137SAPE   H6Y14918   1.645   4.245   9.994  0.3818 -1.4590 -0.4833
  137SAPE   C3714919   1.470   4.274   9.873  0.6001  0.1628  0.1051
  137SAPE   H7X14920   1.491   4.383   9.863 -0.1803  0.2523 -0.6520
  137SAPE   H7Y14921   1.404   4.290   9.961 -0.0206  1.1303 -0.5176
  137SAPE   C3814922   1.391   4.205   9.756  0.4871  0.8730  0.1487
  137SAPE   H8X14923   1.292   4.249   9.732 -0.3045 -0.5574  0.6493
  137SAPE   H8Y14924   1.379   4.095   9.763 -0.2868  0.6593 -3.0476
  137SAPE   C3914925   1.472   4.228   9.628 -0.1490  0.3326 -0.2040
  137SAPE   H9X14926   1.571   4.177   9.638 -1.1966 -2.1183 -1.4148
  137SAPE   H9Y14927   1.490   4.338   9.627  1.7865  0.0487 -1.5853
  137SAPE  C31014928   1.402   4.181   9.502  0.9180  0.6532  0.1304
  137SAPE  H10X14929   1.298   4.220   9.498  0.0383 -1.5223  0.3909
  137SAPE  H10Y14930   1.400   4.070   9.505 -1.5221  0.5771 -1.1625
  137SAPE  C31114931   1.474   4.234   9.380 -0.0849  0.2801 -0.0199
  137SAPE  H11X14932   1.575   4.191   9.365 -0.0620 -1.2100  3.4744
  137SAPE  H11Y14933   1.485   4.342   9.405 -1.3245  0.4179  0.0050
  137SAPE  C31214934   1.400   4.218   9.248  0.4641 -0.1195  0.0230
  137SAPE  H12X14935   1.302   4.269   9.258  0.6261  0.4574 -1.1582
  137SAPE  H12Y14936   1.385   4.113   9.216 -2.1825  0.1742  0.1405
  137SAPE  C31314937   1.469   4.292   9.124  0.3917  0.2748  0.0795
  137SAPE  H13X14938   1.574   4.255   9.130 -0.5602 -3.3666 -2.5308
  137SAPE  H13Y14939   1.477   4.400   9.148  0.1910 -0.0207  1.6070
  137SAPE  C31414940   1.433   4.244   8.989 -0.4950  0.1514  0.1323
  137SAPE  H14X14941   1.325   4.268   8.978 -0.9401 -2.1735 -1.3601
  137SAPE  H14Y14942   1.443   4.133   8.989  0.1847  0.2080  0.8804
  137SAPE  C31514943   1.522   4.299   8.871  0.4117  0.1771 -0.0680
  137SAPE  H15X14944   1.521   4.407   8.898  2.9757  0.2608 -0.0305
  137SAPE  H15Y14945   1.479   4.276   8.771  1.0215  0.2205 -0.3491
  137SAPE  C31614946   1.662   4.243   8.871  0.0808  0.2462 -0.1472
  137SAPE  H16X14947   1.662   4.145   8.924  1.7842 -0.8103 -1.9414
  137SAPE  H16Y14948   1.718   4.318   8.932 -0.8465  1.0759 -0.2958
  137SAPE  C31714949   1.736   4.211   8.741  0.2365 -0.1750  0.2470
  137SAPE  H17X14950   1.846   4.218   8.751  0.4855 -2.0628 -0.6009
  137SAPE  H17Y14951   1.697   4.275   8.659  1.4317 -0.0573 -0.2477
  137SAPE  C31814952   1.718   4.066   8.697  0.7601 -0.2487  0.4973
  137SAPE  H18X14953   1.607   4.055   8.697  0.8448 -1.2365 -0.2508
  137SAPE  H18Y14954   1.765   3.985   8.757  1.4150 -1.1489 -1.1773
  137SAPE  H18Z14955   1.747   4.061   8.590  2.7440  0.9872  0.9350
  138SAPE     N14956   5.461   3.080  10.682  0.3652 -0.5748 -0.1963
  138SAPE   HN114957   5.551   3.132  10.679 -0.8507  1.5984 -1.9605
  138SAPE   HN214958   5.466   3.001  10.750 -1.3668  0.4607  1.2328
  138SAPE   HN314959   5.442   3.035  10.590  1.9609 -2.6235  0.3945
  138SAPE   C1214960   5.353   3.171  10.731 -0.1164 -0.0723 -0.3868
  138SAPE  H12A14961   5.386   3.223  10.823 -2.6796 -0.2099  0.6978
  138SAPE  H12B14962   5.271   3.104  10.765  1.2690 -0.7349  1.8633
  138SAPE   C1114963   5.316   3.274  10.623 -0.6455  0.0216  0.0169
  138SAPE  H11A14964   5.299   3.225  10.524  1.1644 -1.6757  0.4850
  138SAPE  H11B14965   5.407   3.336  10.609 -1.0223  0.8431  1.0692
  138SAPE     P14966   5.198   3.493  10.734  0.1069 -0.1168 -0.1950
  138SAPE   O1314967   5.060   3.517  10.791  0.0591  0.3855  0.1898
  138SAPE   O1414968   5.316   3.498  10.827 -0.4634 -0.6702 -0.1625
  138SAPE   O1214969   5.209   3.356  10.662  0.1318  0.3888  0.0207
  138SAPE   O1114970   5.215   3.583  10.608 -0.1502 -0.4053  0.0202
  138SAPE    C114971   5.339   3.616  10.546  0.0598  0.0489  0.1340
  138SAPE    HA14972   5.363   3.719  10.579 -0.0808 -0.7602  3.0817
  138SAPE    HB14973   5.421   3.545  10.573 -2.6827 -2.7890  1.6811
  138SAPE    C214974   5.325   3.614  10.388 -0.4266  0.0771 -0.4452
  138SAPE    HS14975   5.231   3.671  10.370 -1.9893 -1.1167  3.1315
  138SAPE   O2114976   5.328   3.484  10.330 -0.1406 -0.1058 -0.0777
  138SAPE   C2114977   5.213   3.435  10.306 -0.8447  0.3451 -0.0594
  138SAPE   O2214978   5.103   3.480  10.337  0.0973  0.0331  0.1656
  138SAPE   C2214979   5.236   3.309  10.218 -0.5545  0.3107 -0.4175
  138SAPE   H2R14980   5.344   3.289  10.201 -0.3447  0.9144  0.1553
  138SAPE   H2S14981   5.180   3.227  10.267 -0.7336  0.3513 -0.5556
  138SAPE    C314982   5.447   3.694  10.323 -0.0075 -1.0943 -0.3999
  138SAPE    HX14983   5.544   3.647  10.352 -0.1372 -0.4751  1.1121
  138SAPE    HY14984   5.441   3.796  10.365 -0.2970 -1.6222  0.8893
  138SAPE   O3114985   5.440   3.698  10.181 -0.5333 -0.3334  0.2294
  138SAPE   C3114986   5.362   3.792  10.127  0.2496 -0.7938 -0.8946
  138SAPE   O3214987   5.279   3.860  10.187  0.6252 -0.1048  0.3340
  138SAPE   C3214988   5.402   3.794   9.982 -0.4995 -0.7107  0.2331
  138SAPE   H2X14989   5.393   3.691   9.942  0.2676 -1.8703  2.8237
  138SAPE   H2Y14990   5.505   3.836   9.985 -0.9561  0.4038  2.6907
  138SAPE   C2314991   5.181   3.327  10.069  0.3971  0.2692  0.3511
  138SAPE   H3R14992   5.076   3.362  10.078  0.0111 -1.2191  2.4382
  138SAPE   H3S14993   5.179   3.234  10.008  1.0478  1.0261 -0.8399
  138SAPE   C2414994   5.261   3.438   9.991  0.5589  0.4798  0.2708
  138SAPE   H4R14995   5.254   3.530  10.053  0.4049  0.6133  0.0575
  138SAPE   H4S14996   5.196   3.459   9.904  1.5510 -1.6245 -1.0613
  138SAPE   C2514997   5.406   3.397   9.960  0.5229 -0.0688  0.2888
  138SAPE   H5R14998   5.471   3.402  10.048  1.1061  0.8184 -0.1698
  138SAPE   C2614999   5.453   3.359   9.838 -0.4180 -0.4196 -0.5731
  138SAPE   H6R15000   5.558   3.333   9.820 -0.0039  0.0637  0.9934
  138SAPE   C2715001   5.363   3.352   9.712  0.5297 -0.3782 -0.2583
  138SAPE   H7R15002   5.390   3.427   9.634 -2.7611  1.6183  0.3447
  138SAPE   H7S15003   5.254   3.366   9.728 -0.0875 -1.2415 -3.1029
  138SAPE   C2815004   5.362   3.209   9.650 -0.3318  0.1417  0.7228
  138SAPE   H8R15005   5.303   3.139   9.711 -1.5273  1.1525  0.7765
  138SAPE   C2915006   5.420   3.169   9.530  0.5359  0.2289 -0.6817
  138SAPE   H9R15007   5.414   3.067   9.490  1.1551 -0.5053  1.0043
  138SAPE  C21015008   5.485   3.267   9.441  0.7634  0.2827  0.3952
  138SAPE  H10R15009   5.560   3.203   9.388 -0.0899  1.5900 -2.5826
  138SAPE  H10S15010   5.544   3.349   9.486  3.4400 -0.3345 -1.6836
  138SAPE  C21115011   5.382   3.320   9.340 -0.8237 -0.5674 -0.6330
  138SAPE  H11R15012   5.289   3.358   9.384 -1.1175 -1.9129 -0.0231
  138SAPE  C21215013   5.383   3.318   9.206  0.0090 -0.6283 -0.0023
  138SAPE  H12R15014   5.290   3.349   9.155  2.3268  2.7871 -2.5669
  138SAPE  C21315015   5.494   3.252   9.134  0.4575  0.2603 -0.2386
  138SAPE  H13R15016   5.586   3.303   9.171 -1.0486  1.8177  1.6091
  138SAPE  H13S15017   5.502   3.295   9.032 -0.5082 -1.2931 -0.9962
  138SAPE  C21415018   5.501   3.103   9.128 -0.2250 -0.3588 -0.0008
  138SAPE  H14R15019   5.460   3.051   9.216 -0.9422  0.4059  0.1325
  138SAPE  C21515020   5.559   3.033   9.025  0.2245 -0.5471  0.0304
  138SAPE  H15R15021   5.554   2.923   9.021 -0.7341 -0.4743 -1.5014
  138SAPE  C21615022   5.621   3.085   8.897  0.0623  0.0209  0.4178
  138SAPE  H16R15023   5.718   3.031   8.896 -0.1661 -0.4258  1.2436
  138SAPE  H16S15024   5.637   3.195   8.898  2.7125 -0.2675 -0.9021
  138SAPE  C21715025   5.553   3.058   8.765  0.3385 -0.2732  0.3468
  138SAPE  H17R15026   5.457   3.112   8.776  0.6690  0.0620  1.7610
  138SAPE  H17S15027   5.525   2.951   8.754 -1.6218  0.2811 -0.4317
  138SAPE  C21815028   5.630   3.102   8.632  0.3088  0.5757  0.8722
  138SAPE  H18R15029   5.549   3.108   8.555  0.3782  1.2873  0.8407
  138SAPE  H18S15030   5.708   3.029   8.604  2.5330  2.9135  0.5595
  138SAPE  C21915031   5.694   3.239   8.644  0.1840  0.2822  0.1817
  138SAPE  H19R15032   5.759   3.253   8.733 -1.7944  2.4355  1.3954
  138SAPE  H19S15033   5.616   3.319   8.647  0.0529  0.3840 -2.8198
  138SAPE  C22015034   5.779   3.267   8.516  0.5344  0.4082 -0.1366
  138SAPE  H20R15035   5.719   3.270   8.422 -0.5276  0.0195  0.5083
  138SAPE  H20S15036   5.853   3.184   8.515  0.2817  0.1740  0.3483
  138SAPE  H20T15037   5.838   3.359   8.534  1.5365 -0.3577  0.6062
  138SAPE   C3315038   5.313   3.894   9.912 -0.7874 -0.1550 -0.2805
  138SAPE   H3X15039   5.331   3.998   9.945  2.0266  0.3664 -3.0082
  138SAPE   H3Y15040   5.205   3.877   9.932 -1.4192  2.5301 -1.0952
  138SAPE   C3415041   5.340   3.882   9.760 -0.1286 -0.0294  0.4135
  138SAPE   H4X15042   5.446   3.872   9.730 -0.4926  1.6804 -1.6739
  138SAPE   H4Y15043   5.311   3.976   9.709 -0.7857 -0.5930 -0.2635
  138SAPE   C3515044   5.263   3.774   9.682  0.2081  0.3055 -0.6407
  138SAPE   H5X15045   5.163   3.822   9.679  0.8727  1.7024 -2.3520
  138SAPE   H5Y15046   5.265   3.678   9.738  1.5983  1.3605  1.2432
  138SAPE   C3615047   5.327   3.743   9.544  0.8924 -0.0928 -0.4356
  138SAPE   H6X15048   5.424   3.691   9.561  1.1093  0.9288  1.8654
  138SAPE   H6Y15049   5.344   3.842   9.498  1.1022  0.2671  0.3974
  138SAPE   C3715050   5.230   3.672   9.447  0.6700 -0.1773 -0.1647
  138SAPE   H7X15051   5.123   3.700   9.460  0.2002 -0.8589 -2.1999
  138SAPE   H7Y15052   5.243   3.565   9.473  1.0989 -0.6590 -2.2231
  138SAPE   C3815053   5.253   3.707   9.300  0.7035 -0.4283 -0.0948
  138SAPE   H8X15054   5.351   3.664   9.271  0.2010 -2.0452  0.5229
  138SAPE   H8Y15055   5.234   3.816   9.286  0.5043 -0.4772 -0.2054
  138SAPE   C3915056   5.136   3.643   9.227  0.3633  0.3727  0.1009
  138SAPE   H9X15057   5.037   3.680   9.259  0.6448  1.9512 -0.7645
  138SAPE   H9Y15058   5.157   3.534   9.233 -0.8363 -0.1205 -3.0746
  138SAPE  C31015059   5.141   3.683   9.080  0.4625 -0.6035  0.2781
  138SAPE  H10X15060   5.239   3.671   9.029  0.3295  3.0189 -1.1384
  138SAPE  H10Y15061   5.116   3.792   9.077 -2.1327 -1.1195  0.7359
  138SAPE  C31115062   5.039   3.604   8.991 -0.1400  0.0266  0.1489
  138SAPE  H11X15063   4.949   3.601   9.056  0.5396  1.8348  1.2599
  138SAPE  H11Y15064   5.067   3.498   8.978  1.7899  0.6824 -1.4792
  138SAPE  C31215065   4.997   3.677   8.862 -0.1629  0.2830  0.3887
  138SAPE  H12X15066   5.083   3.677   8.792 -0.8928  2.5859 -0.6076
  138SAPE  H12Y15067   4.956   3.777   8.888 -2.6513 -0.4587 -0.3081
  138SAPE  C31315068   4.888   3.602   8.785  0.5194  1.0730  0.0817
  138SAPE  H13X15069   4.787   3.604   8.831 -0.8434  1.1242 -2.7074
  138SAPE  H13Y15070   4.916   3.495   8.774  1.0164  0.9745  1.9170
  138SAPE  C31415071   4.876   3.659   8.644  0.1477  0.6383  0.6659
  138SAPE  H14X15072   4.973   3.630   8.598 -0.8464 -1.1409 -0.3957
  138SAPE  H14Y15073   4.868   3.770   8.639 -1.9899  0.4678 -1.7494
  138SAPE  C31515074   4.767   3.594   8.557 -1.1541 -0.1218 -0.5823
  138SAPE  H15X15075   4.766   3.487   8.586  1.5056 -0.1859 -0.4063
  138SAPE  H15Y15076   4.808   3.592   8.453 -1.4686  0.7791 -0.7397
  138SAPE  C31615077   4.625   3.652   8.572 -0.0846  1.2543  0.0106
  138SAPE  H16X15078   4.609   3.753   8.529 -0.0458  0.8485 -0.9781
  138SAPE  H16Y15079   4.603   3.650   8.681  0.0147 -0.4741  0.0239
  138SAPE  C31715080   4.520   3.561   8.500 -0.5582 -0.2197 -0.4346
  138SAPE  H17X15081   4.507   3.463   8.550  2.5003  0.5114  2.1488
  138SAPE  H17Y15082   4.545   3.548   8.392 -1.9574 -1.6095 -0.6201
  138SAPE  C31815083   4.381   3.619   8.498 -0.4744 -0.5714 -0.0286
  138SAPE  H18X15084   4.327   3.629   8.595 -3.8167 -0.0347 -1.7705
  138SAPE  H18Y15085   4.328   3.551   8.428  0.3662 -1.8179  0.5274
  138SAPE  H18Z15086   4.384   3.718   8.447 -0.9501  0.0641  1.1314
  139SAPE     N15087   3.412   2.286  10.793 -0.3800  0.3437  0.1887
  139SAPE   HN115088   3.399   2.187  10.823  2.1431 -0.5150 -1.2692
  139SAPE   HN215089   3.505   2.305  10.834  0.8663 -3.3916 -0.5729
  139SAPE   HN315090   3.337   2.345  10.836  0.4344  1.3761  0.2354
  139SAPE   C1215091   3.403   2.304  10.646 -0.3211 -0.0365  0.2921
  139SAPE  H12A15092   3.479   2.240  10.596 -0.2821  1.1813 -1.2688
  139SAPE  H12B15093   3.418   2.410  10.617 -2.6010  0.2362 -0.1077
  139SAPE   C1115094   3.259   2.270  10.603  0.3660  1.0617  0.4318
  139SAPE  H11A15095   3.259   2.286  10.493  0.6386  1.0737  0.4304
  139SAPE  H11B15096   3.194   2.346  10.651 -0.3877  1.5359 -1.2604
  139SAPE     P15097   3.251   2.015  10.529 -0.2781  0.0235  0.0396
  139SAPE   O1315098   3.388   2.042  10.483  0.3219  0.4409  0.0110
  139SAPE   O1415099   3.232   1.892  10.612 -0.7241 -0.9296 -0.7190
  139SAPE   O1215100   3.218   2.136  10.623 -0.1865  0.0355 -0.8804
  139SAPE   O1115101   3.142   2.014  10.413  0.7334  0.3019  0.2522
  139SAPE    C115102   3.000   1.999  10.446  0.4579 -0.4779  0.1482
  139SAPE    HA15103   2.974   1.891  10.437 -0.1318 -0.2273 -1.5548
  139SAPE    HB15104   2.977   2.032  10.550  0.6432 -0.5871  0.2245
  139SAPE    C215105   2.928   2.087  10.338 -0.3761  0.1204 -0.2348
  139SAPE    HS15106   2.822   2.061  10.360  0.1067  0.1787  2.5672
  139SAPE   O2115107   2.969   2.055  10.200  0.1476 -0.3268  0.6293
  139SAPE   C2115108   2.934   1.939  10.156 -0.4561  0.4009 -0.4125
  139SAPE   O2215109   2.862   1.861  10.217 -0.3119  0.2066  0.5619
  139SAPE   C2215110   3.022   1.902  10.036 -0.1864 -0.6506  0.4947
  139SAPE   H2R15111   3.005   1.992   9.973  0.9863 -1.2786 -0.7697
  139SAPE   H2S15112   3.126   1.888  10.071 -0.0243 -3.3905 -0.8106
  139SAPE    C315113   2.954   2.227  10.361  0.0258 -0.8711  0.6358
  139SAPE    HX15114   3.060   2.253  10.339  0.2047 -0.5871  1.8066
  139SAPE    HY15115   2.926   2.247  10.466 -0.3456 -0.9586  0.5535
  139SAPE   O3115116   2.857   2.308  10.286 -0.4376  0.5119  0.3324
  139SAPE   C3115117   2.889   2.436  10.258  0.3754 -0.1466  0.1453
  139SAPE   O3215118   2.996   2.490  10.279  0.1096 -0.1378 -0.0764
  139SAPE   C3215119   2.779   2.489  10.172  0.2078 -0.0604  0.0381
  139SAPE   H2X15120   2.682   2.478  10.224  0.5804 -1.1042  0.5400
  139SAPE   H2Y15121   2.759   2.431  10.079 -2.8919  2.6423 -1.1963
  139SAPE   C2315122   2.976   1.771   9.959  0.1330  0.3569 -0.1060
  139SAPE   H3R15123   2.871   1.793   9.930 -0.0280  3.1580  2.1947
  139SAPE   H3S15124   2.989   1.682  10.024 -0.5973 -0.5437 -1.1472
  139SAPE   C2415125   3.053   1.747   9.828  0.3089  0.0854  0.3570
  139SAPE   H4R15126   3.163   1.733   9.836  0.3058 -2.2127 -2.0598
  139SAPE   H4S15127   3.050   1.837   9.764  0.8820 -0.8913 -1.0950
  139SAPE   C2515128   2.990   1.632   9.753 -0.6419  0.1281 -0.1133
  139SAPE   H5R15129   2.986   1.535   9.806  0.0672 -0.8197 -1.7401
  139SAPE   C2615130   2.965   1.632   9.618 -0.1082 -0.2180  0.5401
  139SAPE   H6R15131   2.922   1.545   9.568  1.5820  0.3189 -2.0002
  139SAPE   C2715132   2.982   1.745   9.525 -0.4554 -0.2228  0.5415
  139SAPE   H7R15133   2.995   1.844   9.575  2.0618  0.5208 -1.3887
  139SAPE   H7S15134   2.885   1.757   9.472 -0.8316 -1.0947  1.0054
  139SAPE   C2815135   3.097   1.727   9.427  0.3585  0.7365  1.2751
  139SAPE   H8R15136   3.170   1.656   9.469  0.7614  0.5548  0.2957
  139SAPE   C2915137   3.115   1.792   9.311  0.0300  0.0885  0.6424
  139SAPE   H9R15138   3.200   1.755   9.253  0.1822  1.0468  0.2312
  139SAPE  C21015139   3.015   1.885   9.256  0.1856 -0.5935 -0.3754
  139SAPE  H10R15140   3.067   1.950   9.182  0.0516 -0.6951 -0.5616
  139SAPE  H10S15141   2.996   1.955   9.340  2.7817 -1.0714  0.7039
  139SAPE  C21115142   2.898   1.809   9.193 -0.1479  0.1683  0.2038
  139SAPE  H11R15143   2.857   1.730   9.259 -2.0545  1.4153  0.6066
  139SAPE  C21215144   2.849   1.819   9.064  0.3247 -0.2475 -0.1270
  139SAPE  H12R15145   2.785   1.741   9.020  1.1772 -1.3150  0.4663
  139SAPE  C21315146   2.901   1.912   8.962  0.0783 -0.5819  0.2349
  139SAPE  H13R15147   2.939   1.855   8.874 -1.4828  2.4032 -2.6010
  139SAPE  H13S15148   2.989   1.973   8.992  0.7788 -0.7868 -1.2848
  139SAPE  C21415149   2.794   1.999   8.914  0.3104 -0.1791  0.4592
  139SAPE  H14R15150   2.732   2.056   8.985  0.2175  3.7814 -2.4944
  139SAPE  C21515151   2.770   2.031   8.789 -0.6479 -0.2941 -0.8881
  139SAPE  H15R15152   2.680   2.089   8.763 -1.1232  0.1870  1.5787
  139SAPE  C21615153   2.848   1.979   8.674  0.4925 -0.0438  0.1114
  139SAPE  H16R15154   2.953   1.949   8.697 -0.1951 -2.2905  0.6173
  139SAPE  H16S15155   2.864   2.067   8.609 -2.2872  0.8247  0.4752
  139SAPE  C21715156   2.768   1.870   8.591  0.4869 -0.5945  0.1150
  139SAPE  H17R15157   2.829   1.855   8.499  1.2264  0.0733  0.4820
  139SAPE  H17S15158   2.672   1.907   8.550  1.5400  1.1291 -0.9491
  139SAPE  C21815159   2.742   1.746   8.680  0.5840 -0.1310  0.0697
  139SAPE  H18R15160   2.678   1.774   8.766 -1.3101  0.6651 -1.5337
  139SAPE  H18S15161   2.842   1.711   8.713  0.7479  0.0824 -0.1899
  139SAPE  C21915162   2.675   1.632   8.611 -0.1439 -0.1895  0.0102
  139SAPE  H19R15163   2.578   1.662   8.566 -0.7878  0.2906  1.6547
  139SAPE  H19S15164   2.663   1.549   8.684  1.0918 -0.8593 -0.5084
  139SAPE  C22015165   2.752   1.588   8.489  0.4239 -0.0050  1.2228
  139SAPE  H20R15166   2.715   1.488   8.461  0.9542 -0.1611  1.0606
  139SAPE  H20S15167   2.856   1.579   8.527  0.6754 -0.0762  0.5256
  139SAPE  H20T15168   2.742   1.656   8.402 -1.0773 -0.5413  0.9557
  139SAPE   C3315169   2.797   2.638  10.130 -0.2682 -0.1404  0.4865
  139SAPE   H3X15170   2.863   2.695  10.198 -0.2771 -0.0520  0.4214
  139SAPE   H3Y15171   2.696   2.685  10.129 -0.3965 -0.4084 -0.6447
  139SAPE   C3415172   2.855   2.650   9.987 -0.4953  0.0142 -0.5654
  139SAPE   H4X15173   2.948   2.589   9.989 -1.4808 -1.5389  1.2888
  139SAPE   H4Y15174   2.883   2.757   9.979 -0.4051  0.0135 -0.2750
  139SAPE   C3515175   2.760   2.619   9.869 -0.7621 -0.5038  0.1955
  139SAPE   H5X15176   2.675   2.690   9.874 -0.4767  0.0804 -1.9010
  139SAPE   H5Y15177   2.728   2.513   9.881  1.2466 -1.0171  1.6056
  139SAPE   C3615178   2.838   2.629   9.729  0.5259  0.7713  0.3430
  139SAPE   H6X15179   2.917   2.552   9.724  3.1911  3.3866 -1.0355
  139SAPE   H6Y15180   2.896   2.722   9.708  1.8979 -0.3104 -0.8787
  139SAPE   C3715181   2.735   2.608   9.605 -0.3535  0.0733 -0.2485
  139SAPE   H7X15182   2.662   2.686   9.632  0.4327  0.5246  0.6326
  139SAPE   H7Y15183   2.686   2.508   9.606 -1.5186  0.6305 -0.4486
  139SAPE   C3815184   2.789   2.644   9.470 -0.6384  0.3137 -0.2614
  139SAPE   H8X15185   2.846   2.558   9.430  2.6536  2.0709  0.2678
  139SAPE   H8Y15186   2.868   2.722   9.477 -0.1526 -0.2475  0.5978
  139SAPE   C3915187   2.685   2.679   9.365 -0.7007 -0.3799 -0.6144
  139SAPE   H9X15188   2.653   2.786   9.366  1.3947  0.2849 -1.0531
  139SAPE   H9Y15189   2.602   2.605   9.358  0.6339 -1.8851 -1.0850
  139SAPE  C31015190   2.751   2.670   9.227  0.0628 -0.1224 -0.1295
  139SAPE  H10X15191   2.661   2.675   9.162  0.3293  1.9108 -0.4253
  139SAPE  H10Y15192   2.799   2.572   9.208  0.2691  0.1192 -0.9288
  139SAPE  C31115193   2.847   2.793   9.211  0.2077  0.4799  0.3262
  139SAPE  H11X15194   2.945   2.780   9.262  1.1372  2.2636 -0.9036
  139SAPE  H11Y15195   2.797   2.875   9.266  3.0035  1.3109  1.8168
  139SAPE  C31215196   2.874   2.834   9.069 -0.2754 -0.8767  0.0706
  139SAPE  H12X15197   2.928   2.755   9.012 -0.6853  0.3952 -2.2413
  139SAPE  H12Y15198   2.952   2.913   9.064 -0.3747 -0.7312  0.7684
  139SAPE  C31315199   2.743   2.876   8.993 -0.0182 -0.5729 -0.5425
  139SAPE  H13X15200   2.693   2.963   9.041 -1.5990 -0.4201 -2.3056
  139SAPE  H13Y15201   2.671   2.793   8.976 -2.4050  1.3711 -0.6453
  139SAPE  C31415202   2.777   2.910   8.850 -0.3025 -0.0017 -0.1863
  139SAPE  H14X15203   2.681   2.924   8.794  0.1843  2.0580 -0.5948
  139SAPE  H14Y15204   2.831   2.828   8.797  1.0271  1.0391 -0.4980
  139SAPE  C31515205   2.851   3.042   8.854  0.4616  0.3855 -0.6226
  139SAPE  H15X15206   2.952   3.016   8.891  0.7758 -0.1240 -1.7919
  139SAPE  H15Y15207   2.804   3.112   8.926  1.5152  0.5626 -0.0947
  139SAPE  C31615208   2.861   3.109   8.723  0.4506  0.1297  0.4972
  139SAPE  H16X15209   2.885   3.033   8.645  1.2372 -1.6135  2.3597
  139SAPE  H16Y15210   2.764   3.158   8.699  1.4468  1.3066 -1.3992
  139SAPE  C31715211   2.952   3.228   8.724 -0.0911  0.0699 -0.3767
  139SAPE  H17X15212   3.052   3.201   8.764  0.1004  2.0270  0.5553
  139SAPE  H17Y15213   2.922   3.292   8.809  0.1228 -2.4101  1.6949
  139SAPE  C31815214   2.960   3.301   8.598 -0.6148  0.6538 -0.3641
  139SAPE  H18X15215   3.016   3.246   8.519 -0.7834 -1.2091  0.7460
  139SAPE  H18Y15216   3.019   3.392   8.623 -1.8117  1.4555 -0.3961
  139SAPE  H18Z15217   2.862   3.336   8.561  0.3421  1.0046 -2.7989
  140SAPE     N15218   2.926   6.368  11.069  0.5610 -0.1140  0.0780
  140SAPE   HN115219   2.935   6.464  11.106  0.9561 -1.0070  2.4662
  140SAPE   HN215220   2.931   6.373  10.965  1.9689  1.1561  0.1720
  140SAPE   HN315221   2.827   6.340  11.086  0.4348 -1.2300 -2.0962
  140SAPE   C1215222   3.042   6.277  11.116  0.3837 -0.1277 -0.6010
  140SAPE  H12A15223   2.997   6.186  11.161  1.4028 -0.3135  0.0854
  140SAPE  H12B15224   3.096   6.337  11.192 -1.4635 -0.2927  0.9293
  140SAPE   C1115225   3.121   6.224  10.999 -0.2270 -0.6676  0.7950
  140SAPE  H11A15226   3.188   6.142  11.035  1.2785 -0.8121 -2.0402
  140SAPE  H11B15227   3.187   6.299  10.950  0.2204  0.4600  2.9970
  140SAPE     P15228   3.000   6.015  10.888  0.1381 -0.0085  0.4737
  140SAPE   O1315229   2.969   5.964  11.022  0.6140  0.6432 -0.6062
  140SAPE   O1415230   2.894   5.999  10.790  0.1909  0.0398 -0.0589
  140SAPE   O1215231   3.029   6.168  10.901  0.2675 -0.0625  0.6477
  140SAPE   O1115232   3.143   5.958  10.843  0.5482  0.9429 -0.1224
  140SAPE    C115233   3.228   6.039  10.754  0.7808 -0.0955 -0.0219
  140SAPE    HA15234   3.251   6.138  10.799  0.0433 -0.3539  0.9543
  140SAPE    HB15235   3.321   5.980  10.743  2.2893  2.4458 -1.8719
  140SAPE    C215236   3.173   6.061  10.611 -0.1603  0.4270 -0.2638
  140SAPE    HS15237   3.070   6.102  10.624  0.2637  1.9216 -1.3185
  140SAPE   O2115238   3.155   5.932  10.550 -0.0162  0.4886 -0.4045
  140SAPE   C2115239   3.082   5.926  10.438 -0.1330  0.3391  0.0920
  140SAPE   O2215240   3.010   6.014  10.396  0.1133 -0.1145 -0.8030
  140SAPE   C2215241   3.110   5.792  10.372 -0.9167 -0.4011 -0.2756
  140SAPE   H2R15242   3.218   5.792  10.345 -1.0796  0.9798 -1.0280
  140SAPE   H2S15243   3.087   5.719  10.452  2.6087  0.6653  1.9190
  140SAPE    C315244   3.261   6.163  10.532 -0.4675 -0.1213  0.4042
  140SAPE    HX15245   3.353   6.117  10.490 -1.0775  0.2546 -1.4179
  140SAPE    HY15246   3.283   6.245  10.604  0.0309 -0.5086  0.7014
  140SAPE   O3115247   3.195   6.215  10.410 -0.8088 -0.2971  0.4334
  140SAPE   C3115248   3.088   6.302  10.417  0.0303  0.1899 -0.2486
  140SAPE   O3215249   3.012   6.325  10.507 -0.7013 -0.1119 -0.2388
  140SAPE   C3215250   3.078   6.331  10.269  0.1091 -0.1862  0.7135
  140SAPE   H2X15251   2.980   6.290  10.235 -0.2610 -0.8116  2.4490
  140SAPE   H2Y15252   3.148   6.271  10.208 -0.3987 -0.6098  0.5347
  140SAPE   C2315253   3.033   5.781  10.241 -0.3381  0.0895  0.1732
  140SAPE   H3R15254   2.924   5.795  10.257 -0.3375  2.7581 -1.5047
  140SAPE   H3S15255   3.044   5.681  10.195 -2.6347 -0.0932 -0.0649
  140SAPE   C2415256   3.078   5.873  10.121  0.3013  0.1235 -0.2356
  140SAPE   H4R15257   3.180   5.850  10.082  0.9171 -0.2162  1.4815
  140SAPE   H4S15258   3.084   5.977  10.160  2.4090  0.0377 -0.1992
  140SAPE   C2515259   2.995   5.858  10.003  0.0944 -0.4812  0.4934
  140SAPE   H5R15260   2.914   5.784  10.016 -0.2247 -0.2619 -0.1492
  140SAPE   C2615261   3.020   5.918   9.885 -0.1634  0.2301  0.1571
  140SAPE   H6R15262   2.936   5.910   9.813 -1.4562 -0.7122  1.7010
  140SAPE   C2715263   3.135   6.011   9.855  0.2950  0.4681 -0.4160
  140SAPE   H7R15264   3.175   5.982   9.755  1.4926 -2.4558  0.7900
  140SAPE   H7S15265   3.221   5.993   9.923  1.0207  1.1257 -1.1303
  140SAPE   C2815266   3.094   6.151   9.856  0.0401 -0.5707 -0.2642
  140SAPE   H8R15267   3.064   6.184   9.956  1.7188 -1.5706  0.6105
  140SAPE   C2915268   3.087   6.235   9.752 -0.3803  0.2093 -0.3833
  140SAPE   H9R15269   3.062   6.340   9.775 -0.6469  0.1294 -0.3064
  140SAPE  C21015270   3.121   6.204   9.610 -0.2347 -0.5007 -0.3195
  140SAPE  H10R15271   3.164   6.103   9.595  2.3223  0.3432  0.6906
  140SAPE  H10S15272   3.201   6.274   9.576  0.0628 -0.6895 -0.0200
  140SAPE  C21115273   3.003   6.218   9.525 -0.6510  0.0801  0.1419
  140SAPE  H11R15274   2.954   6.316   9.524  0.0490  0.4280 -0.2332
  140SAPE  C21215275   2.934   6.120   9.464 -0.3236 -1.0274  0.1480
  140SAPE  H12R15276   2.857   6.162   9.398 -1.6538  0.0512  2.2770
  140SAPE  C21315277   2.967   5.976   9.450 -0.9085 -0.2894 -0.6862
  140SAPE  H13R15278   2.873   5.918   9.447 -2.2254  1.6210  1.0177
  140SAPE  H13S15279   3.019   5.945   9.543  0.2950  0.0118 -1.2389
  140SAPE  C21415280   3.064   5.945   9.336  0.1179 -0.8038  0.5450
  140SAPE  H14R15281   3.137   6.026   9.321 -0.6606 -0.2370 -0.2739
  140SAPE  C21515282   3.066   5.844   9.253  0.0733  0.0618  0.2909
  140SAPE  H15R15283   3.129   5.853   9.163  0.6675 -2.8848  0.3117
  140SAPE  C21615284   2.969   5.731   9.259  0.3856  1.0823 -0.5633
  140SAPE  H16R15285   2.942   5.711   9.365 -0.0184 -0.5303 -0.9342
  140SAPE  H16S15286   3.034   5.646   9.227  1.7020  1.5662  0.6897
  140SAPE  C21715287   2.853   5.743   9.163 -0.2859  0.2442 -0.0122
  140SAPE  H17R15288   2.784   5.819   9.205  0.2401  2.2430 -2.5521
  140SAPE  H17S15289   2.809   5.644   9.139 -0.6623  0.4832 -0.3187
  140SAPE  C21815290   2.881   5.805   9.021 -0.1699  0.8193 -0.0625
  140SAPE  H18R15291   2.898   5.914   9.034 -0.1349  0.8708 -0.5050
  140SAPE  H18S15292   2.785   5.796   8.966 -0.4351  1.7893  0.2195
  140SAPE  C21915293   2.995   5.740   8.937 -0.3703  0.0911  0.1852
  140SAPE  H19R15294   2.992   5.629   8.948  1.4407  0.0013  0.0183
  140SAPE  H19S15295   3.091   5.759   8.990  1.2737 -3.6042 -1.0991
  140SAPE  C22015296   3.006   5.800   8.799 -0.4362 -0.5230  0.0741
  140SAPE  H20R15297   3.079   5.746   8.736 -0.2969 -0.8600  0.5223
  140SAPE  H20S15298   3.038   5.906   8.810 -0.0428 -0.7871  1.6510
  140SAPE  H20T15299   2.910   5.789   8.744  0.5901 -0.8395 -1.7354
  140SAPE   C3315300   3.092   6.483  10.235 -0.6303  0.0995  0.6761
  140SAPE   H3X15301   3.199   6.513  10.231 -0.4698 -0.6131 -1.3149
  140SAPE   H3Y15302   3.034   6.552  10.300 -2.0819  0.8600 -1.3594
  140SAPE   C3415303   3.027   6.508  10.099  0.5825  0.7299 -0.6586
  140SAPE   H4X15304   2.924   6.467  10.104  0.3721  1.2813  3.9449
  140SAPE   H4Y15305   3.089   6.452  10.027  0.8360 -0.6264  0.5560
  140SAPE   C3515306   3.008   6.656  10.074  0.1218 -0.7550  0.1296
  140SAPE   H5X15307   3.108   6.703  10.070  0.1921 -0.9536 -0.7814
  140SAPE   H5Y15308   2.945   6.705  10.151 -3.2435 -0.5780 -2.5066
  140SAPE   C3615309   2.930   6.691   9.946 -0.5525  0.3289 -0.2379
  140SAPE   H6X15310   2.893   6.796   9.941 -0.0911  0.5628  1.0280
  140SAPE   H6Y15311   2.835   6.634   9.957 -1.2317  1.6373  0.9665
  140SAPE   C3715312   3.019   6.663   9.822 -0.3008 -0.7932 -0.0657
  140SAPE   H7X15313   3.024   6.556   9.791 -1.5271 -0.3823 -1.8678
  140SAPE   H7Y15314   3.122   6.703   9.832  0.1413 -1.8741 -0.0776
  140SAPE   C3815315   2.956   6.738   9.708  0.4846  0.8495 -0.3465
  140SAPE   H8X15316   2.980   6.846   9.703 -3.1800  1.7247 -1.7987
  140SAPE   H8Y15317   2.848   6.743   9.729  0.5627  1.0254  0.0141
  140SAPE   C3915318   2.964   6.673   9.566 -0.5570  0.0207 -0.2024
  140SAPE   H9X15319   2.936   6.757   9.499  0.3172  1.4871  1.1777
  140SAPE   H9Y15320   2.885   6.595   9.568  1.2811 -1.9127  1.1643
  140SAPE  C31015321   3.107   6.619   9.537  0.0394 -0.2215  0.2812
  140SAPE  H10X15322   3.130   6.527   9.593  0.1280 -0.8235 -0.7285
  140SAPE  H10Y15323   3.185   6.696   9.558 -0.7593  0.7324 -0.1211
  140SAPE  C31115324   3.131   6.598   9.387 -0.1229 -0.0082  0.2501
  140SAPE  H11X15325   3.037   6.561   9.343 -0.3349  1.5586 -0.7039
  140SAPE  H11Y15326   3.213   6.523   9.385 -0.0767 -0.1595  2.9874
  140SAPE  C31215327   3.189   6.723   9.312 -0.1978  0.0863 -0.8412
  140SAPE  H12X15328   3.291   6.746   9.348 -0.4923  0.4191 -0.1937
  140SAPE  H12Y15329   3.114   6.802   9.337 -1.1048 -0.5142 -1.6067
  140SAPE  C31315330   3.175   6.704   9.157  0.0863 -0.3878 -0.7612
  140SAPE  H13X15331   3.067   6.725   9.145 -1.2039 -1.7037  5.2782
  140SAPE  H13Y15332   3.189   6.603   9.113 -1.4422 -0.4931 -1.0574
  140SAPE  C31415333   3.258   6.798   9.070  0.0348  0.2599 -0.2549
  140SAPE  H14X15334   3.359   6.754   9.084  0.1370  0.1415 -1.2657
  140SAPE  H14Y15335   3.247   6.900   9.111 -0.9489  0.2257 -0.4092
  140SAPE  C31515336   3.210   6.786   8.926 -1.0026  0.6665  0.4631
  140SAPE  H15X15337   3.110   6.831   8.906 -2.0636 -0.8870  2.0083
  140SAPE  H15Y15338   3.199   6.678   8.902 -2.5616  1.1567 -1.2894
  140SAPE  C31615339   3.315   6.826   8.823  0.4981 -0.0762  0.1065
  140SAPE  H16X15340   3.420   6.797   8.847 -0.0354 -1.9648  0.2901
  140SAPE  H16Y15341   3.313   6.937   8.822 -0.0404 -0.0831 -0.8983
  140SAPE  C31715342   3.287   6.794   8.676  0.2867 -0.0154  0.5788
  140SAPE  H17X15343   3.187   6.840   8.659 -0.7066 -2.5378 -1.1192
  140SAPE  H17Y15344   3.270   6.686   8.658 -0.5317  0.2142 -0.0851
  140SAPE  C31815345   3.389   6.863   8.581 -0.3285  0.6448 -1.0040
  140SAPE  H18X15346   3.345   6.856   8.479 -3.4183 -0.7290  0.3153
  140SAPE  H18Y15347   3.488   6.813   8.584  1.3372  3.7462  0.8529
  140SAPE  H18Z15348   3.416   6.967   8.612  1.1262 -0.6566  2.5194
  141SAPE     N15349   3.632   3.945  10.869  0.6885  0.1988 -0.1403
  141SAPE   HN115350   3.724   3.930  10.915 -0.4382 -0.3135  2.1099
  141SAPE   HN215351   3.640   3.964  10.767  1.8199  0.3682 -0.0322
  141SAPE   HN315352   3.600   4.034  10.914 -0.8851  0.1703 -1.1351
  141SAPE   C1215353   3.539   3.830  10.887 -0.0864 -0.4277  0.0386
  141SAPE  H12A15354   3.545   3.789  10.990 -0.9042  1.1767  0.7686
  141SAPE  H12B15355   3.573   3.744  10.826  0.9157 -1.9505  2.5928
  141SAPE   C1115356   3.394   3.871  10.854 -0.3532 -0.0789  0.3622
  141SAPE  H11A15357   3.387   3.897  10.746  0.3437 -0.7654  0.1474
  141SAPE  H11B15358   3.364   3.962  10.910  0.7093  1.0086 -0.7571
  141SAPE     P15359   3.155   3.763  10.855  0.3510 -0.1170  0.5434
  141SAPE   O1315360   3.095   3.769  10.993  0.9201  0.9174  0.0765
  141SAPE   O1415361   3.127   3.879  10.761  0.1904  0.1818  0.0974
  141SAPE   O1215362   3.308   3.762  10.878  0.1036 -0.3481  0.2303
  141SAPE   O1115363   3.134   3.613  10.798 -0.4797  0.2769 -0.3059
  141SAPE    C115364   3.231   3.548  10.715  0.3687 -0.3260 -0.8052
  141SAPE    HA15365   3.329   3.598  10.724  0.1449 -0.1032  0.6667
  141SAPE    HB15366   3.246   3.444  10.752  1.3126  0.7608  2.1112
  141SAPE    C215367   3.181   3.550  10.564 -0.0363  0.1806 -0.0702
  141SAPE    HS15368   3.230   3.481  10.493 -1.3002  1.1316 -1.9511
  141SAPE   O2115369   3.196   3.683  10.523 -0.3653  0.0122 -0.7088
  141SAPE   C2115370   3.321   3.710  10.479 -0.5834  0.5373  0.2041
  141SAPE   O2215371   3.411   3.624  10.471  0.4160  0.1565  0.1890
  141SAPE   C2215372   3.317   3.863  10.442 -0.0855  0.3042  0.0979
  141SAPE   H2R15373   3.209   3.886  10.434  0.1360  1.3914  0.1242
  141SAPE   H2S15374   3.356   3.911  10.535  4.2379 -2.9982  0.3378
  141SAPE    C315375   3.031   3.518  10.550 -0.3541 -0.3783  0.1219
  141SAPE    HX15376   2.955   3.588  10.591 -0.7957 -1.0361  0.4244
  141SAPE    HY15377   3.012   3.429  10.613 -1.4358 -0.6972 -0.6188
  141SAPE   O3115378   2.996   3.488  10.415 -0.4832  0.6205 -0.2546
  141SAPE   C3115379   2.965   3.591  10.338 -0.3334  0.0684  0.4379
  141SAPE   O3215380   2.958   3.708  10.370  0.4012 -0.3233 -0.2473
  141SAPE   C3215381   2.950   3.546  10.193  0.1991  0.2007 -0.1922
  141SAPE   H2X15382   2.840   3.552  10.176 -0.0837  1.1635  1.6745
  141SAPE   H2Y15383   2.968   3.437  10.181 -2.3220 -0.1702 -1.2068
  141SAPE   C2315384   3.399   3.896  10.316 -0.0122  0.1953 -0.8906
  141SAPE   H3R15385   3.501   3.857  10.335 -0.7602 -1.7984 -0.7556
  141SAPE   H3S15386   3.389   4.006  10.322 -0.4581  0.0740  1.7603
  141SAPE   C2415387   3.354   3.848  10.175  0.7397  0.1609  0.9186
  141SAPE   H4R15388   3.366   3.915  10.087 -0.3669  0.1006  0.7039
  141SAPE   H4S15389   3.246   3.829  10.194  0.3767  1.6995  0.4976
  141SAPE   C2515390   3.413   3.711  10.142 -0.1953  0.0563  0.1942
  141SAPE   H5R15391   3.374   3.623  10.196 -0.6910 -1.6983 -2.8203
  141SAPE   C2615392   3.489   3.680  10.034 -0.1856 -0.2106  0.1217
  141SAPE   H6R15393   3.520   3.577  10.011 -0.3036 -0.0561 -0.7759
  141SAPE   C2715394   3.548   3.777   9.931  0.2977 -0.1836 -0.1092
  141SAPE   H7R15395   3.654   3.744   9.928  0.2820 -0.3102  0.5466
  141SAPE   H7S15396   3.541   3.883   9.963  0.1863 -0.0346 -0.6298
  141SAPE   C2815397   3.491   3.770   9.796  0.2371  0.8386 -0.5838
  141SAPE   H8R15398   3.459   3.668   9.774  1.0662  0.6570 -0.9795
  141SAPE   C2915399   3.476   3.870   9.711  0.4325 -0.1125  0.0526
  141SAPE   H9R15400   3.432   3.863   9.610  1.5571  3.6716 -0.8473
  141SAPE  C21015401   3.502   4.019   9.729 -0.9796  0.5433  0.0862
  141SAPE  H10R15402   3.486   4.047   9.835 -1.6725  0.4015  0.0193
  141SAPE  H10S15403   3.426   4.080   9.677  0.5661  2.1478 -0.3862
  141SAPE  C21115404   3.643   4.053   9.681  0.1957 -0.8276  0.4625
  141SAPE  H11R15405   3.720   4.049   9.760 -0.3207 -2.4809  0.9426
  141SAPE  C21215406   3.676   4.066   9.550 -0.1891 -0.8450 -0.3307
  141SAPE  H12R15407   3.780   4.085   9.519 -0.6142  0.6010 -0.9567
  141SAPE  C21315408   3.591   4.060   9.428  0.3218  0.3369  0.1313
  141SAPE  H13R15409   3.547   4.156   9.395 -2.4677 -1.3271 -1.4582
  141SAPE  H13S15410   3.505   3.992   9.446  0.5447  0.3877  1.4092
  141SAPE  C21415411   3.657   3.997   9.306  0.0106 -0.3134 -0.1181
  141SAPE  H14R15412   3.695   3.894   9.320 -1.1736 -0.4931  2.3725
  141SAPE  C21515413   3.700   4.062   9.198  0.1872  0.1612  0.2162
  141SAPE  H15R15414   3.742   3.993   9.124 -1.6361 -1.3681  0.5211
  141SAPE  C21615415   3.682   4.205   9.166 -0.3966 -0.6309  0.3477
  141SAPE  H16R15416   3.772   4.244   9.115  0.2730 -0.7650  1.4080
  141SAPE  H16S15417   3.672   4.262   9.260 -3.1285 -0.0706 -0.1813
  141SAPE  C21715418   3.552   4.220   9.087  0.7789 -0.5367  0.5364
  141SAPE  H17R15419   3.472   4.152   9.123  0.3617 -0.3522 -0.0330
  141SAPE  H17S15420   3.563   4.197   8.979 -0.8497 -0.4519  0.3366
  141SAPE  C21815421   3.491   4.357   9.090 -0.1099  0.0238  0.0115
  141SAPE  H18R15422   3.561   4.444   9.091 -0.1359  0.0425  0.2562
  141SAPE  H18S15423   3.439   4.354   9.188  2.1547 -1.9874  1.2521
  141SAPE  C21915424   3.390   4.389   8.981  0.4955 -0.4786 -0.6167
  141SAPE  H19R15425   3.314   4.310   8.999 -0.0726  0.4495  1.3252
  141SAPE  H19S15426   3.421   4.372   8.876 -0.0466  1.6235 -1.1708
  141SAPE  C22015427   3.323   4.526   8.996 -0.0929  0.7073  0.1989
  141SAPE  H20R15428   3.271   4.527   9.095  0.1442  1.8466  0.3204
  141SAPE  H20S15429   3.258   4.564   8.915 -0.7972 -0.0375  0.3927
  141SAPE  H20T15430   3.405   4.600   9.007  1.0138 -0.5020  0.3849
  141SAPE   C3315431   3.028   3.639  10.097  0.6457  0.2144 -0.7667
  141SAPE   H3X15432   3.128   3.625  10.142  0.2702 -2.7512 -0.6344
  141SAPE   H3Y15433   2.989   3.743  10.102 -0.9526 -0.3932  0.3404
  141SAPE   C3415434   3.015   3.593   9.949  0.3633 -0.1724 -0.0606
  141SAPE   H4X15435   2.911   3.602   9.911 -0.3335 -2.2311  1.1771
  141SAPE   H4Y15436   3.034   3.484   9.938  3.3049 -0.0327  2.3745
  141SAPE   C3515437   3.110   3.676   9.852  0.8074 -0.1991  0.3342
  141SAPE   H5X15438   3.208   3.649   9.898  1.6280  0.2970 -1.0427
  141SAPE   H5Y15439   3.093   3.785   9.857 -0.7776 -0.3630 -0.7613
  141SAPE   C3615440   3.113   3.616   9.706  0.8639  0.7121 -0.0122
  141SAPE   H6X15441   3.100   3.506   9.708  0.8985  0.6645  3.4571
  141SAPE   H6Y15442   3.205   3.653   9.655  0.0434  0.1891 -1.9815
  141SAPE   C3715443   2.999   3.666   9.610  0.5108  0.1234 -0.3675
  141SAPE   H7X15444   2.990   3.775   9.626 -1.5447 -0.2921  1.9099
  141SAPE   H7Y15445   2.898   3.626   9.636 -0.5198  1.9761 -1.3440
  141SAPE   C3815446   3.025   3.638   9.464  0.1009  0.1782 -0.2308
  141SAPE   H8X15447   3.023   3.527   9.458 -1.0977 -0.0557  2.7458
  141SAPE   H8Y15448   3.133   3.662   9.453 -0.0108  0.2687 -1.3286
  141SAPE   C3915449   2.945   3.705   9.365 -0.3756 -0.5339  0.2980
  141SAPE   H9X15450   2.960   3.815   9.371 -0.9186 -0.2432 -2.4755
  141SAPE   H9Y15451   2.836   3.682   9.368 -1.0512  2.3934  0.8440
  141SAPE  C31015452   3.004   3.682   9.224 -0.1694  0.0863  0.3570
  141SAPE  H10X15453   3.037   3.578   9.207 -0.7747 -0.0840  0.2009
  141SAPE  H10Y15454   3.094   3.746   9.215 -1.5721  2.2773  1.0249
  141SAPE  C31115455   2.903   3.717   9.113 -0.3109 -0.0033  0.2586
  141SAPE  H11X15456   2.864   3.819   9.130 -1.5758 -0.5758  0.9732
  141SAPE  H11Y15457   2.811   3.657   9.127  0.1103 -0.5252  0.8810
  141SAPE  C31215458   2.960   3.690   8.970 -0.0839  0.2893 -0.0388
  141SAPE  H12X15459   3.007   3.590   8.976  1.1556  0.9485  2.4376
  141SAPE  H12Y15460   3.042   3.763   8.957 -0.4587  1.0919  1.7263
  141SAPE  C31315461   2.863   3.706   8.853 -0.0188  0.0142 -0.2746
  141SAPE  H13X15462   2.823   3.808   8.871 -1.4677 -0.9617  2.5959
  141SAPE  H13Y15463   2.784   3.628   8.865 -0.5921  0.4743 -0.9328
  141SAPE  C31415464   2.938   3.696   8.715  0.1421 -0.0154 -0.5812
  141SAPE  H14X15465   2.991   3.599   8.724 -2.0950 -1.3142 -0.6673
  141SAPE  H14Y15466   3.020   3.770   8.702  0.6480 -0.2312  1.1440
  141SAPE  C31515467   2.844   3.705   8.596 -0.4276  0.5802  0.3861
  141SAPE  H15X15468   2.804   3.808   8.588 -1.4416  0.0436 -2.8918
  141SAPE  H15Y15469   2.776   3.622   8.623  1.2835 -0.7152  0.9340
  141SAPE  C31615470   2.919   3.672   8.464  0.8446 -0.2642  0.9104
  141SAPE  H16X15471   2.832   3.662   8.395 -1.1109  3.1699  2.5830
  141SAPE  H16Y15472   2.972   3.575   8.478  1.8744 -0.2107 -1.9472
  141SAPE  C31715473   3.020   3.785   8.423 -0.2846  0.4839 -0.0765
  141SAPE  H17X15474   3.076   3.765   8.330 -0.9727 -0.8235 -0.2318
  141SAPE  H17Y15475   3.091   3.809   8.505  1.3391  1.7643 -1.7990
  141SAPE  C31815476   2.944   3.911   8.390  0.4510 -0.7132  0.2587
  141SAPE  H18X15477   2.856   3.888   8.325 -1.0149  0.8786  1.5886
  141SAPE  H18Y15478   3.012   3.985   8.342 -0.8211  0.3448  0.0170
  141SAPE  H18Z15479   2.906   3.957   8.484  0.7509 -0.6348  0.3430
  142SAPE     N15480   3.707   5.510  11.093  0.4676  0.4872 -0.0802
  142SAPE   HN115481   3.768   5.477  11.170 -1.6738 -0.2003  1.3878
  142SAPE   HN215482   3.739   5.609  11.081 -1.9440  1.1121 -2.5645
  142SAPE   HN315483   3.611   5.523  11.128  0.7433  0.5184  0.6718
  142SAPE   C1215484   3.731   5.427  10.961  0.0197 -1.2310  0.1327
  142SAPE  H12A15485   3.671   5.476  10.881  0.9461  0.5156  0.4531
  142SAPE  H12B15486   3.683   5.330  10.984 -0.7168 -0.8597  0.1738
  142SAPE   C1115487   3.886   5.415  10.924  0.1848  0.2110 -0.2471
  142SAPE  H11A15488   3.926   5.513  10.891  0.1840  0.4928  0.5625
  142SAPE  H11B15489   3.894   5.351  10.834 -2.1426  1.6777 -1.5920
  142SAPE     P15490   3.962   5.236  11.102 -0.3321  0.2709  0.1547
  142SAPE   O1315491   4.090   5.229  11.177  0.8507  0.7771  0.1777
  142SAPE   O1415492   3.837   5.225  11.178 -0.0883 -0.8720  0.0866
  142SAPE   O1215493   3.970   5.372  11.033 -0.5166 -0.3714 -0.0827
  142SAPE   O1115494   3.962   5.120  10.988  0.2638  0.3814  0.0729
  142SAPE    C115495   4.072   5.111  10.897 -0.2805 -0.2168  1.5294
  142SAPE    HA15496   4.145   5.193  10.910 -0.8100  0.9432 -1.8042
  142SAPE    HB15497   4.114   5.008  10.906 -2.1244 -1.2493 -0.4818
  142SAPE    C215498   4.037   5.118  10.739  0.3264  0.1284 -0.4589
  142SAPE    HS15499   4.008   5.223  10.715  0.5441 -0.3835 -3.2983
  142SAPE   O2115500   3.946   5.015  10.708  0.5448 -0.3465 -0.0806
  142SAPE   C2115501   3.827   5.053  10.680  0.1946  0.3290  0.5847
  142SAPE   O2215502   3.788   5.170  10.687  0.5465  0.0340 -0.0634
  142SAPE   C2215503   3.744   4.948  10.616  0.4150  0.0789  0.3137
  142SAPE   H2R15504   3.799   4.853  10.601  1.1284  0.8265 -2.3308
  142SAPE   H2S15505   3.658   4.931  10.684  0.7574 -1.9531  0.3007
  142SAPE    C315506   4.166   5.098  10.660  0.7433  0.1126 -0.1763
  142SAPE    HX15507   4.144   5.083  10.552  1.4622 -2.5483 -0.0420
  142SAPE    HY15508   4.217   5.009  10.704  0.0632  0.0319  0.4543
  142SAPE   O3115509   4.249   5.216  10.679 -0.3645 -0.0111  0.5540
  142SAPE   C3115510   4.362   5.210  10.605  0.0857 -1.0801 -0.2579
  142SAPE   O3215511   4.395   5.114  10.541 -0.6513 -0.0893 -0.0654
  142SAPE   C3215512   4.428   5.345  10.610 -0.1381  0.3081 -0.1702
  142SAPE   H2X15513   4.502   5.339  10.693  1.5864 -0.1817 -1.6737
  142SAPE   H2Y15514   4.348   5.421  10.619 -3.3810 -2.7214 -0.7936
  142SAPE   C2315515   3.681   4.998  10.480  0.3692 -0.4278 -0.3230
  142SAPE   H3R15516   3.740   5.051  10.402 -1.7990  2.1515 -0.3678
  142SAPE   H3S15517   3.622   5.079  10.528 -1.4522 -1.4684 -0.6812
  142SAPE   C2415518   3.586   4.899  10.408 -0.0336  0.4586  0.1531
  142SAPE   H4R15519   3.535   4.959  10.330 -1.2630  2.0944  2.1183
  142SAPE   H4S15520   3.504   4.867  10.476 -0.7350  0.7060 -0.5639
  142SAPE   C2515521   3.670   4.795  10.341 -0.6162 -0.5015  0.9715
  142SAPE   H5R15522   3.702   4.700  10.388 -2.1971 -1.8267 -0.4994
  142SAPE   C2615523   3.711   4.809  10.209  0.7428  0.7690 -0.0763
  142SAPE   H6R15524   3.776   4.729  10.172 -0.9922 -0.5598 -0.3763
  142SAPE   C2715525   3.670   4.912  10.111 -0.2122  0.3718  0.5011
  142SAPE   H7R15526   3.765   4.932  10.057 -0.7012  0.1172 -0.4687
  142SAPE   H7S15527   3.645   5.005  10.166  1.5782  0.8765  0.5094
  142SAPE   C2815528   3.555   4.890  10.017  0.4453 -0.9389 -0.7400
  142SAPE   H8R15529   3.466   4.856  10.070 -0.2678  0.7840 -0.7567
  142SAPE   C2915530   3.548   4.909   9.882 -0.0234 -0.6658 -0.3060
  142SAPE   H9R15531   3.451   4.894   9.834 -0.1859 -1.7900  0.3520
  142SAPE  C21015532   3.657   4.948   9.788 -0.1556 -0.0280 -0.0783
  142SAPE  H10R15533   3.754   4.929   9.840  0.8105  0.3878 -1.6531
  142SAPE  H10S15534   3.655   5.059   9.790  0.6080 -0.0136  0.6401
  142SAPE  C21115535   3.640   4.890   9.649 -0.8759 -0.1104 -0.3772
  142SAPE  H11R15536   3.674   4.786   9.633  1.3349  0.7884 -2.1555
  142SAPE  C21215537   3.606   4.960   9.538  0.6214 -0.5619  0.4606
  142SAPE  H12R15538   3.586   4.919   9.438 -2.5520  0.3064  0.6209
  142SAPE  C21315539   3.583   5.113   9.522 -0.0505  0.2853  0.5220
  142SAPE  H13R15540   3.682   5.144   9.484 -0.5730  0.0215 -1.1586
  142SAPE  H13S15541   3.564   5.170   9.616  3.0431  1.7742  0.3443
  142SAPE  C21415542   3.479   5.142   9.412  0.3504  0.6340  0.0445
  142SAPE  H14R15543   3.511   5.136   9.307 -1.6357  1.4511 -0.6519
  142SAPE  C21515544   3.352   5.181   9.436 -0.0721  0.2845  0.0747
  142SAPE  H15R15545   3.285   5.189   9.349 -2.4394 -1.5070  1.6094
  142SAPE  C21615546   3.291   5.198   9.573  0.3051 -0.0563  0.4439
  142SAPE  H16R15547   3.350   5.149   9.655 -0.1644 -0.9315  0.2707
  142SAPE  H16S15548   3.201   5.133   9.571  0.2899 -0.0541  0.8320
  142SAPE  C21715549   3.260   5.344   9.613 -0.1831 -0.6460  0.0865
  142SAPE  H17R15550   3.357   5.398   9.613 -1.0832  1.0935 -1.0716
  142SAPE  H17S15551   3.218   5.344   9.716 -0.7315 -1.1804 -0.1260
  142SAPE  C21815552   3.174   5.414   9.511  0.0990 -0.3688  0.0205
  142SAPE  H18R15553   3.111   5.334   9.468  2.0038 -1.2642 -1.2692
  142SAPE  H18S15554   3.227   5.446   9.418 -0.0061  1.8239  0.6742
  142SAPE  C21915555   3.098   5.531   9.564 -0.7190 -0.4439  0.6279
  142SAPE  H19R15556   3.025   5.501   9.643 -0.1438 -2.1244  0.5753
  142SAPE  H19S15557   3.058   5.570   9.468 -0.9365  1.1309  1.3391
  142SAPE  C22015558   3.183   5.639   9.631 -0.0021  0.7824 -0.1000
  142SAPE  H20R15559   3.139   5.739   9.645  1.1396  1.3197 -0.2274
  142SAPE  H20S15560   3.264   5.654   9.556  0.1015 -0.4194 -0.2546
  142SAPE  H20T15561   3.229   5.606   9.727  0.5771  0.3617 -0.5080
  142SAPE   C3315562   4.499   5.380  10.480 -0.7256 -0.1291 -0.7376
  142SAPE   H3X15563   4.585   5.315  10.453  0.0451  0.3785  0.3905
  142SAPE   H3Y15564   4.544   5.481  10.494 -1.3953 -0.0712  1.3921
  142SAPE   C3415565   4.397   5.383  10.362 -0.5276 -0.4499 -0.0014
  142SAPE   H4X15566   4.305   5.435  10.398 -0.7427 -0.6325 -0.2795
  142SAPE   H4Y15567   4.366   5.286  10.319  0.6090 -0.7671 -0.1130
  142SAPE   C3515568   4.440   5.465  10.238  0.0642  0.3686  0.1316
  142SAPE   H5X15569   4.525   5.411  10.190 -0.1321  0.6719 -0.5734
  142SAPE   H5Y15570   4.475   5.568  10.260 -0.2232  0.6443 -0.6630
  142SAPE   C3615571   4.332   5.472  10.125  0.4642  0.4206  0.2337
  142SAPE   H6X15572   4.247   5.539  10.150 -0.7322 -0.2762 -1.7765
  142SAPE   H6Y15573   4.292   5.368  10.118 -1.6849  1.2299 -0.2602
  142SAPE   C3715574   4.390   5.515   9.991 -0.1355  0.5793  0.7443
  142SAPE   H7X15575   4.486   5.462   9.974 -0.2235 -0.1933  2.4134
  142SAPE   H7Y15576   4.407   5.624  10.000 -2.0396  0.9348  0.4908
  142SAPE   C3815577   4.302   5.484   9.864  0.2387 -0.2704 -0.2136
  142SAPE   H8X15578   4.212   5.549   9.871 -0.7508 -1.5154 -1.0252
  142SAPE   H8Y15579   4.256   5.384   9.874  0.8807 -0.9394 -3.0931
  142SAPE   C3915580   4.362   5.533   9.727  0.0334 -0.4304 -0.5393
  142SAPE   H9X15581   4.465   5.493   9.721 -0.1653 -0.9113 -0.8318
  142SAPE   H9Y15582   4.376   5.643   9.719  0.2026 -0.3337  0.8222
  142SAPE  C31015583   4.299   5.483   9.599 -0.2773 -0.1503  0.3101
  142SAPE  H10X15584   4.191   5.505   9.591 -0.3276 -0.5884 -0.3423
  142SAPE  H10Y15585   4.294   5.372   9.601 -1.5544 -0.0886  1.1488
  142SAPE  C31115586   4.376   5.539   9.478  1.2286 -0.2726 -0.8540
  142SAPE  H11X15587   4.483   5.509   9.484  0.2802 -3.9894 -0.0041
  142SAPE  H11Y15588   4.390   5.649   9.484  0.9300 -0.2586 -0.3377
  142SAPE  C31215589   4.304   5.489   9.352  0.0482 -0.3988 -0.2746
  142SAPE  H12X15590   4.196   5.513   9.361 -0.0366 -1.1424  0.8311
  142SAPE  H12Y15591   4.309   5.379   9.341 -2.2952 -0.7752  1.5919
  142SAPE  C31315592   4.339   5.567   9.225  0.3653 -0.2941  0.1592
  142SAPE  H13X15593   4.436   5.538   9.180 -0.4598  0.5241 -2.3135
  142SAPE  H13Y15594   4.351   5.675   9.249  1.5157  0.2105 -2.3585
  142SAPE  C31415595   4.234   5.559   9.119 -0.3406  0.3771  0.5589
  142SAPE  H14X15596   4.231   5.637   9.040 -1.5904  0.2666  0.4821
  142SAPE  H14Y15597   4.140   5.565   9.177  0.4267  0.2935  1.8434
  142SAPE  C31515598   4.243   5.431   9.030 -0.4079 -0.1733  0.5414
  142SAPE  H15X15599   4.156   5.403   8.966  0.2833 -1.5452  0.1675
  142SAPE  H15Y15600   4.258   5.336   9.087  1.7926  0.2517  0.7532
  142SAPE  C31615601   4.361   5.442   8.929  0.2173  0.1795  0.0136
  142SAPE  H16X15602   4.461   5.460   8.974 -0.9238  1.9585  2.0376
  142SAPE  H16Y15603   4.347   5.528   8.860 -0.2933 -0.9758 -1.3746
  142SAPE  C31715604   4.366   5.317   8.844 -0.7965 -0.3839 -0.2338
  142SAPE  H17X15605   4.439   5.340   8.764  0.4952 -2.1920  0.3691
  142SAPE  H17Y15606   4.269   5.288   8.799 -0.8543 -0.3125 -0.1551
  142SAPE  C31815607   4.422   5.195   8.923  0.7411  0.3679 -0.3961
  142SAPE  H18X15608   4.350   5.156   8.998  0.2285  0.9800 -0.5647
  142SAPE  H18Y15609   4.510   5.220   8.986  0.9354  0.1342 -0.5750
  142SAPE  H18Z15610   4.449   5.113   8.854 -2.4191 -0.5661 -0.6965
  143SAPE     N15611   5.403   5.390  11.003  0.0952  0.1521  0.0699
  143SAPE   HN115612   5.438   5.431  11.092  0.3264  0.4286 -0.1455
  143SAPE   HN215613   5.370   5.473  10.951 -2.0254  0.2291  1.4486
  143SAPE   HN315614   5.311   5.348  11.027  0.0569 -0.2472 -0.7521
  143SAPE   C1215615   5.496   5.299  10.928 -0.3795 -0.5176  0.4122
  143SAPE  H12A15616   5.587   5.355  10.897 -0.6099 -1.1427 -1.5065
  143SAPE  H12B15617   5.438   5.256  10.843  0.1793 -0.2832 -0.0940
  143SAPE   C1115618   5.559   5.179  11.011  0.1561 -0.4230 -0.2325
  143SAPE  H11A15619   5.638   5.220  11.077 -0.9390  1.2371  0.1294
  143SAPE  H11B15620   5.618   5.120  10.939  2.1038  1.5182 -0.3267
  143SAPE     P15621   5.356   5.017  11.025  0.0741 -0.3904  0.0410
  143SAPE   O1315622   5.352   4.884  11.097 -0.0471  0.6681  0.1108
  143SAPE   O1415623   5.230   5.093  11.028 -0.1379 -0.3383 -0.6273
  143SAPE   O1215624   5.470   5.102  11.091 -0.0660 -0.2880  0.7374
  143SAPE   O1115625   5.409   5.004  10.880  0.0556 -0.2634  0.4509
  143SAPE    C115626   5.375   4.886  10.807  0.3528 -0.4260  0.1419
  143SAPE    HA15627   5.402   4.792  10.859 -2.7976 -1.5201 -0.0265
  143SAPE    HB15628   5.266   4.888  10.790  0.4864 -1.8343 -0.9632
  143SAPE    C215629   5.435   4.883  10.667 -0.3609  0.2892 -0.2931
  143SAPE    HS15630   5.541   4.850  10.676 -0.1096  1.0658 -0.3019
  143SAPE   O2115631   5.429   5.015  10.607  0.4656  0.4952  0.1896
  143SAPE   C2115632   5.530   5.089  10.622  0.7573  1.0315  0.0784
  143SAPE   O2215633   5.626   5.058  10.695  0.7678  0.0730  0.5905
  143SAPE   C2215634   5.521   5.225  10.559 -0.5019 -0.0259 -0.0956
  143SAPE   H2R15635   5.413   5.248  10.544 -0.4013 -0.4833 -1.6911
  143SAPE   H2S15636   5.564   5.295  10.634 -0.5365  0.8152 -0.8426
  143SAPE    C315637   5.373   4.783  10.566 -0.2464  0.5308  0.5490
  143SAPE    HX15638   5.268   4.820  10.556  0.0453  1.6767  1.5226
  143SAPE    HY15639   5.381   4.681  10.610 -0.1958  0.8805  1.3602
  143SAPE   O3115640   5.446   4.772  10.440 -0.4494  0.1050 -0.4120
  143SAPE   C3115641   5.371   4.735  10.332 -0.0121  0.0794 -0.0067
  143SAPE   O3215642   5.250   4.716  10.328  1.0293 -0.2806 -0.2000
  143SAPE   C3215643   5.450   4.751  10.205  0.5414  0.1158  0.3277
  143SAPE   H2X15644   5.527   4.671  10.208  0.2767 -0.1191  1.0526
  143SAPE   H2Y15645   5.500   4.850  10.204  0.9822 -0.1000  0.6933
  143SAPE   C2315646   5.618   5.230  10.433  1.2110 -0.3027 -0.5365
  143SAPE   H3R15647   5.579   5.157  10.359 -2.3522 -0.8062  1.6098
  143SAPE   H3S15648   5.717   5.190  10.464  0.8442 -1.3335 -0.6547
  143SAPE   C2415649   5.627   5.370  10.374 -0.6932  0.9812 -0.5507
  143SAPE   H4R15650   5.711   5.380  10.302 -0.8056  2.0521 -0.5431
  143SAPE   H4S15651   5.664   5.439  10.453 -1.0915  1.3522 -0.6814
  143SAPE   C2515652   5.498   5.417  10.312 -0.5788  0.0556  0.2477
  143SAPE   H5R15653   5.402   5.398  10.363 -0.4877  0.2387  0.4925
  143SAPE   C2615654   5.480   5.470  10.191  0.5534  0.6206 -0.1668
  143SAPE   H6R15655   5.377   5.469  10.152  0.5040  2.1939 -0.1381
  143SAPE   C2715656   5.592   5.502  10.092  0.0565 -0.3977 -0.1523
  143SAPE   H7R15657   5.697   5.489  10.126  0.1783  1.6411  0.3877
  143SAPE   H7S15658   5.588   5.612  10.077 -0.2972 -0.3232  0.4463
  143SAPE   C2815659   5.567   5.420   9.966 -0.6953  0.1425 -0.8251
  143SAPE   H8R15660   5.552   5.311   9.974 -0.3957  0.0769 -1.1279
  143SAPE   C2915661   5.578   5.477   9.849 -0.4107  0.3742 -0.2037
  143SAPE   H9R15662   5.557   5.418   9.759  1.0632 -0.5867  0.0495
  143SAPE  C21015663   5.622   5.620   9.820 -0.2563  0.0112 -0.0482
  143SAPE  H10R15664   5.697   5.637   9.900  0.6286 -1.1858 -0.6094
  143SAPE  H10S15665   5.547   5.697   9.850 -0.5057 -0.7243  1.3146
  143SAPE  C21115666   5.682   5.636   9.681 -0.4466 -0.0873 -0.7440
  143SAPE  H11R15667   5.788   5.665   9.680 -0.6064  0.8638  2.0162
  143SAPE  C21215668   5.617   5.644   9.563  0.7800 -0.0109 -0.1690
  143SAPE  H12R15669   5.675   5.658   9.471  1.6549  0.4063  0.4287
  143SAPE  C21315670   5.468   5.617   9.546 -0.4930 -0.0980  0.5514
  143SAPE  H13R15671   5.422   5.600   9.646 -1.5111  0.3615  0.1740
  143SAPE  H13S15672   5.464   5.517   9.498 -0.7785 -0.2382  0.8606
  143SAPE  C21415673   5.404   5.730   9.472  0.1848 -0.4280 -0.3686
  143SAPE  H14R15674   5.338   5.795   9.531  0.0031 -0.1657 -0.8559
  143SAPE  C21515675   5.407   5.758   9.340 -0.0577  0.3617  0.0697
  143SAPE  H15R15676   5.375   5.857   9.305 -1.1860 -0.2656 -0.7387
  143SAPE  C21615677   5.471   5.674   9.239 -0.0843 -0.2007 -0.0932
  143SAPE  H16R15678   5.558   5.619   9.279  0.7408  0.9019 -0.3321
  143SAPE  H16S15679   5.511   5.748   9.166  0.2089  2.2870  2.4237
  143SAPE  C21715680   5.370   5.574   9.191  0.6026 -0.1905  0.4371
  143SAPE  H17R15681   5.324   5.537   9.285  2.1509  3.2042  2.7350
  143SAPE  H17S15682   5.428   5.498   9.135  0.6573  0.7763 -0.8548
  143SAPE  C21815683   5.260   5.624   9.097  0.0606 -0.4511 -0.0983
  143SAPE  H18R15684   5.202   5.702   9.152  1.9580  0.4057  0.7779
  143SAPE  H18S15685   5.181   5.548   9.077 -1.0989  0.9420 -0.9264
  143SAPE  C21915686   5.315   5.676   8.962 -0.1728 -0.1197 -0.1264
  143SAPE  H19R15687   5.368   5.599   8.902  2.3118  0.6111  1.0179
  143SAPE  H19S15688   5.393   5.752   8.983  0.2912 -0.3526 -0.9805
  143SAPE  C22015689   5.208   5.747   8.875 -0.0208 -0.2320 -0.6259
  143SAPE  H20R15690   5.164   5.685   8.793  0.7203 -0.7428 -0.6493
  143SAPE  H20S15691   5.236   5.844   8.829 -0.5860 -0.0278 -0.5505
  143SAPE  H20T15692   5.118   5.771   8.936 -0.3835  1.6273 -1.7986
  143SAPE   C3315693   5.374   4.730  10.076 -0.8490 -0.4951  0.1294
  143SAPE   H3X15694   5.274   4.777  10.087  0.3877  2.2210  0.6368
  143SAPE   H3Y15695   5.361   4.623  10.050  0.5279  0.0625 -3.5115
  143SAPE   C3415696   5.453   4.787   9.953 -0.3104  0.7971  0.7775
  143SAPE   H4X15697   5.559   4.757   9.964 -0.0798  1.3635  0.1092
  143SAPE   H4Y15698   5.445   4.898   9.957  3.5935  1.5653 -3.6269
  143SAPE   C3515699   5.396   4.744   9.814  0.6013 -0.3919  0.1748
  143SAPE   H5X15700   5.305   4.801   9.788  0.1325 -0.8791  0.7185
  143SAPE   H5Y15701   5.358   4.641   9.832  0.6529 -0.2537  1.1466
  143SAPE   C3615702   5.505   4.770   9.716 -0.2604 -0.2608 -0.1979
  143SAPE   H6X15703   5.589   4.705   9.751  0.0110 -0.1684 -0.6642
  143SAPE   H6Y15704   5.538   4.875   9.731  1.0787 -0.7633  0.6445
  143SAPE   C3715705   5.486   4.731   9.574  0.2656  0.2329 -0.2903
  143SAPE   H7X15706   5.383   4.762   9.545  0.1904  1.0466  0.7533
  143SAPE   H7Y15707   5.510   4.625   9.552  1.0391 -0.1540  2.0896
  143SAPE   C3815708   5.577   4.813   9.475  0.0611  0.0818  0.6083
  143SAPE   H8X15709   5.677   4.822   9.521  0.1464 -1.4218  0.7835
  143SAPE   H8Y15710   5.529   4.912   9.461  1.4793  0.4623 -2.3934
  143SAPE   C3915711   5.591   4.761   9.329  0.8485  0.3488  0.4026
  143SAPE   H9X15712   5.617   4.843   9.258  0.3870 -0.6141 -0.9136
  143SAPE   H9Y15713   5.494   4.722   9.292  0.4704  0.0980  1.6260
  143SAPE  C31015714   5.703   4.653   9.311  0.4755  0.1226  0.2978
  143SAPE  H10X15715   5.668   4.554   9.345 -1.8422  0.3457 -1.2004
  143SAPE  H10Y15716   5.805   4.682   9.345  0.2734  3.1366 -1.3397
  143SAPE  C31115717   5.732   4.624   9.163 -0.6396  0.1002 -0.0752
  143SAPE  H11X15718   5.826   4.565   9.155  0.0089  0.7503  2.1066
  143SAPE  H11Y15719   5.734   4.711   9.094  3.3731  0.2817  0.0016
  143SAPE  C31215720   5.622   4.542   9.096 -0.6324  0.3060 -0.5842
  143SAPE  H12X15721   5.523   4.591   9.112 -1.3714 -0.7250 -1.8554
  143SAPE  H12Y15722   5.616   4.449   9.155 -0.2594 -0.7038 -2.0905
  143SAPE  C31315723   5.641   4.491   8.950  0.1036  0.4161  0.2498
  143SAPE  H13X15724   5.554   4.440   8.903  0.7785  1.0298 -1.7710
  143SAPE  H13Y15725   5.707   4.402   8.951 -0.7286 -0.2652 -1.7090
  143SAPE  C31415726   5.675   4.604   8.849  0.7911  0.3635 -0.5759
  143SAPE  H14X15727   5.661   4.559   8.748 -3.3008 -0.7451  0.3026
  143SAPE  H14Y15728   5.780   4.631   8.872  0.2836  1.6724  0.3370
  143SAPE  C31515729   5.600   4.741   8.851 -0.4048 -0.1487  0.6483
  143SAPE  H15X15730   5.594   4.767   8.958  1.4795  0.2595  0.6947
  143SAPE  H15Y15731   5.504   4.721   8.799  0.6533  0.1763 -1.5586
  143SAPE  C31615732   5.681   4.850   8.763  0.1839 -0.2718 -0.0408
  143SAPE  H16X15733   5.787   4.847   8.798 -0.0831  5.9934  2.5925
  143SAPE  H16Y15734   5.655   4.955   8.785 -4.0889 -1.0203 -0.6938
  143SAPE  C31715735   5.649   4.821   8.615 -0.4933  0.0617 -0.4511
  143SAPE  H17X15736   5.543   4.846   8.591 -1.3591 -3.3468 -0.7366
  143SAPE  H17Y15737   5.660   4.711   8.603 -0.9384 -0.2677  1.6816
  143SAPE  C31815738   5.738   4.896   8.510  0.4058 -0.5097  0.7406
  143SAPE  H18X15739   5.723   4.866   8.405 -1.3358 -0.9668  1.0971
  143SAPE  H18Y15740   5.846   4.890   8.539  0.0128 -1.6560  2.1280
  143SAPE  H18Z15741   5.702   5.000   8.522  0.4631 -0.6528  2.5468
  144SAPE     N15742   6.018   2.151  10.719  0.0449  0.8211 -0.5412
  144SAPE   HN115743   5.935   2.113  10.669  0.1743 -0.8774  0.4591
  144SAPE   HN215744   6.009   2.116  10.817  1.0608  1.1591 -0.3186
  144SAPE   HN315745   6.018   2.255  10.717 -2.6617  0.9593  1.1036
  144SAPE   C1215746   6.138   2.084  10.654 -0.7616 -0.9020  0.6315
  144SAPE  H12A15747   6.229   2.129  10.699 -0.5111 -0.4713 -0.2859
  144SAPE  H12B15748   6.125   2.113  10.548  2.6149 -1.3608 -0.0140
  144SAPE   C1115749   6.131   1.936  10.676 -0.5420 -0.4897  0.3725
  144SAPE  H11A15750   6.040   1.892  10.632 -2.2561  2.5218  0.6523
  144SAPE  H11B15751   6.135   1.918  10.786  0.5230 -1.4433  0.1954
  144SAPE     P15752   6.387   1.872  10.664  0.0169  0.1637  0.1728
  144SAPE   O1315753   6.422   1.984  10.753  0.5184  0.2899 -0.2264
  144SAPE   O1415754   6.404   1.739  10.725 -0.3797 -0.1050  0.3817
  144SAPE   O1215755   6.238   1.880  10.606 -0.4053  0.7131 -0.3202
  144SAPE   O1115756   6.473   1.876  10.532  1.0314  0.1656  0.0158
  144SAPE    C115757   6.441   1.950  10.419 -0.1797  0.9152  0.2751
  144SAPE    HA15758   6.378   2.040  10.438  0.2908  1.2371  0.3194
  144SAPE    HB15759   6.533   1.992  10.373 -0.9473  2.3589 -0.0132
  144SAPE    C215760   6.371   1.864  10.305 -0.0130 -0.3864 -0.5034
  144SAPE    HS15761   6.381   1.924  10.211 -0.5384  2.3329  1.0644
  144SAPE   O2115762   6.234   1.844  10.326  0.1097  0.2123  0.0456
  144SAPE   C2115763   6.152   1.940  10.294 -0.8968  0.5418 -0.2918
  144SAPE   O2215764   6.185   2.056  10.269 -0.1188  0.1488 -0.6642
  144SAPE   C2215765   6.014   1.886  10.284  0.4444 -0.4297  0.0011
  144SAPE   H2R15766   6.012   1.780  10.250  1.7802 -0.6758  0.6228
  144SAPE   H2S15767   5.961   1.894  10.381 -1.3931  1.7834 -1.1087
  144SAPE    C315768   6.441   1.732  10.291 -0.2004  0.1303  0.1465
  144SAPE    HX15769   6.406   1.648  10.354  2.2041 -1.9430 -1.0715
  144SAPE    HY15770   6.546   1.754  10.320 -0.0532 -1.4751  0.9888
  144SAPE   O3115771   6.438   1.702  10.147  0.1487  0.3624 -0.3322
  144SAPE   C3115772   6.333   1.623  10.111  0.1233 -0.1759  0.3767
  144SAPE   O3215773   6.233   1.604  10.181  0.3557  0.1408  1.0092
  144SAPE   C3215774   6.339   1.599   9.965 -0.5256  0.0815  0.2015
  144SAPE   H2X15775   6.327   1.698   9.915 -1.2128  0.9021  1.8852
  144SAPE   H2Y15776   6.260   1.528   9.933  0.9702 -1.7697  0.4434
  144SAPE   C2315777   5.923   1.971  10.186  0.7743  0.0518  0.7402
  144SAPE   H3R15778   5.951   2.078  10.195  0.7930 -0.0757  2.5640
  144SAPE   H3S15779   5.814   1.955  10.201  0.2698  3.0894  0.9442
  144SAPE   C2415780   5.959   1.944  10.039  0.2482 -0.0864 -0.1606
  144SAPE   H4R15781   5.943   1.835  10.023  2.2853 -0.3267 -0.8554
  144SAPE   H4S15782   6.066   1.965  10.019  0.5250 -0.2675  1.0459
  144SAPE   C2515783   5.888   2.018   9.928  0.7423 -0.2893  0.0602
  144SAPE   H5R15784   5.909   2.125   9.932  2.4096 -0.6264  1.7663
  144SAPE   C2615785   5.802   1.963   9.840  0.1696  0.3352  0.2232
  144SAPE   H6R15786   5.756   2.022   9.760 -0.6165 -0.1688  0.2943
  144SAPE   C2715787   5.767   1.820   9.824  0.2822 -0.0335 -0.0620
  144SAPE   H7R15788   5.708   1.805   9.732  0.5235 -1.0117 -0.0752
  144SAPE   H7S15789   5.702   1.790   9.909  1.0976 -0.1883  0.5213
  144SAPE   C2815790   5.882   1.726   9.810  0.5051  0.1474 -0.8012
  144SAPE   H8R15791   5.980   1.767   9.779  0.3073  0.9704 -0.3382
  144SAPE   C2915792   5.870   1.590   9.824  0.2404  0.6265 -0.3190
  144SAPE   H9R15793   5.959   1.530   9.802  0.4751  0.6542  0.5147
  144SAPE  C21015794   5.732   1.525   9.861  0.1567  0.0982 -0.0403
  144SAPE  H10R15795   5.634   1.576   9.848 -0.9770 -1.6056  1.3222
  144SAPE  H10S15796   5.726   1.507   9.971 -2.1922 -2.9407 -0.5283
  144SAPE  C21115797   5.720   1.382   9.811 -0.1397 -0.3688  0.4556
  144SAPE  H11R15798   5.764   1.304   9.874 -0.2036 -0.4602  0.3870
  144SAPE  C21215799   5.648   1.339   9.706 -0.6884 -0.4341  0.3228
  144SAPE  H12R15800   5.643   1.231   9.685  0.3502 -0.0922 -1.9560
  144SAPE  C21315801   5.560   1.424   9.620 -0.0045  0.2509  0.3891
  144SAPE  H13R15802   5.516   1.516   9.664 -2.5561 -0.2659 -0.8844
  144SAPE  H13S15803   5.466   1.366   9.605 -0.8699  1.8041 -0.4127
  144SAPE  C21415804   5.628   1.457   9.490  0.0471 -0.7580 -0.3208
  144SAPE  H14R15805   5.688   1.548   9.503 -0.4028 -0.5373  0.3016
  144SAPE  C21515806   5.619   1.396   9.374 -0.0169 -0.1752  0.2004
  144SAPE  H15R15807   5.680   1.436   9.292 -0.5247  0.9326  0.3447
  144SAPE  C21615808   5.544   1.268   9.345 -0.1126  0.2176 -0.0604
  144SAPE  H16R15809   5.509   1.273   9.239 -0.4893  1.6103  0.1101
  144SAPE  H16S15810   5.453   1.263   9.408 -0.4316 -3.7296 -0.6207
  144SAPE  C21715811   5.618   1.140   9.370  0.3369  0.9872 -0.8578
  144SAPE  H17R15812   5.553   1.056   9.336 -0.1306  1.5737 -1.4370
  144SAPE  H17S15813   5.633   1.134   9.480 -0.7836 -1.1391 -0.7482
  144SAPE  C21815814   5.760   1.138   9.303  1.0470  0.6590  0.4085
  144SAPE  H18R15815   5.827   1.218   9.339  1.0194  1.2409 -0.7914
  144SAPE  H18S15816   5.752   1.156   9.194 -0.7367  1.3161  0.6159
  144SAPE  C21915817   5.831   0.998   9.309 -0.3231 -0.1792 -1.1912
  144SAPE  H19R15818   5.933   1.009   9.265 -0.6324 -2.6341 -2.6683
  144SAPE  H19S15819   5.772   0.925   9.250 -1.4338 -0.4510  0.2101
  144SAPE  C22015820   5.861   0.942   9.450 -0.1056  0.0662 -0.2123
  144SAPE  H20R15821   5.764   0.929   9.503  0.3179 -1.7525  0.1964
  144SAPE  H20S15822   5.924   1.019   9.498 -1.4844  1.3449 -0.3911
  144SAPE  H20T15823   5.922   0.849   9.450 -2.8132 -1.8618  0.9618
  144SAPE   C3315824   6.469   1.531   9.926  0.3544 -0.3594 -0.2050
  144SAPE   H3X15825   6.478   1.429   9.969  1.6402 -0.2307 -0.1308
  144SAPE   H3Y15826   6.563   1.571   9.967  1.1641 -0.4755 -1.8544
  144SAPE   C3415827   6.484   1.535   9.774  0.0342  0.0511 -0.1079
  144SAPE   H4X15828   6.445   1.627   9.725  0.4226 -0.1425 -0.7861
  144SAPE   H4Y15829   6.446   1.439   9.734  1.3639  0.6189 -3.0043
  144SAPE   C3515830   6.626   1.527   9.729  0.1801 -0.1604  0.0983
  144SAPE   H5X15831   6.666   1.447   9.795 -0.0573  0.7568  1.3823
  144SAPE   H5Y15832   6.686   1.616   9.758 -1.4941  0.8501  0.5468
  144SAPE   C3615833   6.632   1.488   9.582  0.0774  0.1178  0.1316
  144SAPE   H6X15834   6.561   1.405   9.562  0.3555 -0.0206 -0.2817
  144SAPE   H6Y15835   6.735   1.458   9.552 -0.2557 -0.8214 -0.0910
  144SAPE   C3715836   6.585   1.595   9.478  0.7172 -0.7128  0.6623
  144SAPE   H7X15837   6.664   1.672   9.467 -0.8372  0.9354  0.4181
  144SAPE   H7Y15838   6.496   1.655   9.507  1.2114  0.6547 -0.5570
  144SAPE   C3815839   6.559   1.530   9.347  0.3123  0.4087  0.6808
  144SAPE   H8X15840   6.481   1.453   9.362  0.7782 -0.1157  0.4325
  144SAPE   H8Y15841   6.660   1.496   9.313  0.1001  1.4035 -1.0680
  144SAPE   C3915842   6.514   1.625   9.232 -0.0422 -0.1555  0.1041
  144SAPE   H9X15843   6.513   1.572   9.134 -1.6540  0.7075 -0.3728
  144SAPE   H9Y15844   6.589   1.707   9.233  0.2761 -0.4421 -0.1318
  144SAPE  C31015845   6.368   1.681   9.231 -0.3118  0.5597 -0.6883
  144SAPE  H10X15846   6.347   1.722   9.332 -1.4551  0.3609 -0.8270
  144SAPE  H10Y15847   6.297   1.596   9.217 -1.7970  1.7672 -0.7329
  144SAPE  C31115848   6.356   1.788   9.124 -0.1074  0.3017 -0.5433
  144SAPE  H11X15849   6.400   1.741   9.033 -1.5670 -2.0121 -0.1314
  144SAPE  H11Y15850   6.415   1.878   9.152 -1.5130  2.0147 -2.7110
  144SAPE  C31215851   6.213   1.825   9.091 -0.0813 -0.1394  0.0263
  144SAPE  H12X15852   6.158   1.887   9.165  0.0519 -1.2261  1.0616
  144SAPE  H12Y15853   6.164   1.726   9.084  0.2174 -0.2226 -1.0285
  144SAPE  C31315854   6.206   1.900   8.960  0.2894  0.3490  0.0418
  144SAPE  H13X15855   6.260   1.839   8.885 -1.6867 -0.6928 -0.6164
  144SAPE  H13Y15856   6.264   1.993   8.980 -2.2693  1.6543  2.0145
  144SAPE  C31415857   6.062   1.921   8.906 -0.1083 -0.2669 -0.5999
  144SAPE  H14X15858   6.051   2.006   8.834  0.4144 -0.9220 -1.4812
  144SAPE  H14Y15859   6.002   1.932   8.998  0.8683 -0.9530  0.1314
  144SAPE  C31515860   6.008   1.799   8.829  0.1757  0.2401  0.0912
  144SAPE  H15X15861   5.981   1.717   8.898  3.1894 -1.5341 -0.6515
  144SAPE  H15Y15862   6.089   1.741   8.779  0.6670  0.0248  1.1085
  144SAPE  C31615863   5.881   1.828   8.745  0.2140  0.6227 -0.1987
  144SAPE  H16X15864   5.917   1.905   8.673 -0.4565 -0.3791 -1.6490
  144SAPE  H16Y15865   5.799   1.867   8.808  0.2800 -0.7192  0.7354
  144SAPE  C31715866   5.826   1.705   8.664 -1.0236  0.4416  0.5256
  144SAPE  H17X15867   5.731   1.731   8.614 -0.5713  0.3051 -0.4268
  144SAPE  H17Y15868   5.799   1.627   8.739  0.9172  1.1935  2.1234
  144SAPE  C31815869   5.926   1.646   8.567 -0.6640 -0.4075 -0.5010
  144SAPE  H18X15870   5.979   1.721   8.504  0.3204 -0.6867 -0.0345
  144SAPE  H18Y15871   5.876   1.583   8.491  0.4104 -0.4036 -1.2373
  144SAPE  H18Z15872   5.993   1.589   8.635 -0.2934  1.4519  0.7729
  145SAPE     N15873   4.004   4.341  11.142 -0.1766 -0.2328 -0.2932
  145SAPE   HN115874   4.088   4.368  11.197 -0.1715  2.0908 -1.3206
  145SAPE   HN215875   4.039   4.277  11.067  0.1175  0.5042 -0.8048
  145SAPE   HN315876   3.966   4.428  11.099 -3.1839 -0.7351  1.0857
  145SAPE   C1215877   3.897   4.269  11.220 -0.5950  0.1735  0.1625
  145SAPE  H12A15878   3.860   4.340  11.296  1.4785  2.6470 -0.9804
  145SAPE  H12B15879   3.951   4.193  11.280 -0.6100  1.4489  1.8497
  145SAPE   C1115880   3.787   4.204  11.134  0.0834  0.4504 -0.0720
  145SAPE  H11A15881   3.699   4.168  11.191 -0.1936  1.4307  0.1328
  145SAPE  H11B15882   3.827   4.120  11.072 -2.2184  0.0762 -1.1594
  145SAPE     P15883   3.637   4.287  10.934 -0.3564 -0.0116 -0.1182
  145SAPE   O1315884   3.541   4.180  10.965  0.0153 -0.1663 -0.5642
  145SAPE   O1415885   3.585   4.417  10.900  0.2000  0.3904 -0.0987
  145SAPE   O1215886   3.744   4.302  11.051 -0.2120  0.2053  0.2181
  145SAPE   O1115887   3.727   4.241  10.816 -0.3493  0.4354  0.5098
  145SAPE    C115888   3.861   4.288  10.802  0.4149 -0.5427  0.4511
  145SAPE    HA15889   3.856   4.399  10.793 -1.6062 -0.7443 -1.9576
  145SAPE    HB15890   3.915   4.257  10.894 -2.4565  0.4399  2.6230
  145SAPE    C215891   3.922   4.242  10.667 -1.2143  0.3489 -0.2654
  145SAPE    HS15892   4.020   4.293  10.652 -0.9931 -0.1089 -0.4121
  145SAPE   O2115893   3.845   4.277  10.553  0.5411  0.3942 -0.1103
  145SAPE   C2115894   3.816   4.410  10.532  0.1365  0.5078 -0.4480
  145SAPE   O2215895   3.878   4.509  10.570  0.0724  0.3290 -0.1257
  145SAPE   C2215896   3.688   4.409  10.444 -0.0774  0.0249  0.6249
  145SAPE   H2R15897   3.619   4.346  10.504 -0.8360 -0.1906 -0.4469
  145SAPE   H2S15898   3.637   4.506  10.429 -0.6955 -0.6904 -2.6558
  145SAPE    C315899   3.950   4.088  10.665  0.1306  0.3569  0.5606
  145SAPE    HX15900   3.855   4.032  10.672 -0.2046  0.8900  0.3809
  145SAPE    HY15901   4.019   4.060  10.748 -0.0848 -2.3015 -0.0704
  145SAPE   O3115902   4.026   4.049  10.551  0.3163  0.7611  0.1026
  145SAPE   C3115903   3.951   4.013  10.448 -0.2206  0.2290  0.9269
  145SAPE   O3215904   3.835   3.987  10.444 -0.0870  0.7339 -0.0635
  145SAPE   C3215905   4.041   3.992  10.332  0.2202  0.1449 -0.3712
  145SAPE   H2X15906   4.057   3.885  10.309  1.2570  0.1933  0.0660
  145SAPE   H2Y15907   4.134   4.051  10.348  0.1379  0.1636  0.0464
  145SAPE   C2315908   3.705   4.332  10.314  0.0804 -0.4259 -0.2310
  145SAPE   H3R15909   3.713   4.225  10.343 -0.8809 -0.7389 -1.0854
  145SAPE   H3S15910   3.796   4.368  10.260  0.4224  2.8590  2.2163
  145SAPE   C2415911   3.581   4.330  10.224 -1.0519  0.0936 -0.6420
  145SAPE   H4R15912   3.490   4.288  10.271  0.8679 -2.8734  0.7596
  145SAPE   H4S15913   3.594   4.248  10.151 -0.8118 -0.8900  0.4671
  145SAPE   C2515914   3.561   4.467  10.153 -0.0302 -0.1899  0.0463
  145SAPE   H5R15915   3.501   4.539  10.209 -0.8080 -2.0419  1.7163
  145SAPE   C2615916   3.608   4.506  10.032 -0.1177 -0.3020 -0.7967
  145SAPE   H6R15917   3.579   4.600   9.985  0.6211  0.0035 -0.6658
  145SAPE   C2715918   3.696   4.410   9.946  0.4756 -0.4501  0.2001
  145SAPE   H7R15919   3.625   4.348   9.888 -1.3640  0.2465  1.6223
  145SAPE   H7S15920   3.757   4.347  10.014  1.5565  1.7500  1.3605
  145SAPE   C2815921   3.787   4.480   9.849  0.0168  0.0053 -1.1531
  145SAPE   H8R15922   3.885   4.510   9.887  0.8455 -1.8994 -1.6672
  145SAPE   C2915923   3.774   4.491   9.718 -0.1152  0.4572 -0.6290
  145SAPE   H9R15924   3.862   4.523   9.660  2.4636 -3.1662  0.8631
  145SAPE  C21015925   3.653   4.441   9.647  0.1857 -0.6368 -0.3864
  145SAPE  H10R15926   3.570   4.497   9.695  0.5253 -1.0195  0.6800
  145SAPE  H10S15927   3.626   4.335   9.668 -1.8580 -0.0872  0.0421
  145SAPE  C21115928   3.645   4.472   9.498  0.0608  0.1935  0.0294
  145SAPE  H11R15929   3.712   4.413   9.434 -0.2854  1.0561 -1.1656
  145SAPE  C21215930   3.556   4.556   9.433 -0.5949 -1.1993 -0.7177
  145SAPE  H12R15931   3.564   4.562   9.324 -0.7967 -1.1866 -0.7323
  145SAPE  C21315932   3.452   4.646   9.489  0.4087 -0.1004  0.9261
  145SAPE  H13R15933   3.459   4.755   9.465  0.3493 -0.4935 -1.0089
  145SAPE  H13S15934   3.465   4.659   9.599  2.2851 -0.3390  0.7589
  145SAPE  C21415935   3.308   4.615   9.455 -0.0878  0.6031  1.0422
  145SAPE  H14R15936   3.295   4.511   9.422  1.6887  0.8985 -0.8428
  145SAPE  C21515937   3.203   4.690   9.483  0.7108 -0.1088 -0.5135
  145SAPE  H15R15938   3.104   4.646   9.466 -1.2437  3.2219  1.2643
  145SAPE  C21615939   3.200   4.826   9.555  1.1606  0.3452 -0.4315
  145SAPE  H16R15940   3.112   4.879   9.514  0.3358 -0.2013  0.5874
  145SAPE  H16S15941   3.291   4.890   9.549  0.0774  1.7650 -3.2536
  145SAPE  C21715942   3.162   4.808   9.705  0.0629 -0.1934  0.0037
  145SAPE  H17R15943   3.250   4.773   9.763 -0.4117  1.5146  1.8605
  145SAPE  H17S15944   3.079   4.736   9.723 -1.0033  0.8690 -0.5215
  145SAPE  C21815945   3.117   4.937   9.779  0.8161 -1.1604 -0.1440
  145SAPE  H18R15946   3.047   4.986   9.708  0.5105 -1.6072 -0.1531
  145SAPE  H18S15947   3.204   5.004   9.794 -0.3822  0.2790  0.6580
  145SAPE  C21915948   3.057   4.908   9.922 -0.0031 -0.4345 -0.6110
  145SAPE  H19R15949   3.132   4.848   9.977  1.6876  2.2494  0.2506
  145SAPE  H19S15950   2.968   4.846   9.897  2.5155 -4.8309  0.3225
  145SAPE  C22015951   3.042   5.029  10.018 -0.4008 -0.9652 -0.3097
  145SAPE  H20R15952   2.991   5.005  10.114 -3.0204  1.4317 -0.9617
  145SAPE  H20S15953   2.978   5.111   9.978 -0.6434 -1.2433 -0.5039
  145SAPE  H20T15954   3.137   5.084  10.035 -1.6878  0.8012  1.6985
  145SAPE   C3315955   3.966   4.057  10.207 -0.0034 -0.1885  0.4619
  145SAPE   H3X15956   3.931   4.159  10.234 -1.2735  0.0096 -1.7192
  145SAPE   H3Y15957   3.878   3.996  10.179 -1.9092  2.5204  0.2193
  145SAPE   C3415958   4.058   4.076  10.099 -0.2138 -0.2811  0.8114
  145SAPE   H4X15959   4.092   3.973  10.071 -0.7785 -0.5317  1.0319
  145SAPE   H4Y15960   4.143   4.145  10.120  0.9977 -0.7179 -2.1279
  145SAPE   C3515961   3.981   4.136   9.987  0.0615  0.6419  0.3785
  145SAPE   H5X15962   3.966   4.241  10.018 -0.0692 -0.2108  3.5416
  145SAPE   H5Y15963   3.888   4.077   9.973  0.4429  0.0294  0.3715
  145SAPE   C3615964   4.050   4.127   9.851  0.0968  0.1896  0.1194
  145SAPE   H6X15965   4.069   4.021   9.821 -0.3305  0.3880 -0.9194
  145SAPE   H6Y15966   4.149   4.177   9.857  0.4594 -0.0138 -2.7379
  145SAPE   C3715967   3.975   4.191   9.732 -0.4756 -0.5629  0.5452
  145SAPE   H7X15968   3.947   4.295   9.756 -1.3950 -0.6758  0.0297
  145SAPE   H7Y15969   3.881   4.136   9.707  0.1564 -1.1649 -0.6085
  145SAPE   C3815970   4.069   4.198   9.603  0.0292  0.9627  0.1273
  145SAPE   H8X15971   4.082   4.097   9.560 -2.6683  1.3342 -1.7732
  145SAPE   H8Y15972   4.168   4.239   9.635  0.3333  0.6417 -0.3943
  145SAPE   C3915973   4.013   4.292   9.495 -0.3368  0.1627  0.1644
  145SAPE   H9X15974   3.999   4.392   9.541 -4.4330 -0.9468  1.8211
  145SAPE   H9Y15975   3.911   4.255   9.470 -1.0676  3.4961 -2.6508
  145SAPE  C31015976   4.113   4.299   9.382  0.1079 -0.0558 -0.0541
  145SAPE  H10X15977   4.157   4.197   9.378 -2.4289 -1.3042  1.1796
  145SAPE  H10Y15978   4.191   4.375   9.403  1.2962 -0.9750 -0.9676
  145SAPE  C31115979   4.045   4.332   9.244  0.2076 -0.4016 -0.4990
  145SAPE  H11X15980   4.000   4.432   9.262  1.5782 -0.3189  3.4666
  145SAPE  H11Y15981   3.968   4.254   9.225 -0.6773  0.1409  0.6748
  145SAPE  C31215982   4.139   4.326   9.126 -0.7120  0.0056  0.0269
  145SAPE  H12X15983   4.074   4.308   9.037 -0.3684 -0.9330 -0.0422
  145SAPE  H12Y15984   4.201   4.236   9.143  1.4214  1.5182  0.5601
  145SAPE  C31315985   4.217   4.449   9.117 -0.3604  0.5471  0.2874
  145SAPE  H13X15986   4.277   4.459   9.210 -2.1489  1.0393  1.4404
  145SAPE  H13Y15987   4.153   4.537   9.100 -1.8682 -0.5313  0.1686
  145SAPE  C31415988   4.326   4.428   9.012 -0.0814 -0.1732 -0.6908
  145SAPE  H14X15989   4.366   4.324   9.015  1.1832  0.2690 -1.3285
  145SAPE  H14Y15990   4.400   4.507   9.038 -2.1000  0.6264  3.4810
  145SAPE  C31515991   4.287   4.452   8.867  0.1527  0.8891 -0.8655
  145SAPE  H15X15992   4.265   4.558   8.846 -0.3762  0.3028 -3.6283
  145SAPE  H15Y15993   4.193   4.400   8.840 -0.2131  0.9447  0.2500
  145SAPE  C31615994   4.408   4.412   8.769  0.1324 -0.4794 -0.4083
  145SAPE  H16X15995   4.421   4.302   8.756 -4.1623 -0.8837 -3.4211
  145SAPE  H16Y15996   4.495   4.451   8.825  0.4961 -0.1449 -1.2082
  145SAPE  C31715997   4.419   4.477   8.629  0.3577 -0.7245  0.0176
  145SAPE  H17X15998   4.519   4.449   8.590  1.5553  0.5234  2.0081
  145SAPE  H17Y15999   4.433   4.586   8.639  0.4930 -0.5932 -1.4142
  145SAPE  C31816000   4.309   4.439   8.529 -0.1381 -0.2859 -0.9109
  145SAPE  H18X16001   4.325   4.499   8.437  0.7435  1.4755  0.3521
  145SAPE  H18Y16002   4.207   4.452   8.570  0.0944  3.7086 -1.2907
  145SAPE  H18Z16003   4.326   4.332   8.503  0.8534 -0.0558 -1.2779
  146SAPE     N16004   2.810   6.239  10.670 -0.3593  0.9062 -0.4547
  146SAPE   HN116005   2.890   6.299  10.641  0.9880 -0.2175  0.7568
  146SAPE   HN216006   2.839   6.150  10.715 -0.6051  0.9668 -0.1657
  146SAPE   HN316007   2.762   6.216  10.581 -1.4255 -1.1091  0.5852
  146SAPE   C1216008   2.715   6.306  10.773  0.2145 -0.0826  0.9684
  146SAPE  H12A16009   2.732   6.415  10.754 -1.1921  0.2278  1.3748
  146SAPE  H12B16010   2.750   6.279  10.875 -0.9239 -0.7335  1.1969
  146SAPE   C1116011   2.571   6.262  10.750 -1.1170 -0.5453 -0.1380
  146SAPE  H11A16012   2.538   6.312  10.657  0.5415  2.2377  0.6673
  146SAPE  H11B16013   2.519   6.292  10.844  1.2280 -1.6632  1.5942
  146SAPE     P16014   2.550   6.014  10.841 -0.0530 -0.5886  0.1536
  146SAPE   O1316015   2.624   6.046  10.968 -0.0567  0.4869  0.0550
  146SAPE   O1416016   2.406   5.988  10.865 -0.0534  0.1995 -0.0467
  146SAPE   O1216017   2.559   6.126  10.732  0.2871  0.1773 -0.7123
  146SAPE   O1116018   2.614   5.883  10.773  0.6606  0.8675 -0.0940
  146SAPE    C116019   2.540   5.815  10.672  0.5878  1.0696 -0.1338
  146SAPE    HA16020   2.573   5.709  10.665 -2.7313 -0.1392  0.5939
  146SAPE    HB16021   2.431   5.798  10.689  0.0254 -0.0392 -3.9012
  146SAPE    C216022   2.552   5.875  10.532  0.1374 -0.6014  0.4431
  146SAPE    HS16023   2.514   5.979  10.523 -0.4946 -0.9527 -1.5009
  146SAPE   O2116024   2.486   5.796  10.435 -0.3077  0.1037 -0.2450
  146SAPE   C2116025   2.347   5.811  10.429 -0.4182 -0.3004 -0.0290
  146SAPE   O2216026   2.291   5.887  10.499 -0.4191 -0.5586 -0.8379
  146SAPE   C2216027   2.290   5.695  10.354 -0.2723 -0.4546  0.1584
  146SAPE   H2R16028   2.379   5.639  10.319  0.3587 -0.0578  1.0969
  146SAPE   H2S16029   2.232   5.626  10.420 -2.6438  2.6209  1.5184
  146SAPE    C316030   2.695   5.900  10.480  0.7398  0.2161  0.5879
  146SAPE    HX16031   2.742   5.801  10.498  2.1691  0.5859 -0.9394
  146SAPE    HY16032   2.746   5.975  10.544 -0.0887  0.5547  0.8791
  146SAPE   O3116033   2.713   5.924  10.340  0.0123 -0.3330  0.3674
  146SAPE   C3116034   2.731   6.057  10.318 -0.4773 -0.4911  0.2754
  146SAPE   O3216035   2.739   6.144  10.407 -0.3693  0.0262 -0.2480
  146SAPE   C3216036   2.751   6.075  10.170 -0.6195 -0.3240  0.5060
  146SAPE   H2X16037   2.680   5.999  10.132  0.6716 -1.3911  0.1697
  146SAPE   H2Y16038   2.851   6.040  10.139  0.3792  2.7540 -0.0757
  146SAPE   C2316039   2.196   5.742  10.233 -0.3979  0.2682  0.3401
  146SAPE   H3R16040   2.250   5.723  10.138 -1.4383 -0.4122 -0.1345
  146SAPE   H3S16041   2.192   5.853  10.234  0.3758  0.3835 -2.4362
  146SAPE   C2416042   2.058   5.681  10.230  0.2132  0.2885  0.0621
  146SAPE   H4R16043   1.983   5.740  10.173 -0.4779  0.5963  1.2408
  146SAPE   H4S16044   2.017   5.676  10.334 -1.2451 -1.0306 -0.5335
  146SAPE   C2516045   2.047   5.541  10.164  0.1175  0.0477  0.7912
  146SAPE   H5R16046   2.061   5.452  10.227  1.1070  1.1196  2.1387
  146SAPE   C2616047   2.060   5.528  10.026  0.8763  0.4003 -0.1466
  146SAPE   H6R16048   2.034   5.430   9.982 -1.6820 -0.0989  2.1561
  146SAPE   C2716049   2.079   5.643   9.931  0.3398  0.9597  0.0770
  146SAPE   H7R16050   2.128   5.732   9.976  3.2313 -0.7193  0.5205
  146SAPE   H7S16051   1.978   5.683   9.910  0.1176  0.0436 -0.6536
  146SAPE   C2816052   2.146   5.598   9.799  0.2810  0.4557 -1.0514
  146SAPE   H8R16053   2.221   5.517   9.804 -0.9828 -0.6823  1.0848
  146SAPE   C2916054   2.104   5.646   9.680  0.0057  0.7466 -0.8539
  146SAPE   H9R16055   2.154   5.622   9.585 -3.2400 -1.8296 -2.1138
  146SAPE  C21016056   2.009   5.758   9.656  0.3993  0.0744  0.1259
  146SAPE  H10R16057   1.936   5.771   9.739  0.7619  3.0219  0.0707
  146SAPE  H10S16058   1.956   5.742   9.560  0.4558  4.0810 -0.7071
  146SAPE  C21116059   2.079   5.890   9.647 -0.1907  0.0038 -0.2030
  146SAPE  H11R16060   2.095   5.935   9.747  3.9732  0.2930 -0.8460
  146SAPE  C21216061   2.130   5.945   9.535 -0.0761 -0.5133  0.3878
  146SAPE  H12R16062   2.194   6.029   9.564  0.9005 -1.4946  1.1654
  146SAPE  C21316063   2.125   5.904   9.387 -0.2649  0.2377  0.6142
  146SAPE  H13R16064   2.085   5.801   9.378 -0.0864  0.3113 -1.3725
  146SAPE  H13S16065   2.228   5.889   9.349  0.6430  3.0181  1.7259
  146SAPE  C21416066   2.052   6.001   9.299  0.2041 -0.5486  0.3822
  146SAPE  H14R16067   1.988   6.073   9.351 -0.3309  1.7833 -3.1681
  146SAPE  C21516068   2.051   6.008   9.164 -0.4393 -0.2828 -0.3986
  146SAPE  H15R16069   2.002   6.098   9.125 -0.9179  1.3778  3.5640
  146SAPE  C21616070   2.136   5.935   9.065  0.1058  0.2501  0.7815
  146SAPE  H16R16071   2.225   5.882   9.103  2.0193  0.5473 -2.7838
  146SAPE  H16S16072   2.171   6.006   8.987  1.8196 -1.0736  0.2777
  146SAPE  C21716073   2.061   5.823   8.990  0.3634  0.0109  0.1548
  146SAPE  H17R16074   2.021   5.753   9.066 -1.0551  0.5362 -0.0846
  146SAPE  H17S16075   2.134   5.775   8.922 -0.5668 -0.0373 -0.8232
  146SAPE  C21816076   1.939   5.867   8.903 -0.2808 -0.1583 -0.6401
  146SAPE  H18R16077   1.866   5.929   8.959 -1.2723 -0.5525 -1.4720
  146SAPE  H18S16078   1.879   5.780   8.869  0.2445  0.5588 -3.7529
  146SAPE  C21916079   1.984   5.936   8.771 -0.4297 -0.1674  0.0981
  146SAPE  H19R16080   2.057   6.017   8.792  0.7967 -0.9033 -1.1678
  146SAPE  H19S16081   1.890   5.963   8.719 -0.0267  0.3701 -0.3610
  146SAPE  C22016082   2.054   5.834   8.671 -0.7050  0.0917  0.1301
  146SAPE  H20R16083   2.138   5.779   8.719  0.3776  2.1299  0.7122
  146SAPE  H20S16084   2.087   5.897   8.586 -0.1794 -0.9825 -0.4799
  146SAPE  H20T16085   1.984   5.754   8.641 -0.4781 -0.3649  0.8015
  146SAPE   C3316086   2.724   6.212  10.103  0.0300  0.3879 -0.7228
  146SAPE   H3X16087   2.798   6.283  10.147  3.1222 -2.3535 -1.0666
  146SAPE   H3Y16088   2.620   6.229  10.138  0.4836 -0.5311  1.2171
  146SAPE   C3416089   2.730   6.222   9.947 -0.0004 -0.3436  0.4109
  146SAPE   H4X16090   2.661   6.154   9.894 -1.1935  1.0392  0.1325
  146SAPE   H4Y16091   2.833   6.186   9.926  0.0844 -0.1350  0.4572
  146SAPE   C3516092   2.705   6.367   9.905  0.7553 -0.6179  0.3309
  146SAPE   H5X16093   2.777   6.441   9.947 -0.2768 -0.0622  1.1661
  146SAPE   H5Y16094   2.603   6.392   9.943  0.5432 -0.3758 -0.3745
  146SAPE   C3616095   2.715   6.383   9.752 -0.6662 -0.0008 -0.4928
  146SAPE   H6X16096   2.684   6.284   9.711 -0.4928 -0.6914  0.9780
  146SAPE   H6Y16097   2.823   6.396   9.729 -0.7539 -0.2912 -1.0890
  146SAPE   C3716098   2.638   6.497   9.685  0.3116  0.4103  0.1435
  146SAPE   H7X16099   2.695   6.590   9.706 -0.6042  1.4055 -1.5524
  146SAPE   H7Y16100   2.536   6.506   9.728 -0.2299 -2.9106 -0.1738
  146SAPE   C3816101   2.612   6.488   9.536 -0.1653 -0.1777  0.3782
  146SAPE   H8X16102   2.519   6.427   9.529 -0.6066  0.4830  0.3584
  146SAPE   H8Y16103   2.692   6.429   9.486 -1.0018 -0.6307 -0.4632
  146SAPE   C3916104   2.582   6.621   9.470  0.3390  0.0199 -0.0581
  146SAPE   H9X16105   2.650   6.701   9.506  0.3871 -0.0305 -0.0382
  146SAPE   H9Y16106   2.479   6.661   9.486 -0.4224 -0.1150 -3.8114
  146SAPE  C31016107   2.586   6.622   9.322 -0.3478  0.0568 -0.0368
  146SAPE  H10X16108   2.535   6.712   9.280  1.9833  1.6164  0.3193
  146SAPE  H10Y16109   2.526   6.533   9.292 -0.0503 -0.4731  0.9144
  146SAPE  C31116110   2.727   6.620   9.266  0.0517 -0.2138  0.0834
  146SAPE  H11X16111   2.786   6.555   9.334  1.3693 -1.4518 -2.1266
  146SAPE  H11Y16112   2.779   6.717   9.272  1.6863 -0.9736 -1.0977
  146SAPE  C31216113   2.731   6.583   9.117  0.3460  0.0583  0.1766
  146SAPE  H12X16114   2.685   6.482   9.111  0.7378 -0.1022 -0.1280
  146SAPE  H12Y16115   2.836   6.568   9.084  0.1147  0.6808 -0.8606
  146SAPE  C31316116   2.672   6.681   9.015 -0.4905  1.1457 -0.5053
  146SAPE  H13X16117   2.741   6.767   9.029  2.3133 -1.2339  1.4594
  146SAPE  H13Y16118   2.569   6.706   9.047 -0.8920  0.6430 -1.3628
  146SAPE  C31416119   2.690   6.654   8.869 -0.4920  0.5136 -0.2966
  146SAPE  H14X16120   2.782   6.593   8.857 -0.5787  0.4785 -0.7891
  146SAPE  H14Y16121   2.704   6.745   8.807  1.4179  0.6734  0.2970
  146SAPE  C31516122   2.590   6.552   8.815 -0.2041 -0.1495  0.2222
  146SAPE  H15X16123   2.489   6.594   8.838  0.5538  1.5901  0.5718
  146SAPE  H15Y16124   2.611   6.454   8.863 -1.4656 -0.4355  0.2139
  146SAPE  C31616125   2.609   6.535   8.664  0.6255 -0.2796  0.2093
  146SAPE  H16X16126   2.706   6.496   8.624 -0.2958 -0.9529 -1.4998
  146SAPE  H16Y16127   2.594   6.635   8.617  0.7555 -0.2539  0.2222
  146SAPE  C31716128   2.494   6.446   8.624  0.0396  0.5912  0.4922
  146SAPE  H17X16129   2.399   6.481   8.670 -0.6189  1.1488 -1.1984
  146SAPE  H17Y16130   2.512   6.345   8.667  1.1300 -0.0142 -1.2900
  146SAPE  C31816131   2.486   6.438   8.469 -0.2986 -0.3089  0.0105
  146SAPE  H18X16132   2.417   6.354   8.445 -2.4690  1.1622  0.7332
  146SAPE  H18Y16133   2.592   6.430   8.437 -0.1815 -0.8058  0.4919
  146SAPE  H18Z16134   2.437   6.533   8.438 -1.2612 -0.2025  1.7026
  147SAPE     N16135   6.691   2.791   6.147 -0.2949  0.0534  0.4003
  147SAPE   HN116136   6.664   2.707   6.093  0.6594  1.3895 -2.3967
  147SAPE   HN216137   6.628   2.872   6.130 -0.2198  0.2099  0.8525
  147SAPE   HN316138   6.793   2.811   6.140 -0.5407  1.6705  0.9961
  147SAPE   C1216139   6.654   2.760   6.288 -0.0486 -0.1241  0.3207
  147SAPE  H12A16140   6.715   2.824   6.356 -0.9345  3.2852 -1.8368
  147SAPE  H12B16141   6.681   2.652   6.297  0.3704 -0.4181 -3.2851
  147SAPE   C1116142   6.499   2.773   6.309 -0.7429  0.6651 -0.1291
  147SAPE  H11A16143   6.473   2.881   6.309  1.2335  1.1726  1.1275
  147SAPE  H11B16144   6.477   2.743   6.414  0.8493 -1.7035 -0.3976
  147SAPE     P16145   6.369   2.549   6.258  0.1856  0.0464  0.0764
  147SAPE   O1316146   6.281   2.499   6.152  0.1870  0.2997  0.2791
  147SAPE   O1416147   6.487   2.473   6.291 -0.3655 -0.1003 -0.4908
  147SAPE   O1216148   6.419   2.694   6.219 -0.0639  0.1182  0.1971
  147SAPE   O1116149   6.286   2.576   6.389 -0.2551  0.0874 -0.4809
  147SAPE    C116150   6.159   2.645   6.398 -0.1849  0.1768 -1.0626
  147SAPE    HA16151   6.132   2.689   6.300 -0.5823 -0.6199 -1.3272
  147SAPE    HB16152   6.085   2.564   6.420  1.9285 -1.7588 -0.6670
  147SAPE    C216153   6.146   2.736   6.516 -0.2327 -0.2126  0.5309
  147SAPE    HS16154   6.211   2.817   6.477 -1.2386  0.7552  0.7942
  147SAPE   O2116155   6.191   2.669   6.641  0.1681 -0.5833 -0.0056
  147SAPE   C2116156   6.279   2.731   6.711  0.7078 -0.4271 -0.3356
  147SAPE   O2216157   6.328   2.843   6.690  0.2100 -0.1223 -0.7118
  147SAPE   C2216158   6.329   2.627   6.813 -0.6654 -0.8876 -0.3179
  147SAPE   H2R16159   6.239   2.572   6.851 -1.4941  0.6002 -0.0599
  147SAPE   H2S16160   6.403   2.561   6.763  1.5090  1.2427 -0.0317
  147SAPE    C316161   6.004   2.809   6.523 -0.4082 -0.1541 -0.3547
  147SAPE    HX16162   5.918   2.741   6.506 -0.6105 -0.6858  2.3424
  147SAPE    HY16163   6.005   2.889   6.446 -0.3733 -0.1186 -0.3177
  147SAPE   O3116164   5.976   2.868   6.652 -0.6480  0.1229  0.4574
  147SAPE   C3116165   6.000   2.997   6.671 -0.1542 -0.7033  0.1240
  147SAPE   O3216166   6.031   3.074   6.579  0.2862  0.0206  0.0732
  147SAPE   C3216167   5.991   3.032   6.820  0.4193 -0.0604  0.1318
  147SAPE   H2X16168   6.025   2.944   6.878 -0.1732 -1.4966 -1.5670
  147SAPE   H2Y16169   5.883   3.047   6.841  0.1019 -0.5946 -1.0296
  147SAPE   C2316170   6.405   2.702   6.924 -0.0465  0.9552 -0.7002
  147SAPE   H3R16171   6.347   2.791   6.956 -1.6516  0.0233 -0.9373
  147SAPE   H3S16172   6.500   2.727   6.871  1.0834 -1.4451  0.0414
  147SAPE   C2416173   6.451   2.610   7.044 -0.1815 -0.3991  0.1840
  147SAPE   H4R16174   6.363   2.547   7.070 -0.4597  0.0535  0.3483
  147SAPE   H4S16175   6.479   2.673   7.131  1.6745  0.3428 -0.8929
  147SAPE   C2516176   6.563   2.519   7.017 -0.5792  0.0600  0.2913
  147SAPE   H5R16177   6.630   2.563   6.941 -0.1125  3.2701  2.3437
  147SAPE   C2616178   6.584   2.397   7.075 -0.8004 -0.0160  0.3286
  147SAPE   H6R16179   6.658   2.332   7.027 -0.4749  1.7250 -1.6943
  147SAPE   C2716180   6.500   2.327   7.176  1.0846 -0.2973  0.1975
  147SAPE   H7R16181   6.405   2.305   7.123 -0.5021 -0.1178  2.8237
  147SAPE   H7S16182   6.474   2.389   7.264  0.4722  1.1767 -0.9764
  147SAPE   C2816183   6.551   2.197   7.219  0.5795  0.4485 -0.3341
  147SAPE   H8R16184   6.484   2.116   7.187  0.8296  1.1600 -2.9192
  147SAPE   C2916185   6.657   2.177   7.293 -0.0127 -0.1329 -0.3873
  147SAPE   H9R16186   6.694   2.074   7.308 -1.0519 -0.4083  0.3767
  147SAPE  C21016187   6.751   2.280   7.355 -0.4121 -0.6302  0.3908
  147SAPE  H10R16188   6.688   2.369   7.376 -0.1479 -0.1794 -0.6522
  147SAPE  H10S16189   6.820   2.318   7.277 -0.1348 -1.5377  0.1761
  147SAPE  C21116190   6.828   2.231   7.476 -0.1505  0.1445 -0.5269
  147SAPE  H11R16191   6.917   2.174   7.443 -0.8326 -0.9967 -0.4510
  147SAPE  C21216192   6.812   2.253   7.605  0.0755 -0.6365  0.1478
  147SAPE  H12R16193   6.889   2.221   7.678 -1.3554 -1.4921  1.3395
  147SAPE  C21316194   6.694   2.329   7.670 -0.1754  0.4129 -0.0557
  147SAPE  H13R16195   6.615   2.358   7.597  0.2825  0.8123 -0.3950
  147SAPE  H13S16196   6.739   2.427   7.699  0.6965 -0.5402  1.9746
  147SAPE  C21416197   6.635   2.264   7.790  0.0208  0.7883  0.4378
  147SAPE  H14R16198   6.565   2.182   7.769 -0.4264  1.2337  0.1460
  147SAPE  C21516199   6.664   2.291   7.926  0.5598 -0.2911  0.5487
  147SAPE  H15R16200   6.628   2.224   8.005 -0.0984 -2.5733 -1.5709
  147SAPE  C21616201   6.757   2.402   7.970  0.1759  0.1086 -0.0133
  147SAPE  H16R16202   6.745   2.496   7.912  0.1419  0.3556  0.3910
  147SAPE  H16S16203   6.863   2.371   7.959  0.2615 -0.9311  2.8732
  147SAPE  C21716204   6.746   2.432   8.125 -0.7720  0.0537  0.0439
  147SAPE  H17R16205   6.828   2.501   8.157 -2.0270  0.8364  1.6800
  147SAPE  H17S16206   6.745   2.335   8.178 -1.4922  0.9125  1.6590
  147SAPE  C21816207   6.610   2.487   8.160 -0.2535  0.2283  0.1513
  147SAPE  H18R16208   6.538   2.405   8.140  0.7577 -0.5929 -0.2623
  147SAPE  H18S16209   6.578   2.580   8.109 -1.5366 -0.8403 -1.0512
  147SAPE  C21916210   6.599   2.517   8.313  0.5291  0.1263  0.1793
  147SAPE  H19R16211   6.665   2.603   8.339  0.7459 -0.0363  0.1656
  147SAPE  H19S16212   6.625   2.435   8.383  1.4459 -0.3667 -0.6988
  147SAPE  C22016213   6.460   2.565   8.330 -0.2873  0.9071 -0.2642
  147SAPE  H20R16214   6.430   2.534   8.433 -0.7518 -3.9325 -1.6317
  147SAPE  H20S16215   6.376   2.518   8.275 -1.6568  0.5740  1.9733
  147SAPE  H20T16216   6.444   2.675   8.318 -3.1013  0.4913 -1.1493
  147SAPE   C3316217   6.079   3.142   6.881 -0.7297  0.1002 -0.2017
  147SAPE   H3X16218   6.049   3.242   6.843  0.4997  1.0592  1.2646
  147SAPE   H3Y16219   6.177   3.101   6.847 -0.9604 -1.5333  0.9631
  147SAPE   C3416220   6.086   3.140   7.034  0.3501 -0.1355 -0.0976
  147SAPE   H4X16221   6.152   3.056   7.064  2.3978  0.9617 -1.2617
  147SAPE   H4Y16222   5.988   3.114   7.079  0.8630  0.8192  1.6655
  147SAPE   C3516223   6.144   3.267   7.096 -0.8818  0.4856 -1.0867
  147SAPE   H5X16224   6.082   3.354   7.068 -0.4995  0.9402 -0.5554
  147SAPE   H5Y16225   6.248   3.289   7.062 -1.0478  1.9221 -0.7304
  147SAPE   C3616226   6.138   3.268   7.250  0.5729 -0.0796  0.1563
  147SAPE   H6X16227   6.199   3.186   7.294 -0.9716 -1.7942 -0.7558
  147SAPE   H6Y16228   6.034   3.244   7.281  0.5929  0.4191  0.6348
  147SAPE   C3716229   6.177   3.400   7.311 -0.1540 -0.6013 -0.2763
  147SAPE   H7X16230   6.109   3.484   7.286 -1.2464 -0.3341  3.1613
  147SAPE   H7Y16231   6.277   3.432   7.274  0.0553 -0.0805  0.7291
  147SAPE   C3816232   6.179   3.389   7.471 -1.7920 -0.7670  0.7771
  147SAPE   H8X16233   6.213   3.288   7.504 -0.1117 -0.9296 -1.2311
  147SAPE   H8Y16234   6.076   3.401   7.512 -2.3009 -3.6062  0.5428
  147SAPE   C3916235   6.264   3.498   7.532 -0.4012 -0.2767  0.4029
  147SAPE   H9X16236   6.241   3.590   7.473 -0.4515 -0.1414  0.6311
  147SAPE   H9Y16237   6.368   3.470   7.506 -0.6320 -3.1183  2.1983
  147SAPE  C31016238   6.260   3.535   7.679  0.0294  0.3664 -0.1309
  147SAPE  H10X16239   6.160   3.529   7.727  0.6323  1.2658  1.2990
  147SAPE  H10Y16240   6.295   3.639   7.688 -0.5899  0.6919 -1.2295
  147SAPE  C31116241   6.357   3.445   7.759 -0.2509  0.4016  0.4954
  147SAPE  H11X16242   6.462   3.470   7.732 -0.9127  2.5375 -0.2957
  147SAPE  H11Y16243   6.346   3.340   7.722 -0.4031  0.0888  1.4003
  147SAPE  C31216244   6.336   3.439   7.917 -0.3100  0.2571  0.2995
  147SAPE  H12X16245   6.243   3.390   7.954 -0.3546 -1.2147 -1.5873
  147SAPE  H12Y16246   6.324   3.542   7.957 -0.2648 -0.4097  2.1597
  147SAPE  C31316247   6.462   3.369   7.977 -0.5141 -0.2736  0.3227
  147SAPE  H13X16248   6.478   3.389   8.085  0.8112  0.1019  0.0804
  147SAPE  H13Y16249   6.552   3.404   7.921 -0.3843 -0.7169  0.2541
  147SAPE  C31416250   6.453   3.218   7.960  0.4810 -0.5656  0.1127
  147SAPE  H14X16251   6.446   3.209   7.849 -2.2211  3.5269 -0.2899
  147SAPE  H14Y16252   6.356   3.177   7.997  0.8259 -0.0360  1.6636
  147SAPE  C31516253   6.557   3.143   8.037  0.0058  0.0745  0.1598
  147SAPE  H15X16254   6.530   3.145   8.144  0.2634 -2.2569  0.3277
  147SAPE  H15Y16255   6.655   3.193   8.024 -0.0980 -0.1219 -1.7952
  147SAPE  C31616256   6.567   2.995   7.984  0.2816 -0.5859  0.1456
  147SAPE  H16X16257   6.588   3.007   7.875 -1.6290  1.7420 -0.0316
  147SAPE  H16Y16258   6.466   2.949   7.991  0.2616 -0.6360 -0.3904
  147SAPE  C31716259   6.675   2.914   8.056 -0.0351 -0.6619  0.7631
  147SAPE  H17X16260   6.775   2.953   8.029 -0.8923 -0.1877 -2.0370
  147SAPE  H17Y16261   6.678   2.813   8.010  2.5507 -0.3873  0.1620
  147SAPE  C31816262   6.668   2.911   8.208  0.0927  0.6039  0.4559
  147SAPE  H18X16263   6.746   2.839   8.244 -0.9296 -1.2230 -0.8055
  147SAPE  H18Y16264   6.567   2.869   8.226  1.1803 -1.1815  3.1031
  147SAPE  H18Z16265   6.696   3.013   8.240 -0.4884  0.5832  1.0662
  148SAPE     N16266   5.509   5.437   6.348  0.1819  0.8318 -1.3021
  148SAPE   HN116267   5.504   5.533   6.388 -1.7520 -0.6185  2.4659
  148SAPE   HN216268   5.468   5.389   6.432 -0.3539  3.2706 -0.0611
  148SAPE   HN316269   5.604   5.396   6.343  0.1063  0.1901  0.9948
  148SAPE   C1216270   5.415   5.414   6.238  1.0727  0.0006  0.3402
  148SAPE  H12A16271   5.425   5.314   6.190 -1.1714  0.8588 -2.1237
  148SAPE  H12B16272   5.430   5.486   6.154  0.1463 -1.7967 -1.4420
  148SAPE   C1116273   5.265   5.420   6.285  0.4430  0.2759 -0.0893
  148SAPE  H11A16274   5.203   5.433   6.194 -0.4110 -1.2118  0.2659
  148SAPE  H11B16275   5.246   5.513   6.344  1.0181  1.1806 -1.2807
  148SAPE     P16276   5.100   5.281   6.435  0.1666  0.1749  0.5482
  148SAPE   O1316277   5.005   5.384   6.391 -0.6085  0.2037 -0.1066
  148SAPE   O1416278   5.050   5.140   6.433  0.0486  0.0769  0.6153
  148SAPE   O1216279   5.231   5.299   6.354 -0.1205 -0.1329  0.0577
  148SAPE   O1116280   5.156   5.301   6.578 -0.6870  0.0038  0.4580
  148SAPE    C116281   5.163   5.426   6.645 -0.5119 -0.0619  0.7223
  148SAPE    HA16282   5.179   5.514   6.579 -1.4522 -0.4965 -0.1207
  148SAPE    HB16283   5.064   5.439   6.695 -1.1386  2.4320 -0.9737
  148SAPE    C216284   5.268   5.423   6.767 -0.0360  0.1039 -0.6620
  148SAPE    HS16285   5.367   5.396   6.724 -0.1391 -1.1753 -0.1177
  148SAPE   O2116286   5.230   5.334   6.872 -0.0515  0.0275  0.0225
  148SAPE   C2116287   5.283   5.214   6.860  0.3242  0.0176 -0.1642
  148SAPE   O2216288   5.361   5.179   6.774  0.1595 -0.0403 -0.1238
  148SAPE   C2216289   5.226   5.108   6.956 -0.0612  0.2244  0.0029
  148SAPE   H2R16290   5.295   5.119   7.043 -0.0301  0.0701 -0.0020
  148SAPE   H2S16291   5.126   5.145   6.989  0.6073 -0.3318  2.9212
  148SAPE    C316292   5.275   5.571   6.816  0.0120  0.8753 -0.3324
  148SAPE    HX16293   5.171   5.597   6.844 -0.4938 -1.1822 -0.1274
  148SAPE    HY16294   5.304   5.643   6.736 -1.9711  1.1013 -0.8895
  148SAPE   O3116295   5.363   5.588   6.928  0.2804 -0.1796  0.0628
  148SAPE   C3116296   5.489   5.576   6.909 -0.4198 -0.8486  0.6668
  148SAPE   O3216297   5.535   5.562   6.796 -0.1975  1.0387 -0.4173
  148SAPE   C3216298   5.577   5.589   7.034 -0.2295 -0.4953  0.2467
  148SAPE   H2X16299   5.539   5.678   7.089  1.4488 -0.7096  1.8665
  148SAPE   H2Y16300   5.682   5.602   7.000 -0.6655  0.0075 -0.9644
  148SAPE   C2316301   5.221   4.976   6.893 -0.0357 -0.1541 -0.1858
  148SAPE   H3R16302   5.314   4.928   6.855  0.5932 -0.1246  1.2686
  148SAPE   H3S16303   5.154   4.986   6.805 -0.1699 -0.2993 -0.1019
  148SAPE   C2416304   5.141   4.878   6.980 -0.6612 -0.0167  0.0499
  148SAPE   H4R16305   5.138   4.783   6.923 -0.5160 -0.2126  0.3616
  148SAPE   H4S16306   5.041   4.916   7.010 -0.8241 -1.2352  1.1511
  148SAPE   C2516307   5.225   4.844   7.106  0.4901  0.4084 -0.3844
  148SAPE   H5R16308   5.328   4.814   7.084  0.8627  0.5369  1.0358
  148SAPE   C2616309   5.191   4.839   7.235  0.2415 -0.2646 -0.5097
  148SAPE   H6R16310   5.268   4.803   7.306 -0.1634  1.6318  0.9795
  148SAPE   C2716311   5.064   4.864   7.300  0.0773 -0.0687  0.5518
  148SAPE   H7R16312   5.043   4.774   7.362  1.9530 -1.6817 -1.0102
  148SAPE   H7S16313   4.989   4.863   7.219  0.9952 -1.8586 -0.3522
  148SAPE   C2816314   5.067   4.992   7.378 -0.1516 -0.0654  0.0798
  148SAPE   H8R16315   5.084   5.085   7.322  2.2343 -1.2894 -1.4515
  148SAPE   C2916316   5.049   5.013   7.512 -0.1955  0.3422  0.3727
  148SAPE   H9R16317   5.046   5.117   7.548 -1.0984  0.0171  1.2697
  148SAPE  C21016318   5.018   4.911   7.615  0.1091 -0.0874 -0.1816
  148SAPE  H10R16319   5.091   4.828   7.614 -0.0644 -0.2377 -0.8802
  148SAPE  H10S16320   4.919   4.869   7.586  1.0546 -2.7115  0.1520
  148SAPE  C21116321   5.017   4.978   7.753  0.3044  0.8799  0.6320
  148SAPE  H11R16322   4.932   5.045   7.772 -1.1063 -1.1624  1.9707
  148SAPE  C21216323   5.108   4.962   7.845  0.0031 -0.0647  0.4606
  148SAPE  H12R16324   5.091   5.000   7.947 -0.0141 -1.4179  0.9797
  148SAPE  C21316325   5.233   4.881   7.848 -0.7925  0.1010  0.1162
  148SAPE  H13R16326   5.316   4.954   7.857 -0.5340 -0.3726  1.7812
  148SAPE  H13S16327   5.240   4.829   7.750  0.2550 -1.9323  1.2009
  148SAPE  C21416328   5.231   4.788   7.961 -0.2192  0.1531 -0.8160
  148SAPE  H14R16329   5.205   4.685   7.932  0.7644 -1.3768  3.1322
  148SAPE  C21516330   5.266   4.796   8.094  0.4819  0.3380  1.0358
  148SAPE  H15R16331   5.253   4.707   8.158  0.8891  1.1040  2.2037
  148SAPE  C21616332   5.328   4.910   8.168 -0.3257  0.1133  0.4779
  148SAPE  H16R16333   5.382   4.977   8.098 -2.3320  0.0943 -1.1823
  148SAPE  H16S16334   5.394   4.872   8.249 -1.5872  0.6998  1.8338
  148SAPE  C21716335   5.218   4.994   8.233 -0.4685  0.1613 -0.0766
  148SAPE  H17R16336   5.153   5.032   8.150 -2.1740 -1.9701  0.1838
  148SAPE  H17S16337   5.258   5.086   8.280 -0.7751  0.2826 -0.0483
  148SAPE  C21816338   5.137   4.912   8.338 -0.4545  0.2448 -0.6421
  148SAPE  H18R16339   5.210   4.872   8.411 -1.9701  1.2808  1.5675
  148SAPE  H18S16340   5.083   4.826   8.292  0.8959 -1.0986  0.2023
  148SAPE  C21916341   5.026   4.995   8.406 -0.2826 -0.4923  0.3966
  148SAPE  H19R16342   4.957   5.044   8.334  0.8459  0.8450  0.1820
  148SAPE  H19S16343   5.076   5.080   8.458  1.3171  0.0193 -1.8015
  148SAPE  C22016344   4.926   4.910   8.488  0.4599  0.4241  0.0077
  148SAPE  H20R16345   4.834   4.964   8.517  0.4668 -0.8937  2.7659
  148SAPE  H20S16346   4.975   4.866   8.577 -0.4393  0.3479  0.4704
  148SAPE  H20T16347   4.899   4.824   8.422  1.9499  0.0957 -0.2119
  148SAPE   C3316348   5.576   5.457   7.112 -0.1599  0.6557 -1.0813
  148SAPE   H3X16349   5.660   5.446   7.184 -1.0884 -1.9881 -0.2786
  148SAPE   H3Y16350   5.589   5.379   7.033  0.3244 -1.5698  1.0555
  148SAPE   C3416351   5.446   5.442   7.192  0.4225 -0.8184 -0.0279
  148SAPE   H4X16352   5.360   5.434   7.123  0.2609 -1.1413  0.2067
  148SAPE   H4Y16353   5.432   5.535   7.252 -0.7489 -2.3087  2.1180
  148SAPE   C3516354   5.444   5.335   7.300 -0.3395  0.2006  0.2687
  148SAPE   H5X16355   5.541   5.343   7.353  0.6031 -1.9882 -0.9675
  148SAPE   H5Y16356   5.453   5.234   7.253 -1.5501  0.1882  0.0509
  148SAPE   C3616357   5.310   5.328   7.380 -0.2962 -0.3116  0.6064
  148SAPE   H6X16358   5.305   5.231   7.434 -1.8917 -0.2733  0.5931
  148SAPE   H6Y16359   5.231   5.329   7.302  0.1044  0.5383  0.2046
  148SAPE   C3716360   5.296   5.452   7.467  0.0343 -0.2254  0.3015
  148SAPE   H7X16361   5.196   5.441   7.514 -0.3378 -0.3355 -0.5065
  148SAPE   H7Y16362   5.299   5.549   7.413  1.8972 -1.3727 -1.8530
  148SAPE   C3816363   5.403   5.460   7.574  0.4489  0.5501  0.6383
  148SAPE   H8X16364   5.502   5.463   7.524 -0.4455  1.8283 -1.1346
  148SAPE   H8Y16365   5.400   5.372   7.642  0.0527  0.4050  0.4322
  148SAPE   C3916366   5.382   5.589   7.656  0.0649 -0.1104 -0.0529
  148SAPE   H9X16367   5.284   5.574   7.705  0.3905 -0.2719  0.5544
  148SAPE   H9Y16368   5.378   5.676   7.587  0.1680 -0.7750 -0.9120
  148SAPE  C31016369   5.484   5.605   7.764 -0.3867  0.1772 -0.9054
  148SAPE  H10X16370   5.589   5.624   7.733 -0.3195  0.6837 -0.3795
  148SAPE  H10Y16371   5.491   5.507   7.815 -0.1274 -0.1960 -1.6395
  148SAPE  C31116372   5.437   5.722   7.854 -0.2656 -0.0969 -0.8320
  148SAPE  H11X16373   5.339   5.682   7.887 -0.4680 -0.1740 -1.5258
  148SAPE  H11Y16374   5.438   5.813   7.791  0.7106 -0.1426 -0.8991
  148SAPE  C31216375   5.521   5.763   7.983  0.2406 -0.6776 -0.0409
  148SAPE  H12X16376   5.624   5.794   7.954  0.8550 -1.2492  1.4587
  148SAPE  H12Y16377   5.512   5.682   8.058  0.8505 -1.1668 -0.4892
  148SAPE  C31316378   5.444   5.887   8.050 -0.7608  0.8255  0.3570
  148SAPE  H13X16379   5.344   5.843   8.068 -1.0032  0.4138 -1.7291
  148SAPE  H13Y16380   5.434   5.968   7.974 -2.8366 -1.5361 -2.0817
  148SAPE  C31416381   5.520   5.940   8.169  0.1754  0.2275 -0.2118
  148SAPE  H14X16382   5.603   6.005   8.135  0.1936  0.7054  0.7365
  148SAPE  H14Y16383   5.556   5.862   8.240 -2.5171  0.5122  1.6195
  148SAPE  C31516384   5.423   6.032   8.248 -0.0411 -0.0676 -0.2844
  148SAPE  H15X16385   5.403   6.118   8.180 -0.0249  1.6633  1.7660
  148SAPE  H15Y16386   5.474   6.073   8.338 -0.3900  1.3531 -0.6951
  148SAPE  C31616387   5.278   5.987   8.290  0.2632  0.0724 -0.2357
  148SAPE  H16X16388   5.217   5.953   8.203 -0.6194  1.6476 -0.2723
  148SAPE  H16Y16389   5.236   6.065   8.357 -0.6650 -1.7688  1.4269
  148SAPE  C31716390   5.286   5.862   8.374  0.2585 -0.2420 -0.9680
  148SAPE  H17X16391   5.318   5.779   8.307  0.6576 -1.1901  0.3657
  148SAPE  H17Y16392   5.189   5.826   8.414  1.7198  0.1201  3.3964
  148SAPE  C31816393   5.383   5.864   8.496  0.0153  0.6368 -0.2119
  148SAPE  H18X16394   5.487   5.857   8.456  0.5559  0.2862  1.1754
  148SAPE  H18Y16395   5.370   5.776   8.563  1.4480  1.6483  1.5151
  148SAPE  H18Z16396   5.372   5.946   8.571 -2.1238 -1.8853  2.4875
  149SAPE     N16397   3.892   2.537   6.069  0.3223 -0.1743  0.3179
  149SAPE   HN116398   3.897   2.556   6.171  0.4021 -1.6166  0.6071
  149SAPE   HN216399   3.976   2.480   6.045  1.5531  1.8527 -0.4871
  149SAPE   HN316400   3.898   2.627   6.017 -0.4272 -0.5723 -0.4607
  149SAPE   C1216401   3.767   2.466   6.046  0.9374  0.1739  0.5543
  149SAPE  H12A16402   3.778   2.424   5.944 -3.3536  1.6039 -0.7241
  149SAPE  H12B16403   3.683   2.539   6.035  1.1838  0.5532  1.0930
  149SAPE   C1116404   3.744   2.372   6.164  0.1714 -0.1429  0.5636
  149SAPE  H11A16405   3.651   2.312   6.157 -0.5203  0.9732 -0.1092
  149SAPE  H11B16406   3.725   2.446   6.244  2.7326 -0.2585  1.3707
  149SAPE     P16407   3.874   2.210   6.308  0.0830 -0.0454 -0.0744
  149SAPE   O1316408   3.773   2.099   6.311 -0.0154  0.0051  0.0386
  149SAPE   O1416409   4.016   2.158   6.301  0.8530  0.2701 -0.3970
  149SAPE   O1216410   3.857   2.294   6.182 -0.4059  0.2425  0.3131
  149SAPE   O1116411   3.843   2.310   6.426 -0.2320  0.1826 -0.2135
  149SAPE    C116412   3.939   2.417   6.457  0.2436 -0.1978 -0.5647
  149SAPE    HA16413   4.005   2.433   6.369  1.1295  0.4583  0.2022
  149SAPE    HB16414   3.884   2.511   6.480  1.0929  0.0506  0.4870
  149SAPE    C216415   4.030   2.376   6.582  0.7967  0.2370  0.3270
  149SAPE    HS16416   4.072   2.275   6.559 -0.9494 -0.0733 -1.9853
  149SAPE   O2116417   3.936   2.395   6.691  0.2652  0.0067 -0.1421
  149SAPE   C2116418   3.921   2.287   6.776 -1.0229 -0.6931 -0.2333
  149SAPE   O2216419   3.974   2.180   6.765 -0.0224  0.2075 -0.1514
  149SAPE   C2216420   3.837   2.338   6.895  0.1302  0.4482  0.2746
  149SAPE   H2R16421   3.840   2.449   6.906 -1.3623  0.3900  1.6947
  149SAPE   H2S16422   3.731   2.316   6.868 -0.2291  1.3230  0.9019
  149SAPE    C316423   4.143   2.479   6.605  0.0404  1.3540 -0.5885
  149SAPE    HX16424   4.105   2.583   6.600 -0.7930  1.1532  1.0123
  149SAPE    HY16425   4.219   2.468   6.525  0.2716 -1.8424 -0.0480
  149SAPE   O3116426   4.205   2.462   6.739  0.2172  0.1029  0.0827
  149SAPE   C3116427   4.302   2.549   6.766 -0.0364  0.0513  0.4918
  149SAPE   O3216428   4.340   2.636   6.683  0.4962 -0.4650 -0.6192
  149SAPE   C3216429   4.352   2.525   6.907  0.3857  0.2786 -0.3107
  149SAPE   H2X16430   4.461   2.499   6.902  1.8801  5.4653 -0.0853
  149SAPE   H2Y16431   4.300   2.437   6.950  1.2303 -0.7405 -1.3105
  149SAPE   C2316432   3.869   2.268   7.028  0.0694  0.0501 -0.0582
  149SAPE   H3R16433   3.850   2.161   7.005 -1.6867  0.7479 -2.2721
  149SAPE   H3S16434   3.789   2.300   7.099 -0.0258 -0.6153  0.1373
  149SAPE   C2416435   3.998   2.310   7.084  0.0643  0.5659 -0.4678
  149SAPE   H4R16436   3.996   2.421   7.090  1.0234  0.6467 -1.4087
  149SAPE   H4S16437   4.083   2.277   7.021  0.8867 -0.4110  1.0816
  149SAPE   C2516438   4.016   2.255   7.224  0.9246  0.6539  0.7417
  149SAPE   H5R16439   4.031   2.332   7.301  1.9851  0.3446  0.8585
  149SAPE   C2616440   4.038   2.123   7.259 -0.5748  0.2124  0.3509
  149SAPE   H6R16441   4.045   2.090   7.364 -1.0785  1.8727  0.9288
  149SAPE   C2716442   4.055   2.004   7.163  0.9064 -0.5191  0.7903
  149SAPE   H7R16443   4.098   2.039   7.067 -0.9211  0.3544  0.2461
  149SAPE   H7S16444   3.951   1.974   7.140  1.7533 -0.9482 -3.3196
  149SAPE   C2816445   4.138   1.900   7.231  0.1020  0.0014  0.0187
  149SAPE   H8R16446   4.237   1.943   7.254  0.6133 -1.2410  0.2106
  149SAPE   C2916447   4.115   1.764   7.234 -0.1394 -0.1769  0.0804
  149SAPE   H9R16448   4.193   1.708   7.288  2.2486  0.1422 -2.7875
  149SAPE  C21016449   3.997   1.689   7.187  0.9435  0.2613 -0.5380
  149SAPE  H10R16450   3.908   1.740   7.229 -0.7875 -2.8846 -0.0278
  149SAPE  H10S16451   3.995   1.599   7.253  1.1127  1.9006  1.8070
  149SAPE  C21116452   3.977   1.666   7.033  0.0083  0.7558  0.0380
  149SAPE  H11R16453   3.874   1.667   6.995  0.0453 -0.8811 -0.1631
  149SAPE  C21216454   4.075   1.614   6.952 -0.3175 -0.3637  0.3869
  149SAPE  H12R16455   4.051   1.610   6.845  2.0807 -3.7517 -0.1672
  149SAPE  C21316456   4.216   1.575   6.992 -0.4017  0.8393 -0.2732
  149SAPE  H13R16457   4.241   1.480   6.941  0.9100  0.6909  0.5858
  149SAPE  H13S16458   4.223   1.562   7.102  1.2689  3.9359  0.0988
  149SAPE  C21416459   4.325   1.671   6.961  0.4391  0.4612  0.1853
  149SAPE  H14R16460   4.295   1.759   6.903 -3.0898 -1.2288 -0.8388
  149SAPE  C21516461   4.451   1.661   7.003 -0.8163 -0.4157 -0.4097
  149SAPE  H15R16462   4.519   1.743   6.975  0.7356 -1.7625 -0.7001
  149SAPE  C21616463   4.509   1.547   7.084  0.2688 -0.7552 -0.1250
  149SAPE  H16R16464   4.586   1.501   7.018  0.8416  1.4851 -1.0883
  149SAPE  H16S16465   4.428   1.474   7.107  1.4690 -1.7974  0.9410
  149SAPE  C21716466   4.552   1.594   7.222 -0.4447  0.2357  0.0059
  149SAPE  H17R16467   4.463   1.597   7.288 -0.0509 -1.6105  0.6746
  149SAPE  H17S16468   4.582   1.701   7.230 -0.0329  0.0677  0.8037
  149SAPE  C21816469   4.663   1.510   7.287 -0.0794  0.0482 -0.0729
  149SAPE  H18R16470   4.738   1.495   7.206  0.5958 -1.8378  0.8357
  149SAPE  H18S16471   4.624   1.409   7.313 -0.1334  0.3058  0.8734
  149SAPE  C21916472   4.719   1.568   7.418 -0.4450 -1.0024 -0.2298
  149SAPE  H19R16473   4.783   1.657   7.395  0.3072 -0.7631  2.4971
  149SAPE  H19S16474   4.796   1.499   7.459 -1.5242 -1.5071  1.0028
  149SAPE  C22016475   4.622   1.620   7.518  0.0345 -0.0568  0.8041
  149SAPE  H20R16476   4.560   1.699   7.472  0.3845 -0.0612  0.3184
  149SAPE  H20S16477   4.673   1.665   7.606 -0.5041  3.2764 -0.4480
  149SAPE  H20T16478   4.549   1.541   7.547 -1.3302 -0.1269 -2.4848
  149SAPE   C3316479   4.339   2.653   6.998  0.1148  0.3441 -0.6603
  149SAPE   H3X16480   4.317   2.747   6.943  1.6113  3.2371  3.2257
  149SAPE   H3Y16481   4.435   2.674   7.051 -0.1335 -0.7530  0.2633
  149SAPE   C3416482   4.236   2.642   7.111 -0.4203 -0.1207 -0.4346
  149SAPE   H4X16483   4.147   2.597   7.061 -0.9745  2.3166 -1.8556
  149SAPE   H4Y16484   4.218   2.746   7.147  1.4763  0.6931 -1.6745
  149SAPE   C3516485   4.284   2.539   7.219 -0.1994 -0.2195  0.1877
  149SAPE   H5X16486   4.327   2.452   7.165  2.0518 -0.0670  1.5909
  149SAPE   H5Y16487   4.203   2.492   7.278  1.3438 -1.5355  1.3575
  149SAPE   C3616488   4.373   2.609   7.320 -0.4029  0.1241 -0.9804
  149SAPE   H6X16489   4.310   2.687   7.368  0.9498  1.9070 -1.9734
  149SAPE   H6Y16490   4.458   2.655   7.266 -0.6558  1.1934 -0.5017
  149SAPE   C3716491   4.420   2.519   7.426  0.3458  0.6447 -0.0482
  149SAPE   H7X16492   4.497   2.449   7.386 -0.8390  0.4606 -2.1699
  149SAPE   H7Y16493   4.335   2.456   7.462  0.2173  1.3835  0.9693
  149SAPE   C3816494   4.491   2.595   7.535 -0.1897 -0.4959  0.3178
  149SAPE   H8X16495   4.423   2.675   7.570 -2.7396 -2.3717 -0.0923
  149SAPE   H8Y16496   4.583   2.647   7.500 -1.3701  1.4011 -0.1129
  149SAPE   C3916497   4.532   2.514   7.655  0.2999 -0.1117 -0.7808
  149SAPE   H9X16498   4.624   2.552   7.705  0.4202 -0.2878 -0.8696
  149SAPE   H9Y16499   4.563   2.413   7.623 -0.5528 -0.6158 -0.0699
  149SAPE  C31016500   4.412   2.484   7.751 -0.4735 -0.2565 -0.3727
  149SAPE  H10X16501   4.324   2.442   7.698  0.6428 -1.5570 -1.2600
  149SAPE  H10Y16502   4.387   2.584   7.792  1.3074 -0.5189  1.5829
  149SAPE  C31116503   4.450   2.391   7.869 -0.8226  0.3574  0.4057
  149SAPE  H11X16504   4.471   2.290   7.826 -0.7261  1.4042 -2.1910
  149SAPE  H11Y16505   4.371   2.375   7.945  1.0857 -4.1736  1.7996
  149SAPE  C31216506   4.574   2.450   7.945  0.1550  0.8574 -0.0314
  149SAPE  H12X16507   4.564   2.559   7.927 -1.2304  0.8137  0.3506
  149SAPE  H12Y16508   4.669   2.419   7.895  1.1937  1.8590  1.2485
  149SAPE  C31316509   4.567   2.417   8.098  0.5294  0.3229 -0.3249
  149SAPE  H13X16510   4.599   2.312   8.110 -0.2832  0.3040  2.2417
  149SAPE  H13Y16511   4.463   2.427   8.137  0.8834 -0.6453  0.9142
  149SAPE  C31416512   4.661   2.488   8.186 -0.0077  0.1041 -0.1896
  149SAPE  H14X16513   4.767   2.465   8.161  0.5618  0.8557  1.3554
  149SAPE  H14Y16514   4.646   2.451   8.290 -0.9238  0.7711 -0.0742
  149SAPE  C31516515   4.649   2.637   8.189 -0.2329 -0.5139  0.0775
  149SAPE  H15X16516   4.690   2.673   8.092 -0.0008 -0.9931 -0.0056
  149SAPE  H15Y16517   4.723   2.678   8.260 -1.6591 -0.7085  1.7489
  149SAPE  C31616518   4.515   2.695   8.237 -0.3762  0.4509 -0.4512
  149SAPE  H16X16519   4.500   2.656   8.340 -2.4006  1.3112 -0.3743
  149SAPE  H16Y16520   4.440   2.650   8.169 -0.6432 -3.4209  2.0948
  149SAPE  C31716521   4.498   2.844   8.244 -0.5772 -0.0071 -0.4470
  149SAPE  H17X16522   4.484   2.895   8.146  1.3553  2.7342  0.5761
  149SAPE  H17Y16523   4.594   2.886   8.282 -1.6267  1.4842  0.6426
  149SAPE  C31816524   4.375   2.882   8.326  0.3541 -0.3713  0.6051
  149SAPE  H18X16525   4.294   2.824   8.277 -0.7742  0.9919  0.7726
  149SAPE  H18Y16526   4.351   2.991   8.321 -1.2768 -0.6542  1.6037
  149SAPE  H18Z16527   4.399   2.853   8.430  2.3350  3.7807  1.5243
  150SAPE     N16528   2.313   4.709   6.351  0.1366 -0.2767 -0.2845
  150SAPE   HN116529   2.367   4.623   6.375  0.4770  0.0233  0.0536
  150SAPE   HN216530   2.378   4.764   6.292  0.9798 -1.8520 -0.8989
  150SAPE   HN316531   2.295   4.750   6.445 -2.2354 -3.3001  0.7818
  150SAPE   C1216532   2.188   4.676   6.277  0.5301 -0.2706  0.5383
  150SAPE  H12A16533   2.207   4.607   6.192 -2.6504  0.3001 -0.7651
  150SAPE  H12B16534   2.150   4.773   6.238  2.5871  0.1575 -0.5631
  150SAPE   C1116535   2.081   4.609   6.368 -0.5658  0.2720 -0.3037
  150SAPE  H11A16536   2.068   4.670   6.460  0.5054 -0.9983  0.7458
  150SAPE  H11B16537   2.123   4.515   6.412  2.9255  2.5484  1.7122
  150SAPE     P16538   1.826   4.640   6.352  0.1165  0.6104  0.0289
  150SAPE   O1316539   1.829   4.785   6.381 -0.3209  0.1514 -0.1439
  150SAPE   O1416540   1.726   4.611   6.245 -0.1566  0.0907 -0.3296
  150SAPE   O1216541   1.963   4.587   6.293  0.1519 -0.1325 -0.6811
  150SAPE   O1116542   1.800   4.561   6.486 -0.1414  0.3978  0.4452
  150SAPE    C116543   1.786   4.423   6.499  0.1458  0.1700 -0.7540
  150SAPE    HA16544   1.834   4.364   6.418  0.3822  0.6553 -0.9707
  150SAPE    HB16545   1.841   4.387   6.590  0.5825  0.3029 -0.9636
  150SAPE    C216546   1.643   4.365   6.506 -0.6669 -0.2512 -0.2417
  150SAPE    HS16547   1.585   4.395   6.416  0.1961  1.2455 -0.3399
  150SAPE   O2116548   1.571   4.414   6.621 -0.2517 -0.1697 -0.2028
  150SAPE   C2116549   1.549   4.543   6.637  0.1228 -0.3598  0.7627
  150SAPE   O2216550   1.548   4.631   6.548 -0.0816  0.6554 -0.0735
  150SAPE   C2216551   1.467   4.554   6.769 -0.0929  1.2035  0.2893
  150SAPE   H2R16552   1.389   4.629   6.742  1.9320  2.9791 -0.9015
  150SAPE   H2S16553   1.435   4.453   6.801  3.6292 -0.2047  0.0079
  150SAPE    C316554   1.643   4.206   6.502  0.4797 -0.1147 -0.1808
  150SAPE    HX16555   1.697   4.174   6.411 -1.6627  2.5073 -2.5367
  150SAPE    HY16556   1.538   4.174   6.486  0.1278  0.5810  0.6730
  150SAPE   O3116557   1.691   4.140   6.624  0.7504  0.1528  0.3447
  150SAPE   C3116558   1.805   4.072   6.618 -0.2732 -0.2161  0.5672
  150SAPE   O3216559   1.863   4.049   6.515  0.0838 -0.1122  0.6842
  150SAPE   C3216560   1.853   4.055   6.756 -0.0783 -0.1758  0.0215
  150SAPE   H2X16561   1.765   4.072   6.821 -0.6295 -2.2088 -0.1124
  150SAPE   H2Y16562   1.920   4.140   6.781  0.2458 -0.6069  0.6364
  150SAPE   C2316563   1.529   4.625   6.895 -0.1792  0.2938 -0.0869
  150SAPE   H3R16564   1.446   4.656   6.962  0.4846  1.4908  0.2190
  150SAPE   H3S16565   1.584   4.718   6.868  2.2363 -1.0679 -0.1408
  150SAPE   C2416566   1.636   4.532   6.968 -0.3055 -0.0003  0.2854
  150SAPE   H4R16567   1.721   4.513   6.899  0.5139  1.1839  0.9355
  150SAPE   H4S16568   1.592   4.432   6.984 -0.5987 -0.0170 -0.5616
  150SAPE   C2516569   1.693   4.607   7.088  0.0154 -0.6452  0.1811
  150SAPE   H5R16570   1.763   4.688   7.060 -0.1728 -1.0180 -1.4480
  150SAPE   C2616571   1.657   4.593   7.217  0.5776 -0.0319 -0.0237
  150SAPE   H6R16572   1.711   4.654   7.291  0.3560  0.1674 -0.0278
  150SAPE   C2716573   1.559   4.496   7.279 -0.1149 -1.0317 -0.0365
  150SAPE   H7R16574   1.494   4.448   7.202  1.4806 -3.3724 -0.0241
  150SAPE   H7S16575   1.492   4.541   7.356 -0.7608 -0.3049 -0.9938
  150SAPE   C2816576   1.641   4.381   7.321 -0.0916 -0.2339 -0.8977
  150SAPE   H8R16577   1.668   4.309   7.243  4.0122 -0.6723  0.6977
  150SAPE   C2916578   1.680   4.361   7.453 -0.1054 -0.4546  0.2702
  150SAPE   H9R16579   1.754   4.283   7.476  0.8349  1.0927  2.9475
  150SAPE  C21016580   1.660   4.462   7.561 -0.5883 -1.0668 -0.0274
  150SAPE  H10R16581   1.616   4.407   7.647  0.0934 -0.8633  0.4539
  150SAPE  H10S16582   1.589   4.545   7.541  0.6262  0.4802  1.7218
  150SAPE  C21116583   1.789   4.532   7.600  0.0017 -0.2646 -0.3116
  150SAPE  H11R16584   1.837   4.584   7.516  0.8018 -2.4919 -1.3243
  150SAPE  C21216585   1.854   4.530   7.717  0.1594 -0.3534 -0.2465
  150SAPE  H12R16586   1.948   4.586   7.724 -0.1762  0.6801 -2.8588
  150SAPE  C21316587   1.818   4.450   7.829 -0.1479 -0.4251 -0.5050
  150SAPE  H13R16588   1.916   4.426   7.877 -0.3570 -3.1640 -1.2404
  150SAPE  H13S16589   1.781   4.352   7.790 -1.4035 -0.6064  1.0417
  150SAPE  C21416590   1.721   4.500   7.931  0.4538  0.2292 -0.9539
  150SAPE  H14R16591   1.620   4.458   7.945  0.9419 -0.3506  1.3399
  150SAPE  C21516592   1.756   4.600   8.012  0.5529  0.4876  0.6081
  150SAPE  H15R16593   1.693   4.635   8.095 -1.9337 -1.4326 -0.3304
  150SAPE  C21616594   1.886   4.671   8.011 -0.5134 -0.2598 -0.6120
  150SAPE  H16R16595   1.885   4.768   8.064  0.2995  0.5064 -1.9330
  150SAPE  H16S16596   1.911   4.700   7.907 -0.7949  1.1314 -0.3130
  150SAPE  C21716597   2.017   4.603   8.064 -0.2723 -0.2013 -0.0964
  150SAPE  H17R16598   2.100   4.637   7.999 -1.1449  0.4871 -0.8852
  150SAPE  H17S16599   2.008   4.495   8.042 -1.7769 -0.2051  0.3678
  150SAPE  C21816600   2.057   4.630   8.208 -0.5236 -0.1581 -0.3359
  150SAPE  H18R16601   2.060   4.739   8.231 -0.3934  0.0998 -1.5356
  150SAPE  H18S16602   2.163   4.601   8.222 -0.3591  0.9916  1.2001
  150SAPE  C21916603   1.976   4.559   8.320  0.1878 -0.6920  0.6621
  150SAPE  H19R16604   1.999   4.450   8.323 -2.8937 -1.4763 -0.2807
  150SAPE  H19S16605   1.869   4.566   8.292  0.3407  0.0565  0.2228
  150SAPE  C22016606   2.004   4.610   8.460  0.5403  0.5373 -0.0390
  150SAPE  H20R16607   1.974   4.715   8.478 -1.8471  0.1427 -1.3393
  150SAPE  H20S16608   2.115   4.604   8.463  0.5830  1.3631  0.0705
  150SAPE  H20T16609   1.954   4.545   8.535 -0.7481  0.7737 -0.6728
  150SAPE   C3316610   1.936   3.924   6.790  0.6456 -0.2136 -0.5501
  150SAPE   H3X16611   2.013   3.901   6.713 -0.0234 -3.2151 -0.4527
  150SAPE   H3Y16612   1.871   3.836   6.806 -2.4900  2.2311  1.2364
  150SAPE   C3416613   2.009   3.941   6.932  0.3361 -0.1070  0.7933
  150SAPE   H4X16614   2.078   4.028   6.936  0.4111 -0.1550  0.5393
  150SAPE   H4Y16615   2.074   3.852   6.939 -0.6540 -0.9702 -0.5828
  150SAPE   C3516616   1.918   3.932   7.055 -0.4688  0.1981  0.3101
  150SAPE   H5X16617   1.873   3.831   7.046  0.6018 -0.2094 -0.8721
  150SAPE   H5Y16618   1.833   4.003   7.044 -1.1916 -0.5421  0.9988
  150SAPE   C3616619   2.002   3.953   7.180  0.1446  0.0843 -0.0767
  150SAPE   H6X16620   2.054   4.051   7.172 -1.5123  0.8431 -2.4187
  150SAPE   H6Y16621   2.086   3.880   7.192 -1.2337 -2.3594 -3.5784
  150SAPE   C3716622   1.922   3.976   7.312 -0.2248  0.7005 -0.5670
  150SAPE   H7X16623   1.871   3.879   7.335 -0.2452  0.7877 -0.2353
  150SAPE   H7Y16624   1.847   4.056   7.296  1.1769  2.6336  1.8947
  150SAPE   C3816625   2.015   4.012   7.428  0.0987 -0.2413  0.1759
  150SAPE   H8X16626   2.065   4.109   7.409 -0.0289 -0.8317 -4.2466
  150SAPE   H8Y16627   2.094   3.934   7.424  0.6579  0.2271  1.5647
  150SAPE   C3916628   1.962   3.986   7.574  0.4365  0.2903  0.4146
  150SAPE   H9X16629   1.929   3.879   7.575 -1.3539  0.7332 -2.2576
  150SAPE   H9Y16630   1.874   4.054   7.585  2.2548  2.5048  2.3026
  150SAPE  C31016631   2.056   4.012   7.691  0.1813  0.3245 -0.1568
  150SAPE  H10X16632   2.113   4.107   7.675  0.1439  0.2051 -1.0502
  150SAPE  H10Y16633   2.138   3.938   7.706 -0.1609 -0.0453 -0.1093
  150SAPE  C31116634   1.977   4.015   7.821 -0.0595  0.0919 -0.0508
  150SAPE  H11X16635   1.926   3.920   7.848  0.3446 -0.1533 -0.1499
  150SAPE  H11Y16636   1.886   4.080   7.819 -0.3154  0.0959  3.8025
  150SAPE  C31216637   2.071   4.045   7.937  0.0397 -0.4055  0.0961
  150SAPE  H12X16638   2.136   4.129   7.903 -0.6026  0.3151  0.6117
  150SAPE  H12Y16639   2.134   3.956   7.957 -1.5143 -1.7053 -0.5893
  150SAPE  C31316640   1.999   4.085   8.061 -0.8513 -0.2434  0.0084
  150SAPE  H13X16641   1.916   4.017   8.089 -2.2992  1.4854  0.1186
  150SAPE  H13Y16642   1.950   4.185   8.052 -1.1365 -0.2195  1.5564
  150SAPE  C31416643   2.095   4.086   8.175  0.0211 -0.0619 -0.1313
  150SAPE  H14X16644   2.168   4.168   8.160 -0.9367  0.2777 -3.6586
  150SAPE  H14Y16645   2.147   3.989   8.193 -1.1303 -0.3243  2.2084
  150SAPE  C31516646   2.030   4.132   8.307  0.2463 -0.3251 -0.2716
  150SAPE  H15X16647   1.944   4.066   8.333 -0.5458  1.0266  0.6452
  150SAPE  H15Y16648   1.977   4.228   8.288  0.0837 -0.9037 -3.4226
  150SAPE  C31616649   2.129   4.178   8.412 -0.7403 -0.1372 -0.2018
  150SAPE  H16X16650   2.179   4.272   8.382  0.9895 -1.1320 -0.5642
  150SAPE  H16Y16651   2.217   4.110   8.412 -1.7140 -1.4361  0.0797
  150SAPE  C31716652   2.061   4.191   8.549  0.3978  0.1987 -0.6651
  150SAPE  H17X16653   2.057   4.084   8.577  0.1140  0.2336 -0.5751
  150SAPE  H17Y16654   1.963   4.240   8.532  1.1499  1.1196 -2.8206
  150SAPE  C31816655   2.148   4.270   8.651 -0.5334 -0.5742 -0.7592
  150SAPE  H18X16656   2.172   4.373   8.619  0.9967 -0.8448 -0.5573
  150SAPE  H18Y16657   2.241   4.213   8.673 -1.4404 -2.0464 -0.5387
  150SAPE  H18Z16658   2.093   4.279   8.747 -0.3787  2.9429 -0.8742
  151SAPE     N16659   3.862   4.298   6.584 -0.0153  0.2266 -0.0291
  151SAPE   HN116660   3.890   4.388   6.628 -0.7418  0.6957 -0.5219
  151SAPE   HN216661   3.949   4.259   6.543  0.0663  0.3346  0.0400
  151SAPE   HN316662   3.791   4.325   6.513 -2.0284  1.0726  2.1619
  151SAPE   C1216663   3.797   4.186   6.670 -0.5231 -0.1362  0.2552
  151SAPE  H12A16664   3.718   4.233   6.733 -1.0486  2.3325 -2.0387
  151SAPE  H12B16665   3.870   4.161   6.750 -0.3291  0.1509  0.1718
  151SAPE   C1116666   3.734   4.073   6.596 -0.5875  0.1049 -0.9603
  151SAPE  H11A16667   3.670   4.109   6.513  0.4286  0.2080 -1.7319
  151SAPE  H11B16668   3.677   4.000   6.657  1.5902 -0.5122  0.4771
  151SAPE     P16669   3.837   3.855   6.510 -0.5248  0.0634  0.4328
  151SAPE   O1316670   3.714   3.801   6.453  0.1806 -0.1423 -0.4447
  151SAPE   O1416671   3.958   3.815   6.432  0.0896  0.0188  0.1155
  151SAPE   O1216672   3.836   4.010   6.527  0.0509  0.2871 -0.3425
  151SAPE   O1116673   3.860   3.792   6.659  0.1104 -0.0077 -0.1817
  151SAPE    C116674   3.952   3.841   6.750  0.1453 -0.0213  0.1345
  151SAPE    HA16675   4.048   3.786   6.744 -0.4770 -1.0010 -1.3778
  151SAPE    HB16676   3.967   3.948   6.726 -1.5018  0.0565 -0.7087
  151SAPE    C216677   3.901   3.821   6.895  0.3952  0.3982 -0.3897
  151SAPE    HS16678   3.868   3.716   6.907  1.5989 -0.2342 -2.1681
  151SAPE   O2116679   3.794   3.914   6.916 -0.5646  0.0304 -0.5514
  151SAPE   C2116680   3.695   3.865   6.994  0.5117 -0.2916  0.3341
  151SAPE   O2216681   3.692   3.760   7.052 -0.0796  0.4322 -0.2478
  151SAPE   C2216682   3.563   3.949   6.974 -0.1981  0.3221 -0.3971
  151SAPE   H2R16683   3.552   3.964   6.864 -2.3354 -0.7694 -0.3859
  151SAPE   H2S16684   3.478   3.897   7.022  0.5410  1.1149  1.8966
  151SAPE    C316685   4.014   3.845   6.997  0.1151  0.2964  0.0409
  151SAPE    HX16686   4.073   3.929   6.954 -0.2984  0.0202 -1.1283
  151SAPE    HY16687   4.082   3.757   6.988 -0.3465 -0.5198  3.4366
  151SAPE   O3116688   3.957   3.868   7.129  0.5926 -0.0846  0.2054
  151SAPE   C3116689   4.030   3.816   7.232  0.2293  0.2186 -0.2446
  151SAPE   O3216690   4.128   3.750   7.214  0.1495  0.4795  0.4586
  151SAPE   C3216691   3.975   3.847   7.367 -0.3166  0.2743 -0.1325
  151SAPE   H2X16692   3.866   3.829   7.365 -0.5205  1.4440 -1.6834
  151SAPE   H2Y16693   3.983   3.955   7.390  3.3458 -0.0493  0.7875
  151SAPE   C2316694   3.582   4.088   7.032 -0.5236 -0.1202  0.6496
  151SAPE   H3R16695   3.658   4.133   6.965 -0.8992  0.5477  0.6612
  151SAPE   H3S16696   3.620   4.063   7.134  0.2006  0.3872  0.5050
  151SAPE   C2416697   3.454   4.166   7.040  0.2080 -0.2110  0.5305
  151SAPE   H4R16698   3.391   4.119   7.119 -1.0030  0.6903  0.1249
  151SAPE   H4S16699   3.406   4.173   6.940  1.0956 -0.8259  0.0506
  151SAPE   C2516700   3.484   4.315   7.078 -0.9578  0.1161 -0.1616
  151SAPE   H5R16701   3.585   4.356   7.070 -1.0211  0.4336  0.5878
  151SAPE   C2616702   3.387   4.404   7.124 -0.5480 -0.6629  0.0433
  151SAPE   H6R16703   3.413   4.510   7.137 -1.4267 -0.5852  1.4496
  151SAPE   C2716704   3.246   4.379   7.159 -0.3443 -0.3135  0.0978
  151SAPE   H7R16705   3.220   4.271   7.163  1.8384 -0.9023 -0.3342
  151SAPE   H7S16706   3.172   4.408   7.081 -2.5245 -0.2987  2.0559
  151SAPE   C2816707   3.195   4.446   7.283 -0.6612 -0.5464 -0.2024
  151SAPE   H8R16708   3.121   4.525   7.264  0.4399  0.0456 -2.4768
  151SAPE   C2916709   3.222   4.418   7.413  0.5023  0.0687  0.0955
  151SAPE   H9R16710   3.175   4.479   7.491  0.5420  0.6052 -0.2911
  151SAPE  C21016711   3.317   4.312   7.464  0.4957 -0.6617 -0.5031
  151SAPE  H10R16712   3.338   4.238   7.384 -2.2809 -4.0998  1.6740
  151SAPE  H10S16713   3.278   4.250   7.547  2.4362  1.3666  2.1244
  151SAPE  C21116714   3.435   4.385   7.515  0.5768  0.1449 -0.0957
  151SAPE  H11R16715   3.497   4.420   7.432  0.1353  0.1063 -0.4450
  151SAPE  C21216716   3.472   4.417   7.644  0.2780  0.0607  0.1976
  151SAPE  H12R16717   3.571   4.460   7.664 -0.0656  0.5237  0.9184
  151SAPE  C21316718   3.402   4.379   7.773  0.9078 -0.6416 -0.3955
  151SAPE  H13R16719   3.319   4.310   7.745  0.7980 -0.8377  0.4058
  151SAPE  H13S16720   3.354   4.469   7.819  0.0336 -2.5629  2.6943
  151SAPE  C21416721   3.494   4.319   7.876 -0.3014 -0.3207  0.0187
  151SAPE  H14R16722   3.575   4.253   7.840 -0.1163 -0.1945  0.2001
  151SAPE  C21516723   3.476   4.345   8.012  0.0544 -0.3404  0.0885
  151SAPE  H15R16724   3.535   4.279   8.077 -0.7883  0.0975  1.3160
  151SAPE  C21616725   3.364   4.416   8.082  0.4946 -0.4976 -0.0667
  151SAPE  H16R16726   3.267   4.363   8.082  0.0473  0.2898 -0.7530
  151SAPE  H16S16727   3.335   4.501   8.017 -2.4981  0.8826  2.8095
  151SAPE  C21716728   3.397   4.467   8.224 -0.3862  0.7714 -0.5032
  151SAPE  H17R16729   3.323   4.542   8.260 -0.6272 -0.1809  1.0992
  151SAPE  H17S16730   3.494   4.521   8.217 -0.2729  0.4190 -1.9115
  151SAPE  C21816731   3.411   4.362   8.337 -0.7509  0.4358  0.2292
  151SAPE  H18R16732   3.444   4.426   8.422  0.5184  1.1416 -0.7588
  151SAPE  H18S16733   3.488   4.284   8.324 -3.2153 -2.2392  0.7327
  151SAPE  C21916734   3.275   4.293   8.380 -0.6383  0.0362 -0.0759
  151SAPE  H19R16735   3.232   4.231   8.299 -3.0523 -0.4954  1.5097
  151SAPE  H19S16736   3.199   4.371   8.403 -1.6558 -1.7116  3.1254
  151SAPE  C22016737   3.296   4.194   8.493 -0.2951 -0.6003  0.6630
  151SAPE  H20R16738   3.330   4.253   8.581  1.7327  1.4326 -1.3503
  151SAPE  H20S16739   3.204   4.139   8.520 -0.8193 -0.3678 -0.5979
  151SAPE  H20T16740   3.376   4.120   8.470 -0.5718 -0.2097 -1.8163
  151SAPE   C3316741   4.047   3.765   7.487 -0.1063 -0.7119  0.4504
  151SAPE   H3X16742   4.153   3.790   7.465 -0.5594  0.5327 -0.4179
  151SAPE   H3Y16743   4.027   3.658   7.466 -0.8243 -0.3216 -0.9597
  151SAPE   C3416744   4.002   3.802   7.625  0.2561 -0.6857 -0.0613
  151SAPE   H4X16745   3.891   3.802   7.625  0.1882  1.8585  0.4702
  151SAPE   H4Y16746   4.025   3.909   7.644 -1.8602 -0.0930 -0.5449
  151SAPE   C3516747   4.062   3.711   7.730 -0.3602 -0.2712 -0.7357
  151SAPE   H5X16748   4.171   3.710   7.709 -0.6934 -0.6579 -2.6022
  151SAPE   H5Y16749   4.026   3.608   7.708  1.5278 -1.5518  1.6762
  151SAPE   C3616750   4.032   3.752   7.878  0.5556  0.5131  0.2263
  151SAPE   H6X16751   3.922   3.758   7.896  0.3871 -1.5317  0.1501
  151SAPE   H6Y16752   4.076   3.853   7.892  0.3258  0.6083  0.2740
  151SAPE   C3716753   4.103   3.657   7.967  1.1751 -0.3499  0.2017
  151SAPE   H7X16754   4.210   3.652   7.936  1.4534  0.3296  1.0138
  151SAPE   H7Y16755   4.056   3.557   7.954  0.1067  0.0317  0.9993
  151SAPE   C3816756   4.102   3.705   8.117 -0.4875 -0.4937 -0.3658
  151SAPE   H8X16757   4.144   3.806   8.128 -0.8602 -0.4789  1.0505
  151SAPE   H8Y16758   4.156   3.626   8.174  0.1771  0.8744  0.9593
  151SAPE   C3916759   3.969   3.714   8.183  0.1935 -0.4251 -0.2536
  151SAPE   H9X16760   3.910   3.799   8.143  2.6864  2.5205  1.7861
  151SAPE   H9Y16761   3.990   3.727   8.292 -2.2465 -0.0417  0.2294
  151SAPE  C31016762   3.877   3.588   8.156  0.0324  0.1084 -0.0619
  151SAPE  H10X16763   3.927   3.497   8.196 -1.6185 -1.3696 -1.2148
  151SAPE  H10Y16764   3.872   3.564   8.048 -0.7212 -0.3627  0.0708
  151SAPE  C31116765   3.733   3.598   8.210 -0.6648  0.6123  0.4376
  151SAPE  H11X16766   3.705   3.705   8.198  0.5407  0.6643 -4.1090
  151SAPE  H11Y16767   3.732   3.576   8.319 -0.4811 -1.8138  0.0126
  151SAPE  C31216768   3.630   3.501   8.145  0.0807 -0.2931  0.1517
  151SAPE  H12X16769   3.674   3.399   8.140  1.9263  0.5220 -1.5447
  151SAPE  H12Y16770   3.616   3.533   8.040  0.1320  2.0632  0.7962
  151SAPE  C31316771   3.498   3.503   8.219 -0.0118 -0.1369  0.0712
  151SAPE  H13X16772   3.485   3.604   8.264  0.5632 -0.5052  1.0806
  151SAPE  H13Y16773   3.490   3.422   8.294 -1.4384 -0.4806 -0.4162
  151SAPE  C31416774   3.374   3.487   8.121  0.1234  0.4787 -0.5956
  151SAPE  H14X16775   3.393   3.420   8.035 -0.2968  2.7082 -2.5130
  151SAPE  H14Y16776   3.347   3.585   8.076 -0.3608  1.7352  2.1983
  151SAPE  C31516777   3.257   3.446   8.210 -0.2304 -0.5269 -0.2119
  151SAPE  H15X16778   3.227   3.530   8.276  0.1567 -1.0342  0.6262
  151SAPE  H15Y16779   3.288   3.356   8.268 -0.3661  0.4216  1.3813
  151SAPE  C31616780   3.133   3.401   8.127  0.3697 -0.5642  0.4477
  151SAPE  H16X16781   3.160   3.306   8.075  1.8865  0.5814 -0.9602
  151SAPE  H16Y16782   3.119   3.476   8.047 -0.3901 -1.1948 -0.0270
  151SAPE  C31716783   2.999   3.394   8.209 -0.3667  0.5179  0.4631
  151SAPE  H17X16784   2.987   3.497   8.251 -2.4833 -0.0445  1.3407
  151SAPE  H17Y16785   2.990   3.315   8.286 -1.8866 -1.2355 -1.3892
  151SAPE  C31816786   2.867   3.371   8.125 -0.1671  0.3848  0.0566
  151SAPE  H18X16787   2.851   3.263   8.104 -1.4410  0.8572 -1.5494
  151SAPE  H18Y16788   2.893   3.427   8.033 -0.4537  0.0103 -0.2558
  151SAPE  H18Z16789   2.781   3.405   8.186 -3.0163 -1.4087 -2.6926
  152SAPE     N16790   5.386   3.287   6.226  0.0676  0.3217 -0.6041
  152SAPE   HN116791   5.354   3.329   6.137  0.9726  0.2563 -0.9779
  152SAPE   HN216792   5.443   3.201   6.212 -1.5788 -1.1603  1.1723
  152SAPE   HN316793   5.309   3.256   6.288  0.1704 -0.3103 -0.7814
  152SAPE   C1216794   5.457   3.390   6.309 -0.1004  0.0776  0.4588
  152SAPE  H12A16795   5.558   3.409   6.267  0.2238 -0.0080  1.1919
  152SAPE  H12B16796   5.475   3.342   6.408  0.7477 -0.0386  0.2569
  152SAPE   C1116797   5.368   3.513   6.320 -0.4843  0.5276 -0.0943
  152SAPE  H11A16798   5.366   3.573   6.227 -0.5318 -1.0521 -1.1484
  152SAPE  H11B16799   5.403   3.585   6.397  1.7837  0.7581 -1.2719
  152SAPE     P16800   5.104   3.566   6.313 -0.7021  0.1261  0.2990
  152SAPE   O1316801   5.145   3.652   6.203 -0.6408  0.2489 -0.0640
  152SAPE   O1416802   4.985   3.481   6.300 -0.9507 -0.1520  0.1440
  152SAPE   O1216803   5.234   3.475   6.347 -0.2146 -0.1787 -0.0429
  152SAPE   O1116804   5.086   3.660   6.430 -0.6645 -0.0352 -0.2198
  152SAPE    C116805   5.150   3.665   6.560 -0.3534  0.4326 -0.5513
  152SAPE    HA16806   5.249   3.620   6.539 -1.8945 -3.3082 -0.5933
  152SAPE    HB16807   5.172   3.770   6.591 -1.4911  0.1315  1.4360
  152SAPE    C216808   5.067   3.591   6.671 -0.3847 -0.7122 -0.3017
  152SAPE    HS16809   5.130   3.572   6.760 -2.0263 -4.4400  0.2401
  152SAPE   O2116810   5.013   3.468   6.628 -0.0231 -0.0555  0.3514
  152SAPE   C2116811   5.092   3.365   6.654 -0.0018 -0.2036  0.0980
  152SAPE   O2216812   5.198   3.373   6.713  0.0985  0.1993 -0.1808
  152SAPE   C2216813   5.025   3.229   6.624  0.3213 -0.5066  0.3352
  152SAPE   H2R16814   4.927   3.235   6.675 -0.7139 -0.2126 -1.5915
  152SAPE   H2S16815   4.999   3.235   6.516 -0.1952 -3.4792  0.2188
  152SAPE    C316816   4.947   3.685   6.713 -0.3235 -0.7618 -0.2216
  152SAPE    HX16817   4.885   3.685   6.620 -0.6872 -1.6618  0.0121
  152SAPE    HY16818   4.992   3.786   6.726  0.3727 -1.0149 -0.6208
  152SAPE   O3116819   4.889   3.640   6.841  0.1186 -0.3022  0.1557
  152SAPE   C3116820   4.759   3.665   6.851 -0.7089  0.6709 -0.0248
  152SAPE   O3216821   4.692   3.727   6.768  0.3093 -0.2047 -0.9646
  152SAPE   C3216822   4.701   3.622   6.995  0.1405  0.6683  0.8112
  152SAPE   H2X16823   4.663   3.718   7.035  0.1265  3.0819 -4.2467
  152SAPE   H2Y16824   4.785   3.572   7.046  0.5529  0.6963  0.1689
  152SAPE   C2316825   5.105   3.102   6.651  0.0325  0.1569 -0.3256
  152SAPE   H3R16826   5.210   3.126   6.625  0.5109  1.4539  2.4687
  152SAPE   H3S16827   5.067   3.020   6.586 -1.6716 -0.6731  1.6063
  152SAPE   C2416828   5.112   3.038   6.795  0.3962  0.2527 -0.2530
  152SAPE   H4R16829   5.177   3.108   6.851 -1.3704  1.0137  0.9284
  152SAPE   H4S16830   5.151   2.934   6.800 -4.1947 -1.6504  1.2500
  152SAPE   C2516831   4.978   3.033   6.869 -0.2856 -0.0358 -0.1346
  152SAPE   H5R16832   4.893   2.999   6.807 -0.1743 -1.4452  0.4455
  152SAPE   C2616833   4.948   3.103   6.976 -0.4428  0.6364 -0.3827
  152SAPE   H6R16834   4.846   3.086   7.014  0.0640 -0.7046  0.4294
  152SAPE   C2716835   5.038   3.196   7.056 -0.6106  0.0266 -0.1730
  152SAPE   H7R16836   5.114   3.243   6.991 -1.5818  0.4338 -1.0472
  152SAPE   H7S16837   5.088   3.138   7.136 -0.7814 -0.1177 -0.1704
  152SAPE   C2816838   4.962   3.310   7.117 -0.0566  0.2333  0.4975
  152SAPE   H8R16839   4.899   3.370   7.050 -1.4455 -1.2395  0.4013
  152SAPE   C2916840   4.950   3.340   7.248 -0.2422 -0.8386  0.1110
  152SAPE   H9R16841   4.886   3.424   7.278 -0.0635 -0.3679 -0.7692
  152SAPE  C21016842   5.023   3.265   7.358 -0.1002 -1.0568  0.1277
  152SAPE  H10R16843   5.132   3.263   7.338  0.3026 -2.0471  2.1681
  152SAPE  H10S16844   4.991   3.159   7.349  2.4835 -1.7883 -1.3250
  152SAPE  C21116845   5.000   3.330   7.495  0.2577  0.1004  0.7159
  152SAPE  H11R16846   5.008   3.440   7.495  0.0371  0.1204  1.4200
  152SAPE  C21216847   5.005   3.266   7.615 -0.2394  0.6860 -0.8021
  152SAPE  H12R16848   4.969   3.315   7.706 -1.3729 -1.0743 -0.2474
  152SAPE  C21316849   5.030   3.117   7.635 -0.5020 -0.5566 -0.2137
  152SAPE  H13R16850   4.978   3.058   7.557 -0.4300 -1.4571  0.3959
  152SAPE  H13S16851   4.993   3.083   7.734 -1.6285 -2.8677 -1.3483
  152SAPE  C21416852   5.183   3.088   7.637 -0.0652 -0.5183  0.5313
  152SAPE  H14R16853   5.206   3.029   7.547  0.1486  1.7919 -1.0216
  152SAPE  C21516854   5.270   3.095   7.731  0.0866  0.1912  0.1724
  152SAPE  H15R16855   5.364   3.040   7.714  1.2171  1.9642  0.4191
  152SAPE  C21616856   5.244   3.139   7.874 -0.1933  0.5414 -0.0850
  152SAPE  H16R16857   5.253   3.051   7.942  1.5919  0.8048  0.0675
  152SAPE  H16S16858   5.143   3.178   7.900 -1.1494 -1.9577  0.2376
  152SAPE  C21716859   5.343   3.231   7.939 -0.0825 -0.2436 -0.3529
  152SAPE  H17R16860   5.337   3.327   7.884  0.9905  0.1997  0.2632
  152SAPE  H17S16861   5.448   3.198   7.926 -0.5569 -2.4656  0.8748
  152SAPE  C21816862   5.315   3.265   8.085  0.0572 -0.1740 -0.3139
  152SAPE  H18R16863   5.340   3.184   8.157 -0.5124  0.0906  0.1994
  152SAPE  H18S16864   5.204   3.261   8.084  0.0179 -1.5026  1.8810
  152SAPE  C21916865   5.363   3.406   8.138  0.5885 -0.4085 -0.2300
  152SAPE  H19R16866   5.279   3.442   8.200  1.3326  0.0821  0.5073
  152SAPE  H19S16867   5.363   3.476   8.052  0.0390 -2.6863 -2.1880
  152SAPE  C22016868   5.493   3.410   8.231  0.4474  0.3198  0.4744
  152SAPE  H20R16869   5.586   3.387   8.175 -1.0791  0.2045 -2.1772
  152SAPE  H20S16870   5.478   3.342   8.318 -0.8249  0.5609  0.4651
  152SAPE  H20T16871   5.504   3.509   8.279  2.8786 -0.2628  1.2822
  152SAPE   C3316872   4.573   3.523   6.992 -1.5215  0.0585  0.4548
  152SAPE   H3X16873   4.613   3.422   7.019 -0.7878  0.2591  0.1602
  152SAPE   H3Y16874   4.529   3.515   6.890 -1.8211 -0.8570  0.6481
  152SAPE   C3416875   4.471   3.560   7.091 -0.0854  0.5071 -0.0208
  152SAPE   H4X16876   4.377   3.507   7.064 -0.4381  1.2023 -0.1857
  152SAPE   H4Y16877   4.441   3.665   7.072 -1.1833  0.1419 -0.3630
  152SAPE   C3516878   4.503   3.549   7.243  0.7216 -0.4405  0.3727
  152SAPE   H5X16879   4.410   3.588   7.290  0.3991  2.5571 -2.3870
  152SAPE   H5Y16880   4.582   3.625   7.261  0.5147  0.0951 -0.9081
  152SAPE   C3616881   4.549   3.411   7.295 -0.2206 -0.6559  0.3826
  152SAPE   H6X16882   4.633   3.374   7.233  1.7794  2.5871  0.8898
  152SAPE   H6Y16883   4.462   3.345   7.274  0.4695 -1.5496  0.3011
  152SAPE   C3716884   4.588   3.399   7.442  0.3942 -0.5522  0.3017
  152SAPE   H7X16885   4.663   3.479   7.460 -1.6396  1.5615 -0.0898
  152SAPE   H7Y16886   4.629   3.296   7.448 -0.0311 -0.8175 -0.9808
  152SAPE   C3816887   4.469   3.412   7.547  0.2371 -0.5818 -0.1669
  152SAPE   H8X16888   4.405   3.323   7.533  2.2534 -1.9460 -1.2536
  152SAPE   H8Y16889   4.419   3.509   7.527  1.5590  0.6146  1.9586
  152SAPE   C3916890   4.521   3.411   7.694 -0.2710  0.1294  0.1762
  152SAPE   H9X16891   4.593   3.494   7.711  1.7708 -1.5800  0.2886
  152SAPE   H9Y16892   4.589   3.326   7.717  2.4162  2.4024  1.2320
  152SAPE  C31016893   4.424   3.424   7.801  0.5031 -0.0468 -0.5874
  152SAPE  H10X16894   4.353   3.338   7.803  0.4403 -0.0734 -2.2620
  152SAPE  H10Y16895   4.360   3.513   7.785  0.0571  0.2622  2.3425
  152SAPE  C31116896   4.492   3.449   7.936 -0.6756  0.5975 -0.3493
  152SAPE  H11X16897   4.416   3.477   8.013  0.3194 -1.4241  1.4582
  152SAPE  H11Y16898   4.556   3.539   7.947  2.0917 -1.4098  1.0530
  152SAPE  C31216899   4.554   3.324   7.997 -0.3667  0.2019  0.1416
  152SAPE  H12X16900   4.646   3.295   7.942 -0.6036 -2.1322  0.8639
  152SAPE  H12Y16901   4.490   3.235   7.981 -2.3622  1.4794  0.6207
  152SAPE  C31316902   4.583   3.341   8.147  0.5150 -0.5170  0.5094
  152SAPE  H13X16903   4.489   3.378   8.192 -1.5671 -1.0180 -3.0698
  152SAPE  H13Y16904   4.667   3.413   8.156 -0.3413  0.2749  2.9542
  152SAPE  C31416905   4.609   3.208   8.226 -0.4690 -0.4390  0.5223
  152SAPE  H14X16906   4.711   3.168   8.205 -0.1772 -0.1128  1.2904
  152SAPE  H14Y16907   4.526   3.140   8.197  0.3820 -0.5375 -1.8557
  152SAPE  C31516908   4.622   3.236   8.382  0.2576 -0.3323  0.2381
  152SAPE  H15X16909   4.540   3.303   8.413  0.2911 -0.3765  0.4192
  152SAPE  H15Y16910   4.718   3.290   8.394  0.6989 -1.4258  2.0560
  152SAPE  C31616911   4.616   3.104   8.463 -0.0944 -0.1010  0.0460
  152SAPE  H16X16912   4.686   3.033   8.414  0.4474 -0.9820  2.0001
  152SAPE  H16Y16913   4.510   3.071   8.452 -0.4696  0.8552  0.6085
  152SAPE  C31716914   4.668   3.127   8.608  0.9206  0.2321  0.0864
  152SAPE  H17X16915   4.603   3.196   8.665 -0.2176 -0.2136 -0.6329
  152SAPE  H17Y16916   4.765   3.182   8.599  0.5285  1.1136  1.0212
  152SAPE  C31816917   4.693   2.989   8.678  0.1685  0.4301  0.2575
  152SAPE  H18X16918   4.708   3.004   8.787 -0.0945  1.6334  0.1438
  152SAPE  H18Y16919   4.779   2.931   8.640 -0.4740  0.2115 -0.9074
  152SAPE  H18Z16920   4.602   2.925   8.670  1.0817 -0.7009 -1.4711
  153SAPE     N16921   5.663   0.682   6.297  0.3944 -0.0042 -0.2321
  153SAPE   HN116922   5.603   0.680   6.382  0.1365 -1.3695 -0.4107
  153SAPE   HN216923   5.760   0.667   6.330  0.6235  0.8197 -0.5098
  153SAPE   HN316924   5.659   0.772   6.246 -1.1224  0.3090  0.3748
  153SAPE   C1216925   5.615   0.578   6.197 -0.2483  0.6896  0.4056
  153SAPE  H12A16926   5.685   0.598   6.113 -0.1776 -1.0716  0.0157
  153SAPE  H12B16927   5.510   0.602   6.169 -0.2268 -0.3332 -0.5754
  153SAPE   C1116928   5.624   0.441   6.266  0.5547  0.1437  0.7750
  153SAPE  H11A16929   5.570   0.366   6.204  0.8848  0.2559  0.3553
  153SAPE  H11B16930   5.553   0.454   6.351  0.3337  0.8999  0.4834
  153SAPE     P16931   5.850   0.326   6.203 -0.2757 -0.2585 -0.5639
  153SAPE   O1316932   5.785   0.290   6.072  0.5333 -0.0075 -0.1313
  153SAPE   O1416933   5.978   0.399   6.188  0.1231 -0.3066  0.3390
  153SAPE   O1216934   5.760   0.403   6.300  0.1009 -0.2309  0.5046
  153SAPE   O1116935   5.873   0.192   6.286  0.5072 -0.0817 -0.4076
  153SAPE    C116936   5.776   0.119   6.358  0.9049 -0.4165 -0.4808
  153SAPE    HA16937   5.672   0.153   6.337 -0.3966 -2.2541  2.4480
  153SAPE    HB16938   5.783   0.013   6.324  0.9084 -0.4666 -0.3222
  153SAPE    C216939   5.811   0.119   6.512 -0.7437  0.1690 -0.3228
  153SAPE    HS16940   5.735   0.053   6.558 -1.4149 -0.6501 -2.4841
  153SAPE   O2116941   5.814   0.245   6.573  0.6504  0.1199  0.7190
  153SAPE   C2116942   5.703   0.311   6.561 -0.3993 -0.4349 -0.2293
  153SAPE   O2216943   5.597   0.275   6.521 -0.1147 -0.1211 -0.7597
  153SAPE   C2216944   5.742   0.454   6.603  0.0350  0.6131 -0.8087
  153SAPE   H2R16945   5.814   0.505   6.536 -2.0551  2.5297 -1.7022
  153SAPE   H2S16946   5.652   0.519   6.597 -0.5888 -0.0250  0.8933
  153SAPE    C316947   5.948   0.051   6.526 -0.2127 -0.2237 -0.5236
  153SAPE    HX16948   6.027   0.128   6.510  1.2118 -2.2087 -4.1367
  153SAPE    HY16949   5.972  -0.028   6.452 -0.8081  2.4521 -3.8075
  153SAPE   O3116950   5.947  -0.008   6.660  0.1761  1.1958 -0.0913
  153SAPE   C3116951   6.027   0.048   6.743 -0.0444  0.2098  0.5037
  153SAPE   O3216952   6.125   0.115   6.714  0.1061 -0.1312  0.3739
  153SAPE   C3216953   5.984  -0.000   6.885 -0.8488 -0.0339  0.6168
  153SAPE   H2X16954   6.006  -0.109   6.894  0.4775  0.1717  0.0444
  153SAPE   H2Y16955   5.874   0.016   6.888 -1.0646 -0.3640 -2.0861
  153SAPE   C2316956   5.803   0.457   6.748 -0.3548  0.0421  0.4720
  153SAPE   H3R16957   5.892   0.391   6.747  0.2655  0.7312 -3.1863
  153SAPE   H3S16958   5.728   0.418   6.819  0.3612  0.2417  1.3620
  153SAPE   C2416959   5.852   0.599   6.782  0.2846 -0.1741  0.1418
  153SAPE   H4R16960   5.932   0.639   6.715  1.2753  1.0686  1.9846
  153SAPE   H4S16961   5.896   0.574   6.881 -2.7820 -1.8936  1.1854
  153SAPE   C2516962   5.747   0.709   6.798 -0.0341 -0.0591  0.1788
  153SAPE   H5R16963   5.689   0.738   6.709 -0.6766  0.1424  0.6483
  153SAPE   C2616964   5.714   0.779   6.907 -0.4177 -0.3154  0.7433
  153SAPE   H6R16965   5.641   0.862   6.907  2.2818  2.2135  1.5062
  153SAPE   C2716966   5.753   0.761   7.050 -0.6379 -0.2315 -0.2098
  153SAPE   H7R16967   5.669   0.807   7.107  0.4116  2.0056 -0.3309
  153SAPE   H7S16968   5.844   0.824   7.064  2.6874 -3.8333 -3.3730
  153SAPE   C2816969   5.787   0.623   7.106  0.6416  0.6391  0.8881
  153SAPE   H8R16970   5.756   0.543   7.037  1.4766 -0.6833  2.0010
  153SAPE   C2916971   5.836   0.590   7.226 -0.1607  0.6365  0.5912
  153SAPE   H9R16972   5.857   0.485   7.250  0.5401  0.9012  1.1745
  153SAPE  C21016973   5.868   0.687   7.334 -0.4152  0.0682 -0.3571
  153SAPE  H10R16974   5.955   0.744   7.297 -0.5996  1.2649  0.9280
  153SAPE  H10S16975   5.893   0.623   7.422  0.2164  0.4914 -0.2250
  153SAPE  C21116976   5.757   0.781   7.379 -0.1987 -0.4669  0.1672
  153SAPE  H11R16977   5.668   0.792   7.315  0.0269 -2.3433 -0.5375
  153SAPE  C21216978   5.763   0.847   7.498  0.0353  0.0771  0.4154
  153SAPE  H12R16979   5.676   0.906   7.531 -1.1764 -1.5959  0.3673
  153SAPE  C21316980   5.873   0.832   7.601 -0.4228  0.2071  0.2473
  153SAPE  H13R16981   5.901   0.931   7.644 -0.5518 -0.7231  2.6498
  153SAPE  H13S16982   5.961   0.778   7.560 -1.3203 -0.7591 -0.4452
  153SAPE  C21416983   5.822   0.736   7.704  0.0475 -0.1573 -0.4087
  153SAPE  H14R16984   5.777   0.645   7.661  0.0408 -0.9029  1.1141
  153SAPE  C21516985   5.825   0.758   7.837  0.5360 -0.1601  0.9570
  153SAPE  H15R16986   5.798   0.669   7.896  0.6071 -1.1508 -0.4426
  153SAPE  C21616987   5.881   0.873   7.909  0.3487  0.0976 -0.3284
  153SAPE  H16R16988   5.793   0.915   7.963  0.3416  0.0369 -0.2933
  153SAPE  H16S16989   5.904   0.963   7.849  0.0944  0.0197 -0.5427
  153SAPE  C21716990   6.011   0.844   7.994 -0.2917  0.0232 -0.1619
  153SAPE  H17R16991   6.027   0.938   8.051 -1.5893  0.0740  0.1466
  153SAPE  H17S16992   6.097   0.831   7.925  0.2641  1.5521  0.2079
  153SAPE  C21816993   6.002   0.727   8.096 -0.4608  0.1144  0.2113
  153SAPE  H18R16994   6.001   0.627   8.046 -0.5711 -0.2630  0.9537
  153SAPE  H18S16995   5.908   0.755   8.149 -0.7612 -3.5253  1.8870
  153SAPE  C21916996   6.118   0.735   8.194  0.6338  0.3275 -0.5737
  153SAPE  H19R16997   6.116   0.841   8.229  0.2049 -0.1020  0.7824
  153SAPE  H19S16998   6.221   0.723   8.157  1.1908 -1.8325  1.4507
  153SAPE  C22016999   6.112   0.652   8.328 -0.2603 -0.0550 -0.5841
  153SAPE  H20R17000   6.088   0.545   8.311 -0.0043 -0.2158  0.0220
  153SAPE  H20S17001   6.027   0.688   8.390  0.3759 -0.5536  0.6087
  153SAPE  H20T17002   6.210   0.655   8.381 -0.1498 -0.3142 -0.7695
  153SAPE   C3317003   6.054   0.059   7.009  1.0424 -0.0303 -0.3266
  153SAPE   H3X17004   6.163   0.054   6.991  1.6631 -0.9198  3.0218
  153SAPE   H3Y17005   6.026  -0.007   7.094 -0.2270  3.9969  2.7214
  153SAPE   C3417006   5.992   0.200   7.037 -0.3479  0.4063 -0.5127
  153SAPE   H4X17007   5.884   0.206   7.010 -0.1239  0.2511 -1.4718
  153SAPE   H4Y17008   6.052   0.261   6.966  0.1352  0.3335 -0.1731
  153SAPE   C3517009   6.033   0.250   7.170  0.0568 -0.2377  0.0148
  153SAPE   H5X17010   6.010   0.359   7.166 -2.1162 -0.6774 -0.9197
  153SAPE   H5Y17011   6.136   0.217   7.197 -0.9944  0.1848  5.6677
  153SAPE   C3617012   5.927   0.215   7.278  0.3662  0.2528 -0.7365
  153SAPE   H6X17013   5.933   0.104   7.287 -0.3470  0.3016  0.4794
  153SAPE   H6Y17014   5.827   0.246   7.241  0.3478 -0.1603 -1.0461
  153SAPE   C3717015   5.957   0.277   7.415 -0.2686 -0.1754  0.0225
  153SAPE   H7X17016   5.992   0.381   7.399 -0.3057  0.1782  2.0318
  153SAPE   H7Y17017   6.047   0.226   7.456  2.1765  2.6351 -1.4580
  153SAPE   C3817018   5.840   0.270   7.513 -0.3825 -0.0956 -0.0513
  153SAPE   H8X17019   5.803   0.166   7.503 -0.9333  0.2019 -1.4463
  153SAPE   H8Y17020   5.750   0.327   7.478 -0.1369  2.1201  2.5454
  153SAPE   C3917021   5.880   0.313   7.651  0.2128  0.2785 -0.2352
  153SAPE   H9X17022   5.938   0.406   7.633  2.7904 -0.5426  2.8409
  153SAPE   H9Y17023   5.951   0.234   7.683 -0.4996 -0.9973 -1.7259
  153SAPE  C31017024   5.771   0.335   7.744 -0.7106  0.1063  0.0172
  153SAPE  H10X17025   5.704   0.248   7.756  0.3312 -0.6936  0.1691
  153SAPE  H10Y17026   5.712   0.425   7.717  0.6912  0.6010 -1.6222
  153SAPE  C31117027   5.819   0.361   7.891 -0.4246  0.0921  0.2240
  153SAPE  H11X17028   5.905   0.431   7.899 -0.3893  0.1761 -0.6957
  153SAPE  H11Y17029   5.874   0.268   7.915  1.9530  1.3500  0.0037
  153SAPE  C31217030   5.704   0.399   7.977 -0.6123  0.8762 -0.3350
  153SAPE  H12X17031   5.629   0.318   7.986  2.2471 -2.0291 -0.6610
  153SAPE  H12Y17032   5.655   0.483   7.924  0.3225  0.4753 -1.9195
  153SAPE  C31317033   5.735   0.469   8.106 -0.1683  0.2849 -0.9656
  153SAPE  H13X17034   5.802   0.554   8.082  2.1800 -1.6942 -1.7468
  153SAPE  H13Y17035   5.801   0.409   8.172 -0.4565  0.6470 -0.3376
  153SAPE  C31417036   5.619   0.512   8.190 -0.7288 -0.5490  0.2213
  153SAPE  H14X17037   5.550   0.426   8.207 -0.7292 -0.4238  0.9124
  153SAPE  H14Y17038   5.555   0.590   8.144  1.6727  0.8160 -1.0030
  153SAPE  C31517039   5.671   0.560   8.329  0.1795 -0.0231 -0.1700
  153SAPE  H15X17040   5.748   0.640   8.327 -1.8889  2.0865 -0.1600
  153SAPE  H15Y17041   5.723   0.474   8.375  1.1296  0.2854 -0.6513
  153SAPE  C31617042   5.562   0.603   8.423  0.2668 -0.7192 -0.0220
  153SAPE  H16X17043   5.605   0.642   8.518  1.1550  1.5817 -1.2818
  153SAPE  H16Y17044   5.503   0.510   8.438 -1.1773  0.0785 -0.5316
  153SAPE  C31717045   5.462   0.716   8.374  0.3687  0.5433  0.3918
  153SAPE  H17X17046   5.394   0.735   8.460 -0.7129 -3.1407  0.5184
  153SAPE  H17Y17047   5.396   0.688   8.289 -2.4887 -1.2845  2.9878
  153SAPE  C31817048   5.524   0.850   8.338 -0.1014 -0.3865 -0.3777
  153SAPE  H18X17049   5.586   0.847   8.246  0.7842  4.3086 -0.1623
  153SAPE  H18Y17050   5.582   0.882   8.428 -2.4477  2.5004  0.2588
  153SAPE  H18Z17051   5.447   0.928   8.319 -0.2515 -0.6561 -0.8813
  154SAPE     N17052   2.057   3.588   6.088 -0.2934  0.1884  0.9656
  154SAPE   HN117053   2.022   3.563   5.993 -0.8346 -0.9817  1.4549
  154SAPE   HN217054   1.969   3.623   6.131 -1.2983 -1.8833  0.7156
  154SAPE   HN317055   2.131   3.659   6.073  1.5129 -1.3070  2.3374
  154SAPE   C1217056   2.127   3.474   6.162 -0.1521 -0.2643  0.9032
  154SAPE  H12A17057   2.058   3.388   6.146  0.0853 -0.2259 -0.5303
  154SAPE  H12B17058   2.128   3.504   6.268 -1.4703  5.0886 -0.3095
  154SAPE   C1117059   2.278   3.463   6.114  0.4598 -0.1610  0.2235
  154SAPE  H11A17060   2.275   3.440   6.006 -0.3050 -3.2563  0.7860
  154SAPE  H11B17061   2.319   3.389   6.187  0.2246  0.2098  0.7377
  154SAPE     P17062   2.423   3.647   6.249 -0.0797 -0.2033  0.0313
  154SAPE   O1317063   2.504   3.751   6.190 -0.2508  0.2504  0.7253
  154SAPE   O1417064   2.335   3.683   6.360 -0.1811  0.9379  0.3818
  154SAPE   O1217065   2.338   3.588   6.132  0.3175  0.0854 -0.5990
  154SAPE   O1117066   2.527   3.529   6.301  0.2366  0.0092 -0.1064
  154SAPE    C117067   2.539   3.515   6.450  0.0455  0.5760  0.2679
  154SAPE    HA17068   2.441   3.501   6.499 -0.0238 -0.5914 -0.1898
  154SAPE    HB17069   2.590   3.420   6.477 -0.0994  0.9084  1.8531
  154SAPE    C217070   2.601   3.630   6.535  0.0905  0.1950  0.2719
  154SAPE    HS17071   2.540   3.721   6.516  0.7617  0.4849 -0.5701
  154SAPE   O2117072   2.733   3.645   6.479  0.4649  0.3437 -0.3457
  154SAPE   C2117073   2.807   3.750   6.513 -0.0467 -0.0795 -0.1502
  154SAPE   O2217074   2.774   3.845   6.580  0.4265  0.1906 -0.0261
  154SAPE   C2217075   2.943   3.747   6.443 -0.2048  0.3075  0.1560
  154SAPE   H2R17076   2.927   3.746   6.333  0.5418 -1.1721  0.0422
  154SAPE   H2S17077   2.996   3.841   6.471  1.0396  0.2966 -1.9857
  154SAPE    C317078   2.603   3.602   6.689  0.2497 -0.2307  0.0289
  154SAPE    HX17079   2.656   3.684   6.741  3.4517 -0.3437 -2.7455
  154SAPE    HY17080   2.677   3.521   6.705  0.3828 -0.1856 -0.3477
  154SAPE   O3117081   2.479   3.574   6.750  0.0936 -0.2145  0.0280
  154SAPE   C3117082   2.445   3.445   6.778 -0.5737  0.0033  0.2378
  154SAPE   O3217083   2.509   3.342   6.748 -0.3045 -0.3441  0.1856
  154SAPE   C3217084   2.306   3.446   6.851 -0.2255 -0.0924  0.5810
  154SAPE   H2X17085   2.236   3.403   6.776  0.5452 -0.8519  0.2752
  154SAPE   H2Y17086   2.278   3.552   6.872 -0.3397 -0.0339  0.1612
  154SAPE   C2317087   3.037   3.627   6.472 -0.7090 -0.0903  0.0420
  154SAPE   H3R17088   3.113   3.617   6.391 -0.8334 -1.2848  0.0561
  154SAPE   H3S17089   2.979   3.533   6.470  1.1479 -1.3132  0.9134
  154SAPE   C2417090   3.106   3.636   6.609  0.1281  0.0578 -0.1185
  154SAPE   H4R17091   3.030   3.677   6.679 -0.8324 -0.9075 -0.5753
  154SAPE   H4S17092   3.179   3.716   6.588 -1.2909  1.3254 -0.3894
  154SAPE   C2517093   3.166   3.509   6.661 -0.5779  0.3444  0.2221
  154SAPE   H5R17094   3.258   3.480   6.608  0.6535  1.6604  1.5352
  154SAPE   C2617095   3.121   3.433   6.762 -0.4240  0.3002  0.0445
  154SAPE   H6R17096   3.185   3.346   6.781 -1.1418  0.0388  1.4636
  154SAPE   C2717097   3.000   3.458   6.849 -0.6332 -0.2265  0.2196
  154SAPE   H7R17098   2.962   3.561   6.839 -1.8554 -0.6884 -0.0753
  154SAPE   H7S17099   3.034   3.452   6.954  2.3523  0.0309 -0.6428
  154SAPE   C2817100   2.893   3.360   6.829 -0.2666 -0.0953 -1.0601
  154SAPE   H8R17101   2.899   3.318   6.727  2.0828  0.4637 -1.2140
  154SAPE   C2917102   2.799   3.325   6.917  0.5766 -0.6886 -0.4409
  154SAPE   H9R17103   2.727   3.245   6.891  1.4174 -1.4073 -0.6082
  154SAPE  C21017104   2.782   3.377   7.062 -0.1582 -0.7476 -0.0635
  154SAPE  H10R17105   2.703   3.454   7.049  2.9001  2.4377 -1.0203
  154SAPE  H10S17106   2.865   3.438   7.102 -1.5879  1.8911 -0.9066
  154SAPE  C21117107   2.733   3.278   7.162 -0.2413  0.0734 -0.7270
  154SAPE  H11R17108   2.648   3.217   7.128 -0.4941  0.2642 -0.4482
  154SAPE  C21217109   2.775   3.274   7.289  0.3352  0.2063 -0.2977
  154SAPE  H12R17110   2.739   3.192   7.352  2.7198 -0.2827  0.5397
  154SAPE  C21317111   2.872   3.357   7.367 -0.3019 -0.5691  0.3716
  154SAPE  H13R17112   2.946   3.411   7.304 -2.1615  0.4784 -1.0211
  154SAPE  H13S17113   2.937   3.281   7.416 -0.2255 -1.6204 -1.2980
  154SAPE  C21417114   2.797   3.447   7.461  0.7784 -0.3759  0.6207
  154SAPE  H14R17115   2.727   3.514   7.410 -2.9025 -4.9516 -1.0011
  154SAPE  C21517116   2.799   3.444   7.597  0.4032  0.3285 -0.1782
  154SAPE  H15R17117   2.744   3.516   7.659 -2.4760 -2.1247  0.3128
  154SAPE  C21617118   2.874   3.351   7.688  0.1723  0.0158  0.0400
  154SAPE  H16R17119   2.899   3.256   7.636  0.3793  0.3613 -0.5018
  154SAPE  H16S17120   2.799   3.323   7.765  0.0971 -1.3473 -0.4866
  154SAPE  C21717121   3.015   3.387   7.746  0.0083 -0.2596 -1.2203
  154SAPE  H17R17122   3.045   3.334   7.838  2.6378  1.8387 -0.7617
  154SAPE  H17S17123   2.996   3.490   7.782 -3.4068 -0.8873 -0.8483
  154SAPE  C21817124   3.127   3.368   7.639  0.2796  0.6084 -0.4365
  154SAPE  H18R17125   3.120   3.454   7.568  3.1430  2.6728  1.5648
  154SAPE  H18S17126   3.114   3.282   7.570 -0.1280  1.0779 -0.9604
  154SAPE  C21917127   3.268   3.364   7.700 -0.2043 -0.5305 -0.2802
  154SAPE  H19R17128   3.276   3.460   7.755 -2.9837  0.6675 -1.7770
  154SAPE  H19S17129   3.341   3.363   7.616 -2.3899  1.7116 -2.3820
  154SAPE  C22017130   3.313   3.255   7.796  0.6882  0.0327 -0.0388
  154SAPE  H20R17131   3.295   3.158   7.746 -2.8774  0.9220 -0.7521
  154SAPE  H20S17132   3.256   3.249   7.891 -0.0445  0.3104 -0.4500
  154SAPE  H20T17133   3.423   3.264   7.804  1.0654 -3.4624  0.0606
  154SAPE   C3317134   2.296   3.351   6.977 -0.7486  0.3173 -0.1625
  154SAPE   H3X17135   2.343   3.253   6.954  0.6639  1.2551 -1.4828
  154SAPE   H3Y17136   2.187   3.341   6.998 -1.1611  1.1243 -1.8002
  154SAPE   C3417137   2.353   3.408   7.110 -0.3405  0.3743 -0.8753
  154SAPE   H4X17138   2.306   3.506   7.134  0.1127 -0.0474  2.2273
  154SAPE   H4Y17139   2.464   3.417   7.111 -0.2936 -0.1692 -1.1731
  154SAPE   C3517140   2.319   3.324   7.239 -0.0355 -0.4781  0.1717
  154SAPE   H5X17141   2.360   3.223   7.217 -0.2005 -0.4259 -0.4086
  154SAPE   H5Y17142   2.210   3.306   7.246 -0.1609 -0.2206 -0.8829
  154SAPE   C3617143   2.376   3.387   7.372 -0.1607  0.4101  0.2044
  154SAPE   H6X17144   2.330   3.488   7.367 -2.0733 -0.3795  1.1481
  154SAPE   H6Y17145   2.487   3.390   7.372  0.1667 -3.9512 -1.8257
  154SAPE   C3717146   2.328   3.308   7.495 -0.4104 -0.5789  0.4795
  154SAPE   H7X17147   2.347   3.203   7.463  0.7222 -0.5319  0.9706
  154SAPE   H7Y17148   2.219   3.322   7.513 -0.5936 -2.1147  0.6652
  154SAPE   C3817149   2.402   3.333   7.625  0.0442 -0.2341 -0.1901
  154SAPE   H8X17150   2.408   3.444   7.638 -0.3493 -0.3863  1.4804
  154SAPE   H8Y17151   2.505   3.297   7.608  0.7704  2.3337 -1.9776
  154SAPE   C3917152   2.344   3.257   7.747  0.5005 -0.2979  0.0046
  154SAPE   H9X17153   2.333   3.148   7.730  0.2195 -0.8629  3.1733
  154SAPE   H9Y17154   2.238   3.288   7.752  0.2743 -0.9688 -0.4733
  154SAPE  C31017155   2.425   3.289   7.870  0.0495 -0.3070 -0.6765
  154SAPE  H10X17156   2.453   3.396   7.871  0.4826 -0.4026 -1.5722
  154SAPE  H10Y17157   2.520   3.234   7.852  0.0928 -0.1260 -1.0181
  154SAPE  C31117158   2.357   3.244   7.996  0.5974 -0.3813 -0.1400
  154SAPE  H11X17159   2.315   3.141   7.988 -0.9396  0.3455 -2.3088
  154SAPE  H11Y17160   2.279   3.319   8.020  1.9977  1.1319 -0.1511
  154SAPE  C31217161   2.443   3.246   8.119 -0.1040 -0.0450 -0.0237
  154SAPE  H12X17162   2.401   3.294   8.210  0.6487 -0.3399  0.4949
  154SAPE  H12Y17163   2.535   3.304   8.096 -1.8194  2.3129 -1.3423
  154SAPE  C31317164   2.483   3.100   8.160 -0.1610  0.2815  0.3956
  154SAPE  H13X17165   2.504   3.044   8.067  2.0150 -1.6163  1.9090
  154SAPE  H13Y17166   2.397   3.057   8.215  1.7934 -2.7424  1.3504
  154SAPE  C31417167   2.597   3.091   8.265 -0.3348  0.3014 -0.5414
  154SAPE  H14X17168   2.578   3.147   8.359 -0.1694 -0.5424  0.0063
  154SAPE  H14Y17169   2.693   3.126   8.222  0.2455 -0.5588  0.0109
  154SAPE  C31517170   2.628   2.945   8.317  0.3498  0.2340 -0.1734
  154SAPE  H15X17171   2.691   2.896   8.240 -1.3569 -0.1659 -1.3685
  154SAPE  H15Y17172   2.533   2.889   8.337  0.7787  0.0259  1.4350
  154SAPE  C31617173   2.711   2.937   8.447 -0.8042 -0.3729  1.3994
  154SAPE  H16X17174   2.654   2.997   8.521  0.1984  1.2095  0.9590
  154SAPE  H16Y17175   2.812   2.975   8.421 -1.2256 -0.3509 -0.3464
  154SAPE  C31717176   2.745   2.797   8.490 -0.7601 -0.2241  0.3473
  154SAPE  H17X17177   2.827   2.804   8.565  0.2370  2.4486 -0.8358
  154SAPE  H17Y17178   2.776   2.740   8.400 -0.7660  1.2647 -0.6353
  154SAPE  C31817179   2.635   2.720   8.554 -0.0208  0.1965 -0.0647
  154SAPE  H18X17180   2.561   2.796   8.586 -0.5498 -0.7750  1.0850
  154SAPE  H18Y17181   2.678   2.677   8.647  0.7666  1.1103  0.0172
  154SAPE  H18Z17182   2.598   2.631   8.499  1.4555 -0.7471  0.4160
  155SAPE     N17183   2.650   5.070   6.590 -0.2429  0.3708 -0.5688
  155SAPE   HN117184   2.584   5.035   6.518 -1.0581  1.0277 -0.1548
  155SAPE   HN217185   2.589   5.128   6.652  0.1478 -1.0704  1.2494
  155SAPE   HN317186   2.732   5.122   6.554  0.8541  1.4401  3.0385
  155SAPE   C1217187   2.702   4.956   6.665  0.2976  0.5239 -0.9730
  155SAPE  H12A17188   2.625   4.881   6.692  1.9333 -0.6355  0.6770
  155SAPE  H12B17189   2.757   4.988   6.756 -0.3367 -2.2640  0.4785
  155SAPE   C1117190   2.802   4.883   6.569  0.0108 -0.3159 -0.4278
  155SAPE  H11A17191   2.745   4.842   6.483 -1.4764 -1.3468  0.9913
  155SAPE  H11B17192   2.848   4.797   6.623  2.4462 -0.0789 -1.9615
  155SAPE     P17193   3.041   4.920   6.462 -0.6404 -0.1578  0.4214
  155SAPE   O1317194   3.005   4.828   6.355  0.3461 -0.0632 -0.1459
  155SAPE   O1417195   3.132   5.030   6.428 -0.1359  0.0282  0.0530
  155SAPE   O1217196   2.903   4.968   6.524 -0.5632  0.6661  0.4424
  155SAPE   O1117197   3.103   4.835   6.575 -0.3980  0.5359 -0.6487
  155SAPE    C117198   3.105   4.884   6.713 -0.7724 -0.2149 -0.4367
  155SAPE    HA17199   3.076   4.991   6.718 -0.4550  0.1190 -3.6242
  155SAPE    HB17200   3.028   4.826   6.769 -1.0263  0.1825 -0.3728
  155SAPE    C217201   3.245   4.869   6.781  0.6880 -0.5938 -0.5680
  155SAPE    HS17202   3.296   4.770   6.779  1.2681 -0.3322  0.5057
  155SAPE   O2117203   3.250   4.918   6.919 -0.8992  0.3841 -0.4529
  155SAPE   C2117204   3.201   4.823   7.000  1.1017  1.1482  0.0539
  155SAPE   O2217205   3.166   4.708   6.968 -0.0615  0.3614 -0.3606
  155SAPE   C2217206   3.178   4.901   7.135 -0.3168 -0.1669  0.5838
  155SAPE   H2R17207   3.271   4.960   7.151  0.3410 -0.5909 -1.3572
  155SAPE   H2S17208   3.094   4.970   7.116 -0.9316 -1.1547 -0.4319
  155SAPE    C317209   3.349   4.949   6.700 -0.3159 -0.2701 -1.0079
  155SAPE    HX17210   3.306   5.049   6.677  0.1296  0.4904  1.2176
  155SAPE    HY17211   3.365   4.912   6.596 -0.6135 -0.7469 -0.8842
  155SAPE   O3117212   3.476   4.949   6.771 -0.5403 -0.4328  0.5681
  155SAPE   C3117213   3.504   5.054   6.854 -0.1380 -0.1728 -0.1783
  155SAPE   O3217214   3.436   5.151   6.869  0.0198  0.1752  0.2212
  155SAPE   C3217215   3.649   5.034   6.906  0.7622 -0.4362 -0.6939
  155SAPE   H2X17216   3.717   5.105   6.854  1.6130  0.4294  1.4912
  155SAPE   H2Y17217   3.687   4.932   6.883 -0.3092 -0.6714 -1.4805
  155SAPE   C2317218   3.152   4.804   7.254  0.0700 -0.0398 -0.1923
  155SAPE   H3R17219   3.238   4.734   7.249 -0.8650 -1.1426 -2.0864
  155SAPE   H3S17220   3.063   4.743   7.226  0.2692 -0.0533 -0.8307
  155SAPE   C2417221   3.147   4.863   7.394 -0.8300  0.2218  1.3012
  155SAPE   H4R17222   3.069   4.942   7.389 -0.5041  0.5619  1.5369
  155SAPE   H4S17223   3.246   4.909   7.415 -0.9054  0.7494  0.5496
  155SAPE   C2517224   3.104   4.767   7.496 -0.2767  0.1751 -0.5324
  155SAPE   H5R17225   3.027   4.690   7.476 -0.3429 -0.2303  1.0795
  155SAPE   C2617226   3.150   4.752   7.619 -0.5891  0.4984 -0.7405
  155SAPE   H6R17227   3.110   4.665   7.673  0.2995 -0.1263 -1.0776
  155SAPE   C2717228   3.253   4.841   7.682  0.8517  0.4690  0.1455
  155SAPE   H7R17229   3.210   4.915   7.753  0.2139  0.2634 -0.0191
  155SAPE   H7S17230   3.307   4.900   7.605  0.5944  1.2626  0.5636
  155SAPE   C2817231   3.343   4.744   7.746 -0.7263 -0.4197  0.1131
  155SAPE   H8R17232   3.389   4.672   7.677  0.0128 -0.6010  0.7894
  155SAPE   C2917233   3.365   4.739   7.879  0.5482 -0.5741 -0.1243
  155SAPE   H9R17234   3.446   4.672   7.910  0.6133 -0.8107 -0.7770
  155SAPE  C21017235   3.300   4.809   7.991  0.0716 -0.1856 -0.0229
  155SAPE  H10R17236   3.299   4.918   7.971 -0.9308 -0.2844 -0.5316
  155SAPE  H10S17237   3.360   4.800   8.085  0.0698  1.7979  0.2037
  155SAPE  C21117238   3.160   4.762   8.022  0.2370 -0.2454  0.1654
  155SAPE  H11R17239   3.113   4.688   7.956  0.6571 -3.0042  2.7540
  155SAPE  C21217240   3.088   4.810   8.122  0.5070 -0.1171  0.1210
  155SAPE  H12R17241   2.987   4.769   8.137  0.0668  0.7096 -0.4958
  155SAPE  C21317242   3.123   4.921   8.217 -0.2194  0.4604 -0.7915
  155SAPE  H13R17243   3.044   4.994   8.191  0.3224  1.5380  0.4885
  155SAPE  H13S17244   3.223   4.964   8.196  0.5400 -1.7291 -2.0698
  155SAPE  C21417245   3.116   4.896   8.363 -0.1376  0.4168 -0.3803
  155SAPE  H14R17246   3.013   4.881   8.396  0.8858 -1.1079  2.4695
  155SAPE  C21517247   3.217   4.851   8.442  0.0422 -0.5789 -0.0434
  155SAPE  H15R17248   3.207   4.850   8.552  0.6348 -1.0441  0.0122
  155SAPE  C21617249   3.357   4.830   8.395  0.4158 -0.0867 -0.1213
  155SAPE  H16R17250   3.403   4.915   8.341 -0.4375  1.3052  1.2558
  155SAPE  H16S17251   3.340   4.748   8.322 -2.1671  2.2478 -2.3831
  155SAPE  C21717252   3.458   4.797   8.504  0.2956 -0.2990 -0.7857
  155SAPE  H17R17253   3.559   4.772   8.463 -0.0952 -1.1181 -1.2835
  155SAPE  H17S17254   3.427   4.710   8.566  1.2847 -0.5363 -0.5948
  155SAPE  C21817255   3.485   4.926   8.592  0.1010 -0.6986 -0.4729
  155SAPE  H18R17256   3.392   4.958   8.643  0.1314 -2.2773  0.6605
  155SAPE  H18S17257   3.521   5.007   8.525  0.7574 -0.7864 -0.2326
  155SAPE  C21917258   3.593   4.911   8.705  0.0544  0.1399  0.6001
  155SAPE  H19R17259   3.624   5.011   8.742 -0.1693  0.1097  0.8725
  155SAPE  H19S17260   3.688   4.868   8.667  1.0290  2.2707  0.4593
  155SAPE  C22017261   3.536   4.829   8.823 -0.2120 -0.2292  0.4011
  155SAPE  H20R17262   3.467   4.891   8.884  2.3545  1.5477  1.6790
  155SAPE  H20S17263   3.621   4.802   8.889  0.5055 -1.0241 -0.7928
  155SAPE  H20T17264   3.480   4.741   8.785 -0.8553  1.0672 -1.8653
  155SAPE   C3317265   3.656   5.058   7.062  0.0168 -0.0747  0.2789
  155SAPE   H3X17266   3.615   5.158   7.086 -0.1792  0.8075 -3.1793
  155SAPE   H3Y17267   3.765   5.050   7.084 -0.1679  0.4999  1.4642
  155SAPE   C3417268   3.580   4.959   7.142  0.8234 -0.1233  0.2729
  155SAPE   H4X17269   3.602   4.857   7.104 -0.3714 -0.5047  0.5750
  155SAPE   H4Y17270   3.475   4.988   7.124  0.9042 -0.1296 -0.2248
  155SAPE   C3517271   3.615   4.975   7.295 -0.0932  0.0751  0.4352
  155SAPE   H5X17272   3.524   4.984   7.357  0.1181 -1.6857  1.0536
  155SAPE   H5Y17273   3.673   5.064   7.324  0.6216 -0.3611  0.3769
  155SAPE   C3617274   3.685   4.858   7.372 -0.3169 -0.2686  0.0898
  155SAPE   H6X17275   3.777   4.827   7.317 -0.7109 -0.5586 -0.4123
  155SAPE   H6Y17276   3.613   4.774   7.366 -0.0892 -0.4720  0.1557
  155SAPE   C3717277   3.706   4.875   7.518 -0.3057 -0.0610 -0.5630
  155SAPE   H7X17278   3.622   4.932   7.563 -0.5641  0.4601 -1.6538
  155SAPE   H7Y17279   3.798   4.934   7.532 -0.1272 -0.4839  0.0816
  155SAPE   C3817280   3.735   4.747   7.602 -0.4442 -0.2427 -0.3712
  155SAPE   H8X17281   3.833   4.706   7.569 -0.3589  0.2337 -0.7151
  155SAPE   H8Y17282   3.653   4.677   7.574 -1.3355  0.7757 -0.3332
  155SAPE   C3917283   3.733   4.785   7.748 -0.6934  0.3058  0.4172
  155SAPE   H9X17284   3.633   4.826   7.769 -1.5670 -2.5461  2.4137
  155SAPE   H9Y17285   3.804   4.870   7.755 -1.0981  0.6334  0.5347
  155SAPE  C31017286   3.768   4.664   7.834 -0.0733  0.5671  0.5164
  155SAPE  H10X17287   3.871   4.628   7.813 -0.8784 -1.5588 -0.0107
  155SAPE  H10Y17288   3.707   4.573   7.816  1.2595 -0.3501  0.5446
  155SAPE  C31117289   3.769   4.690   7.991 -0.1929  0.4530 -0.4160
  155SAPE  H11X17290   3.673   4.738   8.022 -0.3829  0.6875 -1.3128
  155SAPE  H11Y17291   3.851   4.763   8.012  0.1686 -0.0968  0.0907
  155SAPE  C31217292   3.789   4.569   8.073 -0.3980  0.3626  0.2881
  155SAPE  H12X17293   3.880   4.514   8.041 -1.5379 -0.4618 -1.6956
  155SAPE  H12Y17294   3.707   4.495   8.065  0.6659 -0.8935  0.5089
  155SAPE  C31317295   3.806   4.617   8.219  0.9703  0.5375  0.1093
  155SAPE  H13X17296   3.731   4.694   8.248  0.2082 -0.1249 -0.0710
  155SAPE  H13Y17297   3.901   4.674   8.228  0.6631  1.3591 -1.4444
  155SAPE  C31417298   3.804   4.495   8.316 -0.3182  0.9051  0.3354
  155SAPE  H14X17299   3.896   4.440   8.287 -1.0576 -0.6439  0.8371
  155SAPE  H14Y17300   3.714   4.439   8.286  0.8034 -0.4100 -0.7215
  155SAPE  C31517301   3.797   4.537   8.461  0.2022 -0.0997 -0.3975
  155SAPE  H15X17302   3.706   4.596   8.486 -0.0109  0.1718 -1.7215
  155SAPE  H15Y17303   3.882   4.606   8.477 -0.8220  1.5778 -1.8207
  155SAPE  C31617304   3.797   4.415   8.557 -0.3149 -0.6637 -0.2830
  155SAPE  H16X17305   3.885   4.348   8.560  0.5264  0.4579  1.0231
  155SAPE  H16Y17306   3.713   4.353   8.517 -1.0953 -1.5735  2.5501
  155SAPE  C31717307   3.768   4.450   8.706  0.4215 -0.8468 -0.3622
  155SAPE  H17X17308   3.734   4.369   8.774 -1.5253  2.4702  2.9854
  155SAPE  H17Y17309   3.682   4.519   8.712 -0.1966 -1.5293 -1.1796
  155SAPE  C31817310   3.890   4.516   8.762  0.4744  0.4516  0.5298
  155SAPE  H18X17311   3.919   4.613   8.716  1.8743  0.3702  1.1998
  155SAPE  H18Y17312   3.978   4.449   8.752 -0.5258 -0.8930  0.4958
  155SAPE  H18Z17313   3.879   4.518   8.873  1.2569 -1.1720  0.6573
  156SAPE     N17314   0.799   5.827   6.185  0.0244  0.3150 -0.1386
  156SAPE   HN117315   0.746   5.885   6.117 -0.3369  0.9554  0.6727
  156SAPE   HN217316   0.793   5.876   6.277  1.3064  0.1667  0.0467
  156SAPE   HN317317   0.900   5.838   6.160 -0.0621 -0.7574 -1.0204
  156SAPE   C1217318   0.764   5.686   6.177  0.0072 -0.1033 -0.3796
  156SAPE  H12A17319   0.791   5.655   6.074 -1.2809 -0.8223 -0.5254
  156SAPE  H12B17320   0.655   5.670   6.192  0.2609 -1.7121 -0.0567
  156SAPE   C1117321   0.845   5.604   6.277  0.1780  0.0992 -0.8605
  156SAPE  H11A17322   0.808   5.499   6.279 -0.0072  0.1631  0.8663
  156SAPE  H11B17323   0.826   5.638   6.381  1.0635 -1.3676 -0.1702
  156SAPE     P17324   1.084   5.498   6.258  0.2119 -0.4293  0.1806
  156SAPE   O1317325   1.065   5.420   6.138 -0.0959  0.2868  0.2881
  156SAPE   O1417326   1.224   5.540   6.278  0.1171  0.5628  0.1150
  156SAPE   O1217327   0.985   5.626   6.243  0.0279  0.3871 -0.2262
  156SAPE   O1117328   1.024   5.422   6.384  0.7182  0.4472 -0.0014
  156SAPE    C117329   1.044   5.470   6.518 -0.7646 -0.1018 -0.8116
  156SAPE    HA17330   1.154   5.480   6.535 -0.6470  0.2596 -1.7568
  156SAPE    HB17331   1.000   5.568   6.546  1.8550  0.8081  0.5440
  156SAPE    C217332   1.005   5.361   6.625  0.1525  0.4555 -0.2619
  156SAPE    HS17333   0.894   5.362   6.618 -0.0416 -2.6679  0.6554
  156SAPE   O2117334   1.048   5.386   6.758  0.4700 -0.4870 -0.2458
  156SAPE   C2117335   0.972   5.464   6.831 -0.1618 -0.4547 -0.0840
  156SAPE   O2217336   0.868   5.521   6.803  0.4022 -0.0429  0.7098
  156SAPE   C2217337   1.031   5.488   6.969  0.7951  0.3488  0.0439
  156SAPE   H2R17338   1.030   5.388   7.018 -1.3465 -0.1888 -0.9317
  156SAPE   H2S17339   1.138   5.514   6.959  0.4919  0.9232 -2.4471
  156SAPE    C317340   1.057   5.223   6.580 -0.1732  0.0433  0.1752
  156SAPE    HX17341   1.162   5.242   6.552 -0.7049  0.8210 -1.3931
  156SAPE    HY17342   0.993   5.190   6.496  0.4283 -1.7204  0.3840
  156SAPE   O3117343   1.042   5.123   6.692 -0.6680  0.3281  0.6377
  156SAPE   C3117344   1.142   5.038   6.688  0.2229 -0.1353  0.6195
  156SAPE   O3217345   1.224   5.029   6.599 -0.4784  0.7410  0.3272
  156SAPE   C3217346   1.134   4.951   6.820  0.2602 -0.0085 -0.0471
  156SAPE   H2X17347   1.216   4.877   6.836 -0.0450 -0.5348 -0.8622
  156SAPE   H2Y17348   1.046   4.888   6.796  0.5918  1.2211 -5.7218
  156SAPE   C2317349   0.952   5.588   7.053  0.0518 -0.1197  0.4684
  156SAPE   H3R17350   0.843   5.567   7.058 -0.5647  1.2125 -3.5698
  156SAPE   H3S17351   0.963   5.682   6.996 -1.7994  0.9045  1.6829
  156SAPE   C2417352   1.020   5.594   7.188 -0.0662 -0.1950 -0.1571
  156SAPE   H4R17353   0.957   5.655   7.256  0.0220 -1.9969  1.6319
  156SAPE   H4S17354   1.120   5.643   7.193 -0.9245  1.6201 -0.0713
  156SAPE   C2517355   1.021   5.458   7.261  0.7188  0.2718  0.4601
  156SAPE   H5R17356   0.926   5.403   7.249  1.9231 -1.5911 -1.0802
  156SAPE   C2617357   1.122   5.392   7.314 -0.2577  0.5680 -0.7336
  156SAPE   H6R17358   1.102   5.302   7.374  1.1367  1.2840  0.8772
  156SAPE   C2717359   1.264   5.444   7.337  0.6268  0.1558  0.3391
  156SAPE   H7R17360   1.271   5.530   7.407  1.8926  1.9440 -1.8485
  156SAPE   H7S17361   1.291   5.485   7.237 -0.0850 -0.3787 -0.0811
  156SAPE   C2817362   1.371   5.341   7.378  0.5410  0.4826 -0.4205
  156SAPE   H8R17363   1.442   5.305   7.302  1.0834 -3.8473  1.8433
  156SAPE   C2917364   1.400   5.299   7.507  0.2372 -0.4703 -0.2305
  156SAPE   H9R17365   1.477   5.220   7.506  2.5155  1.6125  0.1462
  156SAPE  C21017366   1.342   5.342   7.638 -0.1587 -0.2714  0.1772
  156SAPE  H10R17367   1.234   5.362   7.629  0.2343  2.3707  0.4334
  156SAPE  H10S17368   1.381   5.439   7.674 -0.0612  0.1957 -1.1364
  156SAPE  C21117369   1.351   5.236   7.741 -0.0162  1.2639 -1.1337
  156SAPE  H11R17370   1.311   5.137   7.711 -0.1565  1.8408 -2.9697
  156SAPE  C21217371   1.395   5.249   7.871  0.3765 -0.4880 -0.1797
  156SAPE  H12R17372   1.394   5.164   7.940 -2.4470  0.2054  0.7565
  156SAPE  C21317373   1.436   5.378   7.940 -0.1798  0.6902 -0.3227
  156SAPE  H13R17374   1.343   5.431   7.966  1.4688  3.6559  0.0268
  156SAPE  H13S17375   1.483   5.447   7.866  0.5333 -0.5721 -1.0912
  156SAPE  C21417376   1.513   5.369   8.068 -0.2131 -0.0073 -0.6839
  156SAPE  H14R17377   1.620   5.395   8.059  0.1760 -1.0325  0.6135
  156SAPE  C21517378   1.470   5.311   8.187 -0.0613  0.1213  0.4678
  156SAPE  H15R17379   1.548   5.314   8.264  0.9627  1.0079 -0.5635
  156SAPE  C21617380   1.340   5.251   8.229  0.4287 -0.0890  0.3214
  156SAPE  H16R17381   1.335   5.154   8.175  0.6077  0.5175 -0.8285
  156SAPE  H16S17382   1.253   5.312   8.195  0.3574  0.6017  1.6575
  156SAPE  C21717383   1.324   5.243   8.380  0.2404 -0.1092  0.4456
  156SAPE  H17R17384   1.310   5.342   8.429 -0.6647 -0.3929  0.7906
  156SAPE  H17S17385   1.411   5.192   8.427 -0.6861 -3.0781 -0.7832
  156SAPE  C21817386   1.207   5.154   8.421 -0.0787 -0.0546  0.0900
  156SAPE  H18R17387   1.225   5.044   8.416  0.1130 -0.1339  1.7035
  156SAPE  H18S17388   1.137   5.193   8.344  0.5877 -1.0196 -1.0368
  156SAPE  C21917389   1.151   5.179   8.561 -0.3650 -0.4807  0.5474
  156SAPE  H19R17390   1.050   5.134   8.566 -0.7825  0.5091  1.9600
  156SAPE  H19S17391   1.133   5.288   8.572 -1.5394 -0.5323 -0.7296
  156SAPE  C22017392   1.250   5.135   8.671  0.4048 -0.4697  0.2651
  156SAPE  H20R17393   1.347   5.190   8.661  0.3701 -0.2415  1.1096
  156SAPE  H20S17394   1.266   5.025   8.671  0.9733 -0.3933  0.8367
  156SAPE  H20T17395   1.197   5.167   8.763 -3.2400 -0.7390 -1.5596
  156SAPE   C3317396   1.103   5.033   6.956  0.2881  0.9282 -0.1786
  156SAPE   H3X17397   1.006   5.087   6.948 -0.9392 -1.1615  0.0094
  156SAPE   H3Y17398   1.182   5.109   6.976  0.4854  0.6848 -0.0227
  156SAPE   C3417399   1.086   4.935   7.070  0.1304  0.7773 -1.2704
  156SAPE   H4X17400   1.171   4.866   7.088 -2.4187 -1.7949  2.6406
  156SAPE   H4Y17401   0.998   4.872   7.044  0.5155 -0.0893 -0.4886
  156SAPE   C3517402   1.045   5.013   7.201 -0.0376  0.5498 -0.0196
  156SAPE   H5X17403   0.958   5.080   7.183 -2.4484 -2.8475 -2.3426
  156SAPE   H5Y17404   1.138   5.067   7.229  0.3462 -0.8997  1.6514
  156SAPE   C3617405   1.023   4.920   7.318  0.6015  0.3282 -0.3644
  156SAPE   H6X17406   0.936   4.856   7.292  0.2086 -0.3709  2.4364
  156SAPE   H6Y17407   0.995   4.989   7.400  3.4977  0.6079  0.4935
  156SAPE   C3717408   1.135   4.830   7.366 -0.0518  0.3439 -0.2686
  156SAPE   H7X17409   1.230   4.887   7.362  0.0527  0.1187 -2.4805
  156SAPE   H7Y17410   1.145   4.759   7.280  0.4466  1.7399 -1.4055
  156SAPE   C3817411   1.132   4.767   7.510 -0.3702  0.6843  0.0586
  156SAPE   H8X17412   1.226   4.709   7.521  0.6204  1.8639 -1.6656
  156SAPE   H8Y17413   1.052   4.692   7.525  1.7743 -2.0501 -1.1501
  156SAPE   C3917414   1.115   4.870   7.623  0.4105 -0.4054 -0.5944
  156SAPE   H9X17415   1.010   4.900   7.602  0.0919 -2.7597 -2.8618
  156SAPE   H9Y17416   1.188   4.947   7.592  1.8211 -2.3228 -2.3646
  156SAPE  C31017417   1.156   4.820   7.766  0.2090 -0.1412  0.2738
  156SAPE  H10X17418   1.264   4.795   7.765  0.0232 -1.1919  2.0664
  156SAPE  H10Y17419   1.092   4.736   7.802 -1.4963  1.3208  0.8159
  156SAPE  C31117420   1.140   4.922   7.877  0.8049 -0.1473  0.2559
  156SAPE  H11X17421   1.034   4.946   7.856  0.8965 -1.2567 -1.7462
  156SAPE  H11Y17422   1.197   5.016   7.861  1.0071 -0.4303 -0.7315
  156SAPE  C31217423   1.182   4.866   8.018 -0.4630 -0.6690 -0.0222
  156SAPE  H12X17424   1.292   4.860   8.032 -0.5301  0.2037  0.9747
  156SAPE  H12Y17425   1.135   4.767   8.037 -1.3117  0.2444  3.3155
  156SAPE  C31317426   1.122   4.949   8.131  0.1507  0.1728  0.1308
  156SAPE  H13X17427   1.139   5.050   8.089  0.3106 -0.1859 -0.6847
  156SAPE  H13Y17428   1.182   4.938   8.224 -0.0255 -1.9034  0.0433
  156SAPE  C31417429   0.977   4.915   8.168 -0.1172  0.1275 -0.3041
  156SAPE  H14X17430   0.971   4.809   8.203  1.7369 -0.0610 -0.4651
  156SAPE  H14Y17431   0.916   4.919   8.076  0.3627  1.7174 -0.5745
  156SAPE  C31517432   0.913   5.000   8.273  0.2500 -0.1075  0.7208
  156SAPE  H15X17433   0.933   5.107   8.249  1.6493 -0.4485  0.2811
  156SAPE  H15Y17434   0.961   4.975   8.370 -0.7548 -1.3265  0.9216
  156SAPE  C31617435   0.759   4.984   8.285 -0.2245  0.3635  0.1413
  156SAPE  H16X17436   0.753   4.874   8.303  1.5148  0.1744 -0.2959
  156SAPE  H16Y17437   0.712   5.013   8.189  0.7717 -0.5430 -0.6394
  156SAPE  C31717438   0.694   5.062   8.406 -0.9556 -0.4938  0.4475
  156SAPE  H17X17439   0.718   5.168   8.380  0.6775 -0.4182  2.0101
  156SAPE  H17Y17440   0.758   5.054   8.497 -1.2618  0.3861  0.7493
  156SAPE  C31817441   0.550   5.039   8.443 -0.1181 -0.2339  0.5124
  156SAPE  H18X17442   0.473   5.089   8.380 -0.5191 -2.2103 -0.6196
  156SAPE  H18Y17443   0.535   5.056   8.552 -0.3623 -0.2074  0.4758
  156SAPE  H18Z17444   0.521   4.933   8.429  1.5274 -0.3477 -2.9438
  157SAPE     N17445   0.224   6.689   6.151 -0.2203 -0.1284  0.1736
  157SAPE   HN117446   0.191   6.778   6.110 -0.8859 -0.6551 -0.4577
  157SAPE   HN217447   0.319   6.687   6.109 -0.3046  3.8056 -0.5479
  157SAPE   HN317448   0.162   6.613   6.117 -2.5826  2.5682 -1.9733
  157SAPE   C1217449   0.227   6.697   6.302 -0.1215  0.6997  0.1294
  157SAPE  H12A17450   0.237   6.804   6.328  1.7615  0.3458  1.0633
  157SAPE  H12B17451   0.313   6.635   6.337  1.4208  2.5846 -0.1178
  157SAPE   C1117452   0.098   6.640   6.358 -0.3730  0.3101 -0.1445
  157SAPE  H11A17453   0.097   6.672   6.465  0.2161  1.1353 -0.3768
  157SAPE  H11B17454   0.097   6.529   6.364 -0.9052  0.2496 -1.0808
  157SAPE     P17455  -0.116   6.605   6.213 -0.1846 -0.0367 -0.3982
  157SAPE   O1317456  -0.224   6.694   6.156  0.3049 -0.5405  0.1342
  157SAPE   O1417457  -0.028   6.531   6.123  0.1157  0.1835  0.3787
  157SAPE   O1217458  -0.022   6.695   6.293 -0.0172 -0.0383 -0.5830
  157SAPE   O1117459  -0.173   6.511   6.317  0.1721  0.0045 -0.0707
  157SAPE    C117460  -0.226   6.580   6.439  0.6604 -0.6111  0.5389
  157SAPE    HA17461  -0.138   6.594   6.505  1.8496 -1.3210 -0.8395
  157SAPE    HB17462  -0.273   6.676   6.409 -0.0373 -1.5631 -1.6849
  157SAPE    C217463  -0.338   6.489   6.501  0.2092 -0.0615  0.2377
  157SAPE    HS17464  -0.428   6.497   6.437 -1.5176 -2.5956  2.1686
  157SAPE   O2117465  -0.370   6.536   6.628  0.2921  0.4588  0.2152
  157SAPE   C2117466  -0.494   6.584   6.649  0.5912  0.1390 -0.0317
  157SAPE   O2217467  -0.592   6.571   6.578  0.3383 -0.3433 -0.0067
  157SAPE   C2217468  -0.495   6.648   6.785 -0.5037  0.5190  0.0076
  157SAPE   H2R17469  -0.412   6.720   6.796 -0.4934  0.5792 -0.4555
  157SAPE   H2S17470  -0.597   6.692   6.797 -0.7788 -0.0426 -0.2333
  157SAPE    C317471  -0.299   6.339   6.500 -0.0897 -0.7169  0.6586
  157SAPE    HX17472  -0.194   6.341   6.534  0.2986  1.5322 -0.4633
  157SAPE    HY17473  -0.310   6.308   6.394 -2.6278  1.1082  0.2912
  157SAPE   O3117474  -0.384   6.253   6.584  0.2480 -0.3185  0.1342
  157SAPE   C3117475  -0.510   6.235   6.545  0.1165  0.1869 -0.1742
  157SAPE   O3217476  -0.565   6.292   6.454  0.1136  0.1525  0.0966
  157SAPE   C3217477  -0.564   6.134   6.644  0.2068 -0.1162  0.5467
  157SAPE   H2X17478  -0.493   6.049   6.644  0.3453 -0.0006  1.0639
  157SAPE   H2Y17479  -0.664   6.110   6.601 -0.2301 -0.2909  1.6224
  157SAPE   C2317480  -0.487   6.540   6.904  0.0024 -0.1812  0.2794
  157SAPE   H3R17481  -0.389   6.487   6.905 -0.6037 -1.3292  0.3116
  157SAPE   H3S17482  -0.567   6.463   6.902 -0.9597  0.8122 -0.2226
  157SAPE   C2417483  -0.483   6.618   7.034  0.0819 -0.1734  0.2269
  157SAPE   H4R17484  -0.574   6.681   7.031 -0.5917 -1.0963  0.8497
  157SAPE   H4S17485  -0.396   6.687   7.032  0.8740 -1.1258  0.8162
  157SAPE   C2517486  -0.499   6.535   7.160 -0.1569 -0.0866 -0.4316
  157SAPE   H5R17487  -0.523   6.431   7.136  1.3457 -0.7983  1.0254
  157SAPE   C2617488  -0.465   6.562   7.295  0.4013  0.0591 -0.1597
  157SAPE   H6R17489  -0.484   6.495   7.380  0.2032  2.5984  1.8993
  157SAPE   C2717490  -0.403   6.697   7.334 -0.5585  0.1957 -0.1640
  157SAPE   H7R17491  -0.363   6.757   7.250  1.7855 -1.9180 -0.7073
  157SAPE   H7S17492  -0.314   6.674   7.397 -1.8757  0.2090  1.7744
  157SAPE   C2817493  -0.498   6.777   7.415  0.3085 -0.0940 -0.3447
  157SAPE   H8R17494  -0.571   6.839   7.362  0.7380  1.5681  0.9077
  157SAPE   C2917495  -0.503   6.786   7.550 -0.0623  0.1268 -0.0224
  157SAPE   H9R17496  -0.574   6.862   7.587 -0.3690 -0.0984 -0.1396
  157SAPE  C21017497  -0.419   6.725   7.661  0.6931  0.3749  0.2388
  157SAPE  H10R17498  -0.431   6.779   7.758 -1.0669 -0.3415  0.4671
  157SAPE  H10S17499  -0.311   6.743   7.644  0.7895  0.2263  0.6838
  157SAPE  C21117500  -0.439   6.572   7.681  0.3353 -0.4687  0.2076
  157SAPE  H11R17501  -0.398   6.506   7.603 -2.0948  0.1576 -1.7409
  157SAPE  C21217502  -0.519   6.518   7.775 -0.5563 -0.0410  0.2083
  157SAPE  H12R17503  -0.522   6.409   7.780  0.9131 -0.2893 -2.2534
  157SAPE  C21317504  -0.591   6.597   7.875 -0.2124  0.0665  0.0794
  157SAPE  H13R17505  -0.695   6.564   7.860  0.6113 -1.6382 -2.5650
  157SAPE  H13S17506  -0.586   6.708   7.867  2.4289 -0.0345 -0.6883
  157SAPE  C21417507  -0.529   6.570   8.012  0.5001 -0.1964  0.7419
  157SAPE  H14R17508  -0.421   6.554   8.025  0.3440 -1.1838  0.9033
  157SAPE  C21517509  -0.598   6.581   8.124  0.0830 -0.1441  0.2705
  157SAPE  H15R17510  -0.537   6.575   8.215  0.6130  0.5994 -0.0224
  157SAPE  C21617511  -0.750   6.604   8.132  0.4853  0.1672  0.3474
  157SAPE  H16R17512  -0.777   6.680   8.055  2.7221  0.5766 -0.0958
  157SAPE  H16S17513  -0.777   6.643   8.232 -2.6984 -0.6001 -0.0943
  157SAPE  C21717514  -0.827   6.473   8.104 -0.1065 -0.1088 -0.5074
  157SAPE  H17R17515  -0.806   6.454   7.997  2.3872 -0.7027  0.0191
  157SAPE  H17S17516  -0.936   6.488   8.123  0.0223  0.6830 -0.3354
  157SAPE  C21817517  -0.789   6.350   8.185  0.5319  0.1400 -0.2122
  157SAPE  H18R17518  -0.682   6.327   8.165  0.3093  0.7604 -2.3829
  157SAPE  H18S17519  -0.847   6.268   8.138 -0.9943  0.0239  1.7389
  157SAPE  C21917520  -0.820   6.364   8.335 -0.3952 -0.4827  0.3013
  157SAPE  H19R17521  -0.903   6.438   8.340 -0.8437 -0.7944 -1.7617
  157SAPE  H19S17522  -0.730   6.418   8.373 -0.8388  0.6111 -0.1553
  157SAPE  C22017523  -0.851   6.235   8.406 -0.5199 -0.2952 -0.1818
  157SAPE  H20R17524  -0.890   6.164   8.331 -0.2172 -0.3724 -0.2684
  157SAPE  H20S17525  -0.917   6.260   8.492  0.3257  0.6906  0.2051
  157SAPE  H20T17526  -0.754   6.197   8.445 -0.1479  0.8139  0.0129
  157SAPE   C3317527  -0.582   6.183   6.793  0.4131  0.5507  0.5696
  157SAPE   H3X17528  -0.655   6.267   6.786 -1.7546 -1.3784 -3.1285
  157SAPE   H3Y17529  -0.483   6.226   6.818  1.5163 -1.2721 -0.4680
  157SAPE   C3417530  -0.609   6.075   6.892  0.5067 -0.9632 -0.2331
  157SAPE   H4X17531  -0.527   6.004   6.914 -0.7141 -1.8146  1.8768
  157SAPE   H4Y17532  -0.699   6.022   6.853 -0.0951  1.4499 -2.4288
  157SAPE   C3517533  -0.634   6.130   7.032  0.0734  0.3598  0.1100
  157SAPE   H5X17534  -0.712   6.208   7.015 -0.5797 -0.7044 -2.1476
  157SAPE   H5Y17535  -0.541   6.180   7.067 -0.3124  0.8285  0.4876
  157SAPE   C3617536  -0.678   6.027   7.139 -0.0741  0.4617 -0.1866
  157SAPE   H6X17537  -0.584   5.978   7.171 -0.0086  0.4251 -0.4313
  157SAPE   H6Y17538  -0.743   5.960   7.079 -0.7785  0.7853  0.2045
  157SAPE   C3717539  -0.763   6.081   7.257 -0.6104 -1.0822 -0.5445
  157SAPE   H7X17540  -0.814   5.999   7.311 -2.5641  0.8082  0.6480
  157SAPE   H7Y17541  -0.842   6.147   7.213 -0.8646  0.9784  2.6419
  157SAPE   C3817542  -0.684   6.170   7.358 -0.5302  0.0081 -0.2598
  157SAPE   H8X17543  -0.627   6.256   7.316 -0.5766  2.7490  4.5768
  157SAPE   H8Y17544  -0.608   6.110   7.413 -1.1077  0.1374  0.7157
  157SAPE   C3917545  -0.775   6.210   7.468  0.0503 -0.4251 -1.1414
  157SAPE   H9X17546  -0.837   6.127   7.508  0.1750 -0.2277 -0.5239
  157SAPE   H9Y17547  -0.845   6.288   7.429 -0.7727 -0.5557  0.0033
  157SAPE  C31017548  -0.686   6.271   7.584 -0.0637 -0.5035  0.6070
  157SAPE  H10X17549  -0.759   6.330   7.644 -1.2832 -0.8855 -0.4547
  157SAPE  H10Y17550  -0.603   6.336   7.549  2.3138 -2.4899  2.2452
  157SAPE  C31117551  -0.627   6.160   7.677  0.2238 -0.3477 -0.4430
  157SAPE  H11X17552  -0.534   6.202   7.722  0.0117 -1.0424  0.6781
  157SAPE  H11Y17553  -0.598   6.077   7.610  0.1304  0.5034 -1.5569
  157SAPE  C31217554  -0.723   6.125   7.794  0.0479 -0.2700 -0.0134
  157SAPE  H12X17555  -0.825   6.090   7.769  0.0596 -1.5459  1.5313
  157SAPE  H12Y17556  -0.737   6.220   7.850  1.3313 -0.2515  0.3062
  157SAPE  C31317557  -0.675   6.019   7.890  0.0508  0.1324  0.0605
  157SAPE  H13X17558  -0.575   6.043   7.931 -0.1555 -2.5752  2.4436
  157SAPE  H13Y17559  -0.671   5.921   7.838  1.2952  0.2150 -0.0198
  157SAPE  C31417560  -0.763   5.993   8.010  0.7858  0.1304 -0.8885
  157SAPE  H14X17561  -0.860   5.970   7.960  0.7783  0.9886 -1.2971
  157SAPE  H14Y17562  -0.792   6.077   8.076 -1.4005 -1.6451  0.5721
  157SAPE  C31517563  -0.708   5.890   8.105  0.1813 -0.5508 -0.7198
  157SAPE  H15X17564  -0.624   5.938   8.160  0.8675 -1.3165 -1.0732
  157SAPE  H15Y17565  -0.671   5.804   8.046 -1.2204 -2.7527  1.3976
  157SAPE  C31617566  -0.802   5.849   8.224  0.0924 -0.4629 -0.3627
  157SAPE  H16X17567  -0.836   5.941   8.276 -1.6792 -1.6995  0.8035
  157SAPE  H16Y17568  -0.739   5.790   8.294 -1.0712 -0.0762  1.0641
  157SAPE  C31717569  -0.930   5.782   8.182 -0.0743  0.2911  0.0922
  157SAPE  H17X17570  -0.905   5.699   8.113 -1.7160  1.2143 -1.6973
  157SAPE  H17Y17571  -1.001   5.848   8.129  0.1621 -1.3133 -2.3681
  157SAPE  C31817572  -1.005   5.714   8.302 -0.4599  0.3379 -0.1637
  157SAPE  H18X17573  -1.090   5.653   8.263  1.4093  0.0287 -4.3561
  157SAPE  H18Y17574  -1.051   5.784   8.375 -2.1149 -1.9964  1.1909
  157SAPE  H18Z17575  -0.925   5.657   8.353  0.3629  1.6265  0.0191
  158SAPE     N17576   1.051   2.459   6.283 -0.2213 -0.3375 -0.0913
  158SAPE   HN117577   1.090   2.388   6.349 -0.3283  1.2418  1.7394
  158SAPE   HN217578   1.134   2.485   6.226  0.3992 -3.0800 -0.5845
  158SAPE   HN317579   1.023   2.546   6.332  2.7098  0.6000  0.1102
  158SAPE   C1217580   0.940   2.394   6.202 -0.5387 -0.6804  0.3114
  158SAPE  H12A17581   0.891   2.459   6.127 -1.1566 -1.7576 -0.2363
  158SAPE  H12B17582   0.864   2.362   6.276 -1.8666  1.7684  0.0989
  158SAPE   C1117583   0.993   2.268   6.130 -0.4640 -1.2483 -0.6977
  158SAPE  H11A17584   1.063   2.280   6.044 -0.2113  0.6794 -0.2636
  158SAPE  H11B17585   0.905   2.216   6.086 -0.4617 -1.4099 -0.5141
  158SAPE     P17586   1.099   2.040   6.162  0.2751  0.6000 -0.3006
  158SAPE   O1317587   0.971   1.962   6.158 -0.2610  0.2038 -0.4432
  158SAPE   O1417588   1.178   2.050   6.038 -0.3783  0.2364 -0.0512
  158SAPE   O1217589   1.063   2.184   6.227 -0.0729 -0.0216  0.0123
  158SAPE   O1117590   1.195   1.970   6.261 -0.3349  0.2681  0.1975
  158SAPE    C117591   1.136   1.945   6.395 -0.4835 -0.4021  0.0954
  158SAPE    HA17592   1.033   1.904   6.391 -0.3848 -0.5620 -0.9900
  158SAPE    HB17593   1.198   1.864   6.439 -1.7991  0.2645  3.4910
  158SAPE    C217594   1.150   2.052   6.511 -0.6160  0.1752 -0.1164
  158SAPE    HS17595   1.155   1.985   6.600 -1.4346 -0.7491 -0.7472
  158SAPE   O2117596   1.034   2.135   6.520 -0.2121  0.5871 -0.5436
  158SAPE   C2117597   0.929   2.085   6.580  0.1845 -0.2167  0.3789
  158SAPE   O2217598   0.926   1.975   6.635  0.2948 -0.0075 -0.0854
  158SAPE   C2217599   0.817   2.179   6.581  0.1380 -0.0009 -0.6308
  158SAPE   H2R17600   0.827   2.229   6.482  2.2730 -2.7441 -1.9275
  158SAPE   H2S17601   0.721   2.128   6.601 -0.4784  1.6356  0.8163
  158SAPE    C317602   1.278   2.136   6.494 -0.0078  0.3143 -0.2484
  158SAPE    HX17603   1.266   2.202   6.405  0.5976 -0.2881 -0.7981
  158SAPE    HY17604   1.366   2.071   6.471 -0.7372 -0.3308 -1.3155
  158SAPE   O3117605   1.312   2.203   6.615  0.1140  0.2327  0.2167
  158SAPE   C3117606   1.256   2.319   6.635 -0.1415 -0.5010  0.1730
  158SAPE   O3217607   1.182   2.382   6.563 -0.3226 -0.1229  1.2467
  158SAPE   C3217608   1.306   2.368   6.769 -0.0691 -0.1663 -0.3740
  158SAPE   H2X17609   1.374   2.446   6.728 -0.5148  0.6917  0.4879
  158SAPE   H2Y17610   1.367   2.292   6.822 -1.6937 -0.9126  0.5038
  158SAPE   C2317611   0.830   2.285   6.698  1.1898 -0.2229 -0.6097
  158SAPE   H3R17612   0.921   2.346   6.676  0.8227  0.2362 -0.8841
  158SAPE   H3S17613   0.838   2.230   6.794  0.8017 -1.1276 -1.0953
  158SAPE   C2417614   0.705   2.381   6.696 -0.6626  0.9534  0.5795
  158SAPE   H4R17615   0.691   2.411   6.590 -2.4522  3.1421  1.3599
  158SAPE   H4S17616   0.740   2.480   6.734 -0.2849  0.8592  0.4895
  158SAPE   C2517617   0.594   2.308   6.769  0.0128  0.6394 -0.2572
  158SAPE   H5R17618   0.543   2.234   6.705 -0.1545  0.8345 -0.3510
  158SAPE   C2617619   0.560   2.326   6.899 -0.2177  1.2302  0.1386
  158SAPE   H6R17620   0.474   2.268   6.934 -0.4573 -0.5722 -3.0188
  158SAPE   C2717621   0.621   2.418   7.005 -0.1241 -0.2158 -0.7379
  158SAPE   H7R17622   0.712   2.459   6.957 -0.1354 -0.6805 -1.1648
  158SAPE   H7S17623   0.655   2.365   7.096  0.4949 -0.6766 -1.2296
  158SAPE   C2817624   0.540   2.534   7.056  0.1002 -0.5739  0.0996
  158SAPE   H8R17625   0.435   2.540   7.022 -0.8463 -1.1435  2.6731
  158SAPE   C2917626   0.590   2.624   7.149 -0.1979  0.0555 -0.8290
  158SAPE   H9R17627   0.536   2.719   7.161 -0.7796 -0.4605  1.1385
  158SAPE  C21017628   0.725   2.626   7.212 -0.8357  0.5287 -0.1015
  158SAPE  H10R17629   0.759   2.729   7.237 -3.4624  1.9711 -2.0141
  158SAPE  H10S17630   0.803   2.596   7.140 -2.2021 -0.3111 -1.2921
  158SAPE  C21117631   0.738   2.551   7.345 -0.2950  0.2180  0.6032
  158SAPE  H11R17632   0.640   2.518   7.385 -0.8491  1.2105  0.0936
  158SAPE  C21217633   0.852   2.545   7.427 -0.2059  0.1141  0.5422
  158SAPE  H12R17634   0.850   2.469   7.507 -1.7638 -0.6408 -0.1655
  158SAPE  C21317635   0.982   2.607   7.392 -0.0377 -0.2227  0.7186
  158SAPE  H13R17636   0.984   2.668   7.299 -1.2290 -0.0039  0.8209
  158SAPE  H13S17637   1.065   2.533   7.387  0.4199  0.2842  0.6754
  158SAPE  C21417638   1.018   2.685   7.510 -0.2779  0.1685  0.7442
  158SAPE  H14R17639   0.978   2.788   7.507  1.3873  0.8097 -1.0243
  158SAPE  C21517640   1.094   2.649   7.615 -0.1589 -0.5791 -0.1827
  158SAPE  H15R17641   1.111   2.717   7.699 -0.6439 -0.6014 -0.0634
  158SAPE  C21617642   1.162   2.518   7.639 -0.5166 -0.2488  0.6443
  158SAPE  H16R17643   1.251   2.537   7.702 -0.2833 -0.3780  0.3525
  158SAPE  H16S17644   1.203   2.483   7.542 -0.4503 -0.2670  0.6795
  158SAPE  C21717645   1.068   2.415   7.717 -1.1517  0.0867  0.7526
  158SAPE  H17R17646   1.120   2.317   7.723 -1.8224 -0.3919 -0.8176
  158SAPE  H17S17647   0.976   2.412   7.655  0.4698  1.1288 -1.8699
  158SAPE  C21817648   1.037   2.456   7.860  0.0800 -0.2524  0.3889
  158SAPE  H18R17649   1.023   2.566   7.867  0.9036 -0.1851  1.1225
  158SAPE  H18S17650   1.130   2.428   7.915 -0.4192 -0.2651  1.2505
  158SAPE  C21917651   0.915   2.390   7.926 -0.2364 -0.3487  0.0892
  158SAPE  H19R17652   0.952   2.286   7.935 -0.4222 -0.4292 -0.0925
  158SAPE  H19S17653   0.823   2.388   7.864 -1.2594  2.1842  1.3759
  158SAPE  C22017654   0.885   2.455   8.065 -0.0888  0.2612 -0.0692
  158SAPE  H20R17655   0.981   2.444   8.119 -0.6098 -1.0506  0.6131
  158SAPE  H20S17656   0.811   2.394   8.121  0.2482  0.7667  0.9517
  158SAPE  H20T17657   0.852   2.559   8.043 -1.6190  0.0346  1.0175
  158SAPE   C3317658   1.189   2.420   6.863 -0.3699 -0.0732 -0.5483
  158SAPE   H3X17659   1.105   2.479   6.821 -0.8355  0.8251  1.5360
  158SAPE   H3Y17660   1.231   2.488   6.940 -0.0197 -1.6053  0.6639
  158SAPE   C3417661   1.122   2.296   6.930 -0.2574  0.2504  0.9893
  158SAPE   H4X17662   1.199   2.235   6.982  1.7874  0.7853 -1.2547
  158SAPE   H4Y17663   1.075   2.234   6.851 -1.5048  2.0982  0.2185
  158SAPE   C3517664   1.016   2.338   7.039 -0.5514  0.3735  0.4764
  158SAPE   H5X17665   0.939   2.404   6.995  0.8770  0.6488 -1.7550
  158SAPE   H5Y17666   1.066   2.409   7.108  1.2215  0.9333 -1.2829
  158SAPE   C3617667   0.954   2.224   7.112  0.0772 -0.3173 -0.2390
  158SAPE   H6X17668   0.976   2.134   7.051  0.1105 -1.8811  1.9705
  158SAPE   H6Y17669   0.843   2.230   7.111  0.0156 -1.3704 -0.4306
  158SAPE   C3717670   1.009   2.209   7.253 -0.4884  0.8801  0.3669
  158SAPE   H7X17671   1.114   2.172   7.258 -0.4219  0.7187 -1.4374
  158SAPE   H7Y17672   1.008   2.307   7.305  1.7034  1.3031 -0.2702
  158SAPE   C3817673   0.924   2.109   7.328 -0.3949 -0.2205  0.1429
  158SAPE   H8X17674   0.939   2.006   7.290  0.7162 -0.7098  1.8145
  158SAPE   H8Y17675   0.817   2.142   7.327 -0.2043  0.4508  0.6447
  158SAPE   C3917676   0.968   2.102   7.475 -0.0127  0.2479 -0.1961
  158SAPE   H9X17677   0.930   2.192   7.528  2.3039  0.9762  0.3597
  158SAPE   H9Y17678   1.078   2.116   7.484  0.0397 -0.3408  0.1247
  158SAPE  C31017679   0.928   1.972   7.544 -0.4488 -0.4695  0.1775
  158SAPE  H10X17680   1.010   1.957   7.618 -0.8508 -2.4621  0.2687
  158SAPE  H10Y17681   0.939   1.877   7.487  0.5556 -0.9607  1.1313
  158SAPE  C31117682   0.800   1.973   7.622  0.1113  0.5238  0.1089
  158SAPE  H11X17683   0.716   1.946   7.555  0.3010 -2.1525  0.8634
  158SAPE  H11Y17684   0.772   2.073   7.661 -1.2449 -0.0639  0.6727
  158SAPE  C31217685   0.798   1.885   7.747 -0.2061  0.4183 -0.4109
  158SAPE  H12X17686   0.865   1.797   7.731 -0.6922  0.0286 -0.3303
  158SAPE  H12Y17687   0.698   1.845   7.773  0.6597 -1.5289  0.1582
  158SAPE  C31317688   0.843   1.959   7.874  0.0869  0.0578  0.3860
  158SAPE  H13X17689   0.769   2.038   7.898 -2.0072 -1.5609 -0.4044
  158SAPE  H13Y17690   0.938   2.013   7.853  0.7828  0.1590  3.4470
  158SAPE  C31417691   0.874   1.865   7.990 -0.8965 -0.5049  0.2913
  158SAPE  H14X17692   0.961   1.811   7.945 -0.5738 -0.2134  0.5627
  158SAPE  H14Y17693   0.794   1.799   8.029  0.5947 -2.3756  0.3628
  158SAPE  C31517694   0.913   1.940   8.114 -0.1810  0.2305  0.3375
  158SAPE  H15X17695   0.992   2.015   8.092  1.5265 -1.4791  0.3663
  158SAPE  H15Y17696   0.951   1.865   8.186 -1.0535 -0.3396  0.2195
  158SAPE  C31617697   0.806   2.020   8.184 -0.0184  0.4056 -0.5068
  158SAPE  H16X17698   0.743   1.938   8.226  2.8413 -1.3248  0.7183
  158SAPE  H16Y17699   0.751   2.082   8.110  0.2456 -0.2117 -1.2377
  158SAPE  C31717700   0.858   2.106   8.308 -0.2517  0.4615 -0.0128
  158SAPE  H17X17701   0.943   2.170   8.277  0.9582 -1.4881 -0.9307
  158SAPE  H17Y17702   0.895   2.033   8.383 -0.9593 -0.5123 -0.5890
  158SAPE  C31817703   0.748   2.185   8.376 -0.1998 -0.0420 -1.1259
  158SAPE  H18X17704   0.709   2.270   8.316  0.5564  0.4868 -0.8778
  158SAPE  H18Y17705   0.793   2.221   8.471 -0.8145 -1.9020 -0.0840
  158SAPE  H18Z17706   0.660   2.123   8.405 -0.6198  0.7342 -0.6914
  159SAPE     N17707   6.727   0.520   6.514 -0.0496  0.4316  0.0023
  159SAPE   HN117708   6.669   0.517   6.427  0.2370  0.9816 -0.2143
  159SAPE   HN217709   6.661   0.497   6.590 -0.9821  1.6251 -0.4027
  159SAPE   HN317710   6.766   0.614   6.536  3.0537 -0.6043 -0.5714
  159SAPE   C1217711   6.831   0.412   6.498 -0.6502 -0.2394  0.2647
  159SAPE  H12A17712   6.793   0.360   6.407 -0.8006 -0.7514  0.6125
  159SAPE  H12B17713   6.825   0.348   6.588 -0.4307  0.7867  1.0263
  159SAPE   C1117714   6.966   0.477   6.493  0.3866 -0.0748  0.7407
  159SAPE  H11A17715   7.039   0.394   6.487  2.2009  1.4962  0.3606
  159SAPE  H11B17716   6.975   0.525   6.593  2.2772 -0.9998  1.0533
  159SAPE     P17717   7.107   0.585   6.311  0.1753 -0.2095 -0.3402
  159SAPE   O1317718   7.118   0.458   6.235  0.7933  0.0373 -0.5934
  159SAPE   O1417719   7.109   0.713   6.238  0.0895 -0.1913  0.5029
  159SAPE   O1217720   6.974   0.576   6.384  0.1216 -0.3746 -0.0127
  159SAPE   O1117721   7.224   0.583   6.418  0.7651 -0.1709  0.2318
  159SAPE    C117722   7.336   0.669   6.417  0.0197  0.0829 -0.3583
  159SAPE    HA17723   7.411   0.604   6.367  1.0584  0.2060  0.9862
  159SAPE    HB17724   7.321   0.754   6.348  0.0433  0.5278  0.1784
  159SAPE    C217725   7.370   0.727   6.556 -0.4752 -0.5530 -0.3993
  159SAPE    HS17726   7.440   0.810   6.530 -0.5182  0.4351  2.2636
  159SAPE   O2117727   7.436   0.626   6.644 -0.6952  0.2262  0.9839
  159SAPE   C2117728   7.547   0.573   6.604  0.4907  0.0684  0.2665
  159SAPE   O2217729   7.612   0.604   6.508 -0.0747 -0.2596  0.1505
  159SAPE   C2217730   7.580   0.477   6.710  0.4081  0.0579 -0.4446
  159SAPE   H2R17731   7.585   0.539   6.802  0.7260  2.2207 -1.8458
  159SAPE   H2S17732   7.498   0.403   6.726  1.7292 -1.3757 -0.0008
  159SAPE    C317733   7.243   0.777   6.633 -0.1693  0.1429  0.3422
  159SAPE    HX17734   7.160   0.703   6.636 -2.2014  2.2434 -0.7228
  159SAPE    HY17735   7.202   0.863   6.576 -0.0352  1.2509  1.8631
  159SAPE   O3117736   7.275   0.824   6.764 -0.5237  0.1484 -0.4915
  159SAPE   C3117737   7.337   0.941   6.775  0.2126  1.1355  0.9195
  159SAPE   O3217738   7.386   1.008   6.685 -0.0111  0.7690 -0.4551
  159SAPE   C3217739   7.342   0.978   6.923  0.0376 -0.1375  0.2000
  159SAPE   H2X17740   7.335   0.886   6.985 -2.9608 -1.8193 -2.3080
  159SAPE   H2Y17741   7.254   1.043   6.939  1.3903  1.8083  0.0301
  159SAPE   C2317742   7.721   0.409   6.681 -0.0899 -0.1216  0.4579
  159SAPE   H3R17743   7.786   0.490   6.643 -1.3740  0.9015  0.3626
  159SAPE   H3S17744   7.711   0.337   6.597 -1.1893 -0.9120  1.2283
  159SAPE   C2417745   7.770   0.347   6.804  0.2156  0.8796 -0.0304
  159SAPE   H4R17746   7.764   0.420   6.887 -0.5727  0.7441  0.0395
  159SAPE   H4S17747   7.880   0.335   6.794  0.3954  2.0818  0.4338
  159SAPE   C2517748   7.712   0.208   6.844  0.9352 -0.0787  0.2734
  159SAPE   H5R17749   7.735   0.127   6.774 -2.2016 -1.0409  0.2127
  159SAPE   C2617750   7.622   0.187   6.933 -0.7069  0.7525 -0.3993
  159SAPE   H6R17751   7.585   0.085   6.953  2.8197 -0.9621 -1.6775
  159SAPE   C2717752   7.578   0.293   7.032 -0.1100  1.2971  0.5317
  159SAPE   H7R17753   7.479   0.255   7.065  0.9762 -1.7936  0.5561
  159SAPE   H7S17754   7.559   0.394   6.989 -0.3428  0.4744 -1.4113
  159SAPE   C2817755   7.664   0.301   7.156  0.0771 -0.4413  0.6891
  159SAPE   H8R17756   7.761   0.249   7.153  1.0732  1.3252  0.5334
  159SAPE   C2917757   7.620   0.333   7.284  0.1722  0.1773  0.5829
  159SAPE   H9R17758   7.692   0.311   7.365  0.8586 -0.2650 -0.1269
  159SAPE  C21017759   7.477   0.379   7.324 -0.2397 -0.5367 -0.4174
  159SAPE  H10R17760   7.456   0.349   7.429 -0.7273  0.1329 -0.3196
  159SAPE  H10S17761   7.409   0.321   7.258  0.9352 -0.9040 -1.3578
  159SAPE  C21117762   7.465   0.532   7.307 -0.3368 -1.3344  0.1023
  159SAPE  H11R17763   7.466   0.572   7.205  0.2221  0.2411  0.6868
  159SAPE  C21217764   7.446   0.622   7.407  0.3223 -0.1258  0.3925
  159SAPE  H12R17765   7.429   0.726   7.377  1.0104 -0.3560 -0.8754
  159SAPE  C21317766   7.427   0.594   7.551  1.0822 -0.2204  0.4830
  159SAPE  H13R17767   7.343   0.523   7.562  1.0202 -0.5129 -1.6210
  159SAPE  H13S17768   7.392   0.685   7.605  3.2208  0.3466  1.0209
  159SAPE  C21417769   7.546   0.530   7.622  0.0985  0.2505  0.6513
  159SAPE  H14R17770   7.643   0.524   7.569 -0.0171  0.2546  0.4380
  159SAPE  C21517771   7.555   0.483   7.745  0.8115 -0.0094  0.5077
  159SAPE  H15R17772   7.648   0.450   7.794  0.0707 -0.9668  1.3021
  159SAPE  C21617773   7.443   0.502   7.848  0.5699 -0.3733  0.2920
  159SAPE  H16R17774   7.354   0.554   7.805  0.0471 -1.4311  0.0532
  159SAPE  H16S17775   7.458   0.569   7.935 -0.5394 -1.8086  1.6588
  159SAPE  C21717776   7.401   0.371   7.918  0.5369 -0.1227 -0.9403
  159SAPE  H17R17777   7.485   0.299   7.930 -1.0528 -1.7373  1.2568
  159SAPE  H17S17778   7.315   0.332   7.859 -2.4264  0.1184  2.8757
  159SAPE  C21817779   7.344   0.395   8.054 -0.5854  0.6353 -0.0482
  159SAPE  H18R17780   7.271   0.478   8.046 -1.4168  0.4324  3.7275
  159SAPE  H18S17781   7.425   0.425   8.124  0.0946  0.9925 -0.9698
  159SAPE  C21917782   7.273   0.275   8.116 -0.0903 -0.4335 -0.2400
  159SAPE  H19R17783   7.262   0.308   8.222  0.7321  1.1410 -0.6116
  159SAPE  H19S17784   7.342   0.189   8.106  1.9416  1.1022 -0.2980
  159SAPE  C22017785   7.136   0.255   8.057  0.0344  0.1014 -0.7092
  159SAPE  H20R17786   7.147   0.222   7.952  1.1766  0.5260 -0.7302
  159SAPE  H20S17787   7.076   0.349   8.061  3.0314  2.2466 -2.3610
  159SAPE  H20T17788   7.075   0.181   8.114 -1.3505  1.8996  0.2576
  159SAPE   C3317789   7.471   1.049   6.965 -0.6441 -0.0050  1.6101
  159SAPE   H3X17790   7.463   1.101   7.063 -1.0326  1.1656  0.9823
  159SAPE   H3Y17791   7.517   1.114   6.888  1.0338 -1.4275  1.3409
  159SAPE   C3417792   7.582   0.947   7.000 -0.1538 -0.3927  0.1099
  159SAPE   H4X17793   7.540   0.865   7.063 -0.4275  1.1666  2.0666
  159SAPE   H4Y17794   7.659   0.994   7.064 -0.3455  0.5168 -0.3198
  159SAPE   C3517795   7.645   0.872   6.876  0.1402 -0.7039  0.0898
  159SAPE   H5X17796   7.660   0.947   6.795 -1.9732  0.8706  1.0497
  159SAPE   H5Y17797   7.574   0.795   6.841 -2.4728  2.3314 -1.8115
  159SAPE   C3617798   7.784   0.827   6.914 -0.5764 -0.0286 -0.3501
  159SAPE   H6X17799   7.841   0.914   6.951 -1.2281  0.0936  0.3837
  159SAPE   H6Y17800   7.835   0.785   6.824 -1.0404 -1.1930 -0.0771
  159SAPE   C3717801   7.795   0.725   7.027 -0.0858  0.2092  0.4272
  159SAPE   H7X17802   7.737   0.633   7.002  0.8704 -0.8381  1.8688
  159SAPE   H7Y17803   7.748   0.776   7.114  0.2023  3.8374 -1.3887
  159SAPE   C3817804   7.935   0.686   7.072 -0.0494 -0.3046 -0.4748
  159SAPE   H8X17805   7.991   0.779   7.097  0.9465 -0.6690 -1.2916
  159SAPE   H8Y17806   7.989   0.642   6.986 -0.6712 -0.1467 -0.9517
  159SAPE   C3917807   7.939   0.586   7.189 -0.2320 -0.0700 -0.1867
  159SAPE   H9X17808   7.915   0.484   7.151  0.1507 -0.2497  0.0436
  159SAPE   H9Y17809   7.853   0.621   7.250  0.7118  1.7696  0.1624
  159SAPE  C31017810   8.067   0.557   7.272  0.0144 -0.3210 -0.0157
  159SAPE  H10X17811   8.081   0.655   7.323  1.9589 -0.3646 -0.3840
  159SAPE  H10Y17812   8.164   0.539   7.221  1.7453 -0.2810  3.0187
  159SAPE  C31117813   8.055   0.451   7.377  0.0846  0.4581 -0.4345
  159SAPE  H11X17814   8.147   0.453   7.439  0.9678  3.7248 -1.6547
  159SAPE  H11Y17815   8.042   0.354   7.324  0.5203  1.0892 -1.7441
  159SAPE  C31217816   7.928   0.457   7.460 -0.4940  0.4417  0.1874
  159SAPE  H12X17817   7.835   0.452   7.399 -3.2189  2.2287  3.8524
  159SAPE  H12Y17818   7.928   0.550   7.521 -0.3335  0.1412  0.6463
  159SAPE  C31317819   7.908   0.338   7.559 -0.0473  0.3535  0.1024
  159SAPE  H13X17820   7.932   0.241   7.510 -0.3146  0.5151 -0.3572
  159SAPE  H13Y17821   7.802   0.335   7.592 -0.3132 -1.0115 -0.7992
  159SAPE  C31417822   7.989   0.348   7.684  0.3256 -0.1971 -0.3697
  159SAPE  H14X17823   7.965   0.446   7.730  3.7933  0.8570 -0.5100
  159SAPE  H14Y17824   8.098   0.349   7.661  0.5310  1.4129  0.5614
  159SAPE  C31517825   7.975   0.242   7.800 -0.2412  0.2637 -0.1657
  159SAPE  H15X17826   8.062   0.259   7.866 -0.5824  1.5571 -0.0251
  159SAPE  H15Y17827   7.976   0.145   7.746  1.7026  0.4999 -0.6115
  159SAPE  C31617828   7.856   0.266   7.897  0.7489 -0.2764  0.5013
  159SAPE  H16X17829   7.762   0.233   7.847  1.3804 -1.2724 -0.0909
  159SAPE  H16Y17830   7.857   0.368   7.939 -0.1480 -0.0021 -0.1082
  159SAPE  C31717831   7.866   0.170   8.018 -0.2853 -0.4946 -0.2178
  159SAPE  H17X17832   7.964   0.188   8.068 -1.0805  0.3561  1.1151
  159SAPE  H17Y17833   7.858   0.064   7.985 -1.3605 -0.1027 -1.2839
  159SAPE  C31817834   7.756   0.200   8.124 -0.1447 -0.3367  0.0593
  159SAPE  H18X17835   7.654   0.172   8.093  0.1032 -1.6908  0.3766
  159SAPE  H18Y17836   7.760   0.310   8.142 -0.8855 -0.6317  2.2983
  159SAPE  H18Z17837   7.781   0.143   8.216 -1.2724 -1.0614 -0.0764
  160SAPE     N17838   1.228   4.787   6.240  0.7140  0.0822  0.2639
  160SAPE   HN117839   1.315   4.842   6.256  0.6052  1.1358 -2.3150
  160SAPE   HN217840   1.215   4.759   6.141  1.7039 -1.7420  0.5991
  160SAPE   HN317841   1.143   4.838   6.271  0.3789  0.4069 -1.1233
  160SAPE   C1217842   1.229   4.661   6.322  0.1615  0.1427  0.0588
  160SAPE  H12A17843   1.201   4.684   6.427 -2.0755  0.2035 -0.5074
  160SAPE  H12B17844   1.332   4.619   6.315  0.8448  1.7364  0.1522
  160SAPE   C1117845   1.130   4.571   6.258  0.0961 -0.4216 -0.2175
  160SAPE  H11A17846   1.145   4.472   6.307 -1.6362  0.6620  2.7545
  160SAPE  H11B17847   1.149   4.553   6.150 -3.8914  0.3604 -1.2171
  160SAPE     P17848   0.918   4.574   6.401 -0.1606  0.1528  0.1456
  160SAPE   O1317849   1.017   4.553   6.508  0.1065 -0.5330 -0.9931
  160SAPE   O1417850   0.812   4.680   6.415  0.2997  0.0179 -0.0376
  160SAPE   O1217851   0.992   4.607   6.270 -0.0016 -0.3938  0.2097
  160SAPE   O1117852   0.854   4.427   6.362  0.0289  0.5496  0.2438
  160SAPE    C117853   0.716   4.395   6.330 -0.4654 -0.2190 -0.7178
  160SAPE    HA17854   0.677   4.473   6.261 -0.7764  0.7660  0.5370
  160SAPE    HB17855   0.717   4.296   6.280  0.2876 -1.1566  1.0810
  160SAPE    C217856   0.630   4.383   6.459 -0.6416 -0.0813  0.3081
  160SAPE    HS17857   0.531   4.351   6.420  0.0145 -1.8469  0.0127
  160SAPE   O2117858   0.625   4.506   6.542 -0.6221  0.3141  0.0874
  160SAPE   C2117859   0.543   4.595   6.493  0.2992  1.2318 -0.1813
  160SAPE   O2217860   0.477   4.581   6.389 -0.4393 -0.0581  0.0121
  160SAPE   C2217861   0.528   4.709   6.594 -0.4991  0.1658  0.5892
  160SAPE   H2R17862   0.631   4.747   6.609 -0.4535  1.2973 -2.1616
  160SAPE   H2S17863   0.479   4.790   6.536  1.0103  0.1337 -0.8001
  160SAPE    C317864   0.685   4.266   6.540  0.5190 -0.4923  0.5788
  160SAPE    HX17865   0.791   4.284   6.567  1.8551 -1.5346 -3.3467
  160SAPE    HY17866   0.697   4.175   6.478 -0.8617 -1.8049  2.1235
  160SAPE   O3117867   0.595   4.236   6.655  0.0566  0.0248 -0.3133
  160SAPE   C3117868   0.628   4.281   6.775 -0.5031 -0.8624 -0.2674
  160SAPE   O3217869   0.731   4.339   6.801  0.4156 -0.0504 -0.1801
  160SAPE   C3217870   0.521   4.248   6.875 -0.3755 -0.1555 -0.0231
  160SAPE   H2X17871   0.495   4.141   6.859  0.2767 -0.4114  0.5630
  160SAPE   H2Y17872   0.431   4.311   6.857 -0.2788 -0.4009 -1.5245
  160SAPE   C2317873   0.459   4.666   6.719  0.5522  0.1007 -0.3604
  160SAPE   H3R17874   0.517   4.586   6.771  2.6325  0.7112 -1.6316
  160SAPE   H3S17875   0.362   4.615   6.701  1.1184 -1.0647 -0.2366
  160SAPE   C2417876   0.437   4.783   6.820 -0.1913 -0.0089 -0.0379
  160SAPE   H4R17877   0.381   4.726   6.897  1.6103 -1.1434  0.4991
  160SAPE   H4S17878   0.375   4.866   6.780  0.1860  1.0723  1.5353
  160SAPE   C2517879   0.578   4.832   6.868 -0.4631  0.0541 -0.3891
  160SAPE   H5R17880   0.634   4.884   6.789 -1.5368  2.5164  0.3656
  160SAPE   C2617881   0.632   4.816   6.990  0.0457 -0.8137  0.4449
  160SAPE   H6R17882   0.737   4.847   7.002 -0.5419  0.7391  1.9483
  160SAPE   C2717883   0.565   4.766   7.110 -0.6144  0.0939 -0.1927
  160SAPE   H7R17884   0.503   4.677   7.082 -0.1306  0.2956 -1.9949
  160SAPE   H7S17885   0.511   4.846   7.165 -1.0048 -0.9373  0.9854
  160SAPE   C2817886   0.669   4.700   7.190 -0.0730 -0.1001 -0.7400
  160SAPE   H8R17887   0.743   4.649   7.127 -1.3107  0.1670 -2.4739
  160SAPE   C2917888   0.657   4.687   7.324  0.1329  0.0793 -0.5008
  160SAPE   H9R17889   0.730   4.623   7.376 -1.0692 -0.5576  0.4462
  160SAPE  C21017890   0.543   4.737   7.414 -0.0154  0.0860 -0.0656
  160SAPE  H10R17891   0.528   4.667   7.499  0.7020 -0.4632 -0.3805
  160SAPE  H10S17892   0.448   4.726   7.357 -1.3801  1.9486  1.6948
  160SAPE  C21117893   0.569   4.882   7.460 -0.3183  0.5582 -0.1671
  160SAPE  H11R17894   0.598   4.959   7.387  1.3560 -0.2640 -0.4106
  160SAPE  C21217895   0.581   4.919   7.594  0.7711  0.1247 -0.0725
  160SAPE  H12R17896   0.609   5.025   7.603  0.6830  0.1321  0.1238
  160SAPE  C21317897   0.554   4.830   7.719 -0.6531 -0.3874  0.1841
  160SAPE  H13R17898   0.481   4.748   7.707 -2.3937  0.7900  2.1058
  160SAPE  H13S17899   0.521   4.887   7.808  1.7657 -1.1746  1.6638
  160SAPE  C21417900   0.677   4.754   7.742  0.2430  0.4348 -0.8583
  160SAPE  H14R17901   0.731   4.731   7.649 -0.9191 -0.1013 -1.4197
  160SAPE  C21517902   0.723   4.707   7.861 -0.4701 -0.2210  0.0757
  160SAPE  H15R17903   0.800   4.630   7.844  1.1712  1.1406  1.0972
  160SAPE  C21617904   0.655   4.710   7.996  0.2776 -0.6337 -0.0577
  160SAPE  H16R17905   0.593   4.799   8.017  0.5495 -1.0989  3.1995
  160SAPE  H16S17906   0.740   4.703   8.068 -0.0678 -0.9871  0.3264
  160SAPE  C21717907   0.571   4.582   8.033 -0.4907  0.0772  0.1998
  160SAPE  H17R17908   0.502   4.573   7.947  0.1586  2.7504 -0.7100
  160SAPE  H17S17909   0.523   4.612   8.129  0.1072 -1.3613  0.9788
  160SAPE  C21817910   0.660   4.453   8.061 -0.5186 -0.3002  0.1539
  160SAPE  H18R17911   0.728   4.475   8.146 -1.4162  3.2294  0.1233
  160SAPE  H18S17912   0.725   4.431   7.974  0.5936  1.1480  0.5823
  160SAPE  C21917913   0.582   4.327   8.090 -0.3270 -0.3096  0.0019
  160SAPE  H19R17914   0.526   4.300   7.998  0.3850 -1.9077  0.0169
  160SAPE  H19S17915   0.496   4.351   8.157 -1.3481 -0.8085 -1.1019
  160SAPE  C22017916   0.661   4.214   8.156  0.1988  0.4655  0.4885
  160SAPE  H20R17917   0.595   4.141   8.208 -1.2678  0.3308 -1.4356
  160SAPE  H20S17918   0.735   4.247   8.232 -1.0126 -0.6209  2.2137
  160SAPE  H20T17919   0.724   4.171   8.075  1.2996  0.7736  1.1724
  160SAPE   C3317920   0.566   4.269   7.016  0.0801  0.2955  0.0197
  160SAPE   H3X17921   0.559   4.376   7.044 -1.0576  0.4266 -0.7230
  160SAPE   H3Y17922   0.667   4.229   7.040  0.2501 -0.9546 -2.4914
  160SAPE   C3417923   0.488   4.186   7.116 -0.2866  0.8149  0.2415
  160SAPE   H4X17924   0.514   4.079   7.101 -0.6640  0.9246 -1.4625
  160SAPE   H4Y17925   0.381   4.188   7.086 -0.3919  1.4328  0.6365
  160SAPE   C3517926   0.509   4.227   7.259  0.4837 -0.7719 -0.7282
  160SAPE   H5X17927   0.463   4.328   7.270  1.3171 -0.4070 -0.5219
  160SAPE   H5Y17928   0.615   4.232   7.293  0.1476 -0.3192  0.2920
  160SAPE   C3617929   0.425   4.139   7.355  0.6052  0.3143  0.3940
  160SAPE   H6X17930   0.451   4.033   7.334 -0.9055 -0.1164  0.5582
  160SAPE   H6Y17931   0.315   4.141   7.339  0.4616 -1.6698  0.7910
  160SAPE   C3717932   0.452   4.155   7.503 -0.2874 -0.1245  1.2045
  160SAPE   H7X17933   0.561   4.149   7.524 -0.3874  0.4871  1.9690
  160SAPE   H7Y17934   0.402   4.084   7.573 -2.0838 -0.9108 -0.7567
  160SAPE   C3817935   0.409   4.298   7.548 -0.2920 -0.0233 -0.2292
  160SAPE   H8X17936   0.302   4.306   7.520 -0.7145 -1.1703  0.9516
  160SAPE   H8Y17937   0.468   4.374   7.492  0.5779 -0.7172 -0.2851
  160SAPE   C3917938   0.432   4.326   7.704 -0.4161 -0.3918 -0.0057
  160SAPE   H9X17939   0.504   4.409   7.719 -2.5436  1.4832  0.3049
  160SAPE   H9Y17940   0.472   4.231   7.745 -2.0702 -2.0077 -1.8810
  160SAPE  C31017941   0.310   4.369   7.781 -0.1678 -0.2261  0.1360
  160SAPE  H10X17942   0.269   4.451   7.719 -1.8966 -1.2140 -0.0893
  160SAPE  H10Y17943   0.326   4.402   7.886 -0.1696 -1.7146  0.6224
  160SAPE  C31117944   0.199   4.264   7.786  0.0139  0.1942 -0.1184
  160SAPE  H11X17945   0.240   4.198   7.865  0.8951  0.6140 -0.2092
  160SAPE  H11Y17946   0.193   4.230   7.680 -0.4511 -0.2498  0.0468
  160SAPE  C31217947   0.078   4.334   7.840  0.4299 -0.3853 -0.3863
  160SAPE  H12X17948   0.041   4.415   7.774  0.5525  0.8958  1.0567
  160SAPE  H12Y17949   0.110   4.392   7.930  0.7891  0.3692 -0.9879
  160SAPE  C31317950  -0.034   4.231   7.885  0.2222 -0.0775 -0.0826
  160SAPE  H13X17951  -0.046   4.169   7.793 -0.7406  1.6924 -1.2126
  160SAPE  H13Y17952  -0.125   4.293   7.903  0.6403  0.3666  0.5288
  160SAPE  C31417953  -0.018   4.154   8.014 -0.1165 -0.1980 -1.0385
  160SAPE  H14X17954   0.086   4.117   8.027 -0.3596 -0.2251  1.0350
  160SAPE  H14Y17955  -0.086   4.066   8.014 -0.5181 -0.0501  2.8413
  160SAPE  C31517956  -0.049   4.233   8.139 -0.3543  1.1088  0.6473
  160SAPE  H15X17957  -0.159   4.248   8.137 -0.4526  0.5776  1.5050
  160SAPE  H15Y17958   0.014   4.325   8.142  0.4092  0.6553 -0.9383
  160SAPE  C31617959  -0.016   4.141   8.264  0.3615 -0.1528 -0.1049
  160SAPE  H16X17960   0.095   4.140   8.268  0.3563  0.4024  0.2553
  160SAPE  H16Y17961  -0.027   4.033   8.241  1.8832 -0.1744 -0.8848
  160SAPE  C31717962  -0.069   4.181   8.403 -0.1603  0.5210  0.2720
  160SAPE  H17X17963  -0.180   4.188   8.397 -0.3072 -1.7300 -0.3326
  160SAPE  H17Y17964  -0.027   4.280   8.434 -0.5375  0.6138  0.4913
  160SAPE  C31817965  -0.014   4.077   8.503  0.1342 -0.0281  0.2187
  160SAPE  H18X17966   0.096   4.070   8.495  0.0287 -0.5800 -0.9955
  160SAPE  H18Y17967  -0.041   3.975   8.470  1.9978 -1.2316  2.1591
  160SAPE  H18Z17968  -0.056   4.099   8.604 -0.2124  2.2071 -0.3471
  161SOPE     N17969   3.964   0.175  10.832  0.3008  0.0260 -0.5166
  161SOPE   HN117970   3.874   0.136  10.796  0.0188  0.7335 -0.5896
  161SOPE   HN217971   4.006   0.099  10.890 -1.3947 -0.6888 -0.1403
  161SOPE   HN317972   3.944   0.256  10.893  1.2539  1.2503 -1.7833
  161SOPE   C1217973   4.051   0.213  10.719 -0.7650 -0.5134 -0.2122
  161SOPE  H12A17974   4.108   0.124  10.685 -1.7030 -1.7206  1.2638
  161SOPE  H12B17975   4.116   0.296  10.756 -2.0833  0.6263 -0.3742
  161SOPE   C1117976   3.963   0.266  10.609  0.4403  0.2425  0.3048
  161SOPE  H11A17977   3.904   0.189  10.555  2.6666 -1.7111  0.5241
  161SOPE  H11B17978   4.040   0.297  10.535  0.8164 -1.5695 -0.0991
  161SOPE     P17979   3.722   0.356  10.657  0.1409 -0.0905 -0.3810
  161SOPE   O1317980   3.664   0.469  10.733  0.4930  0.1359  0.4707
  161SOPE   O1417981   3.678   0.220  10.694 -0.3889  0.0103  0.5602
  161SOPE   O1217982   3.877   0.367  10.652  0.5118  0.0944 -0.3294
  161SOPE   O1117983   3.676   0.365  10.507  0.5220  0.1235  0.2130
  161SOPE    C117984   3.758   0.389  10.392 -0.4619 -0.2878  0.1759
  161SOPE    HA17985   3.699   0.366  10.301 -0.3988  2.1722 -0.5428
  161SOPE    HB17986   3.847   0.322  10.398 -1.2664 -1.4420 -0.4503
  161SOPE    C217987   3.807   0.533  10.371  0.4097 -0.5828  0.5891
  161SOPE    HS17988   3.865   0.561  10.461  0.4467 -0.7326  0.6104
  161SOPE   O2117989   3.687   0.608  10.366  0.1078 -0.5926 -0.0268
  161SOPE   C2117990   3.699   0.742  10.368  0.0015  0.4770  0.4736
  161SOPE   O2217991   3.794   0.806  10.409 -0.1204  0.6677 -0.5937
  161SOPE   C2217992   3.566   0.810  10.314 -0.6344 -0.1257 -0.4631
  161SOPE   H2R17993   3.499   0.802  10.402  1.2498 -0.4920  1.0181
  161SOPE   H2S17994   3.526   0.741  10.236 -1.1034 -0.2264 -0.1368
  161SOPE    C317995   3.895   0.549  10.247  0.3610 -0.0079  0.7008
  161SOPE    HX17996   3.969   0.467  10.257  1.1751  0.4366 -1.1553
  161SOPE    HY17997   3.949   0.646  10.244  0.8026 -0.0931  3.3623
  161SOPE   O3117998   3.818   0.511  10.130  0.0341  0.1411 -0.0088
  161SOPE   C3117999   3.778   0.615  10.050 -0.1783  0.1336 -0.2397
  161SOPE   O3218000   3.810   0.731  10.067 -0.3943 -0.3996  0.5169
  161SOPE   C3218001   3.706   0.562   9.927 -0.3633 -0.5105  0.7557
  161SOPE   H2X18002   3.611   0.512   9.955  0.0398 -0.9818  1.3012
  161SOPE   H2Y18003   3.781   0.496   9.878  1.2086  0.8217  1.2872
  161SOPE   C2318004   3.576   0.946  10.254  0.0583  0.1663  0.5458
  161SOPE   H3R18005   3.659   0.945  10.180 -1.6385 -0.2431 -1.4369
  161SOPE   H3S18006   3.607   1.012  10.338 -0.0489  0.1062  0.6324
  161SOPE   C2418007   3.448   0.998  10.185  0.6092  0.3240 -0.0177
  161SOPE   H4R18008   3.408   0.924  10.113  0.1227  0.4535  0.1159
  161SOPE   H4S18009   3.370   1.010  10.263  0.8212  0.4589  0.1758
  161SOPE   C2518010   3.457   1.132  10.117 -0.4250  0.3618 -0.3134
  161SOPE   H5R18011   3.360   1.163  10.073 -1.5024  0.5237  2.0277
  161SOPE   H5S18012   3.476   1.208  10.196 -3.3902  0.6724  0.1938
  161SOPE   C2618013   3.562   1.140  10.001 -0.0057  0.0630 -1.2920
  161SOPE   H6R18014   3.565   1.246   9.965  2.3322  0.4936 -0.0225
  161SOPE   H6S18015   3.666   1.122  10.034 -0.0579  0.9339 -0.6236
  161SOPE   C2718016   3.521   1.058   9.880  0.2890 -0.1630 -0.2029
  161SOPE   H7R18017   3.515   0.951   9.907  0.9668  0.2908  1.9064
  161SOPE   H7S18018   3.422   1.098   9.848  1.4340  3.5911  0.3481
  161SOPE   C2818019   3.612   1.072   9.762  0.1155 -0.1142 -0.5867
  161SOPE   H8R18020   3.703   1.014   9.786  0.1157  0.1144 -0.0360
  161SOPE   H8S18021   3.572   1.011   9.677 -0.5545  0.3917 -0.6453
  161SOPE   C2918022   3.664   1.209   9.733  0.0324 -0.2085  0.1005
  161SOPE   H9118023   3.728   1.258   9.807  1.7245 -0.5931 -1.0518
  161SOPE  C21018024   3.646   1.292   9.632  0.4581 -0.0418  0.0788
  161SOPE  H10118025   3.709   1.383   9.629 -0.1718  0.4861  1.8458
  161SOPE  C21118026   3.555   1.271   9.512 -0.2205  0.1659  0.6134
  161SOPE  H11R18027   3.489   1.359   9.498 -1.8588 -1.2002 -0.7819
  161SOPE  H11S18028   3.487   1.184   9.529 -1.2602  0.8853  0.2310
  161SOPE  C21218029   3.625   1.262   9.370 -0.3715 -0.2179  0.2753
  161SOPE  H12R18030   3.712   1.194   9.367  0.3569  0.5953 -4.3537
  161SOPE  H12S18031   3.672   1.359   9.344 -2.7541  0.9682  0.1108
  161SOPE  C21318032   3.524   1.223   9.253 -0.1562 -0.1094  0.2380
  161SOPE  H13R18033   3.435   1.287   9.267 -1.0286 -0.9330 -1.3394
  161SOPE  H13S18034   3.495   1.117   9.266  0.2356 -0.1561  0.7814
  161SOPE  C21418035   3.580   1.266   9.121  0.2409 -0.6860  0.2306
  161SOPE  H14R18036   3.645   1.182   9.089 -0.8025 -1.7199  0.7388
  161SOPE  H14S18037   3.639   1.360   9.129 -0.0152 -0.3890 -1.1536
  161SOPE  C21518038   3.474   1.279   9.002 -0.4331  0.4936  0.0655
  161SOPE  H15R18039   3.415   1.371   9.017 -1.0277  0.0843  0.2846
  161SOPE  H15S18040   3.406   1.194   9.024  1.5851 -1.1718  0.2262
  161SOPE  C21618041   3.557   1.276   8.875 -0.5667  0.1399  0.2965
  161SOPE  H16R18042   3.610   1.179   8.881  2.1729  1.6181  1.6847
  161SOPE  H16S18043   3.628   1.362   8.873 -2.4182  1.8002  1.5467
  161SOPE  C21718044   3.477   1.284   8.740 -0.1476  0.0000 -0.0467
  161SOPE  H17R18045   3.403   1.201   8.749 -0.7000  0.5232  0.2777
  161SOPE  H17S18046   3.552   1.265   8.660  4.1594  1.6101  3.2501
  161SOPE  C21818047   3.411   1.420   8.713  0.1207 -0.8270 -0.4977
  161SOPE  H18R18048   3.372   1.426   8.610 -0.0179 -0.0639 -0.4010
  161SOPE  H18S18049   3.477   1.508   8.731 -1.9888  0.8857 -0.8032
  161SOPE  H18T18050   3.329   1.438   8.785 -0.4997 -0.1572 -1.3629
  161SOPE   C3318051   3.688   0.665   9.812 -0.1947 -0.4313  0.1097
  161SOPE   H3X18052   3.787   0.704   9.780 -1.0127 -0.4032 -2.6473
  161SOPE   H3Y18053   3.623   0.747   9.850 -0.6977 -1.6577  2.0072
  161SOPE   C3418054   3.608   0.599   9.695  0.6827 -0.5775  0.4205
  161SOPE   H4X18055   3.527   0.545   9.748  0.6881 -1.9083 -0.8702
  161SOPE   H4Y18056   3.677   0.525   9.648 -0.3478 -0.8056 -0.7871
  161SOPE   C3518057   3.541   0.700   9.595 -0.5289 -0.2490  0.6501
  161SOPE   H5X18058   3.509   0.788   9.654  0.9379  1.3785 -0.8658
  161SOPE   H5Y18059   3.458   0.645   9.545  0.0654  0.4889 -1.2547
  161SOPE   C3618060   3.632   0.736   9.483  0.1079  0.2195 -0.0344
  161SOPE   H6X18061   3.672   0.644   9.435  2.6083  1.2015  0.0307
  161SOPE   H6Y18062   3.721   0.789   9.523  0.6299 -0.5514 -0.1404
  161SOPE   C3718063   3.560   0.810   9.367  0.5520  0.2356  0.1844
  161SOPE   H7X18064   3.523   0.906   9.407  1.1727 -0.8340  3.6981
  161SOPE   H7Y18065   3.484   0.741   9.325  0.8718  0.3453 -0.6004
  161SOPE   C3818066   3.651   0.851   9.254  0.3261 -0.6015  0.4155
  161SOPE   H8X18067   3.759   0.855   9.282  0.2974  0.5185  0.3911
  161SOPE   H8Y18068   3.632   0.953   9.216  1.8106 -0.1653  0.7625
  161SOPE   C3918069   3.637   0.759   9.130  0.6682 -0.9911  0.1505
  161SOPE   H9X18070   3.532   0.762   9.094  0.0865 -2.1443  1.6525
  161SOPE   H9Y18071   3.665   0.654   9.152 -2.6964 -1.4114  3.3034
  161SOPE  C31018072   3.730   0.809   9.014 -0.2627 -0.1995 -0.6394
  161SOPE  H10X18073   3.832   0.788   9.052 -0.8059  0.4380  1.2767
  161SOPE  H10Y18074   3.714   0.919   9.004 -0.1398 -0.1524 -0.3170
  161SOPE  C31118075   3.704   0.745   8.875  0.3554 -0.1418  0.2331
  161SOPE  H11X18076   3.741   0.640   8.884 -0.9070 -0.7840 -1.5028
  161SOPE  H11Y18077   3.761   0.793   8.793 -0.5758 -0.9016 -0.8967
  161SOPE  C31218078   3.553   0.749   8.830  0.6771  0.6309 -0.2798
  161SOPE  H12X18079   3.531   0.858   8.826  1.2697  0.7198 -3.5350
  161SOPE  H12Y18080   3.485   0.701   8.905  1.8548 -0.0702  0.3765
  161SOPE  C31318081   3.530   0.675   8.698  0.4824  0.0163  0.9088
  161SOPE  H13X18082   3.532   0.567   8.723 -2.4941  0.0126  1.4831
  161SOPE  H13Y18083   3.609   0.696   8.623 -1.2301 -0.2549 -1.0649
  161SOPE  C31418084   3.384   0.709   8.645 -0.5113 -0.4467  0.3985
  161SOPE  H14X18085   3.303   0.692   8.719 -0.4200  0.6117  0.7644
  161SOPE  H14Y18086   3.369   0.646   8.555  2.3173 -1.3051  0.4351
  161SOPE  C31518087   3.378   0.862   8.606  0.6112  0.5771 -0.0635
  161SOPE  H15X18088   3.352   0.934   8.686 -0.8577  1.3346 -1.1658
  161SOPE  H15Y18089   3.283   0.858   8.548  0.8488 -1.3579 -0.3905
  161SOPE  C31618090   3.477   0.920   8.502  0.0462  0.0352 -0.6928
  161SOPE  H16X18091   3.578   0.914   8.548 -0.3017  0.2628  0.1175
  161SOPE  H16Y18092   3.453   1.026   8.482 -1.6014 -0.1474  0.1339
  161SOPE  C31718093   3.478   0.848   8.366  1.0182  0.3478 -0.2856
  161SOPE  H17X18094   3.386   0.872   8.310  1.9101  1.7592 -1.2116
  161SOPE  H17Y18095   3.501   0.742   8.387 -0.1679  0.2131  0.4337
  161SOPE  C31818096   3.587   0.905   8.280 -0.0453  0.4710 -0.1942
  161SOPE  H18X18097   3.579   1.016   8.283 -1.0569  0.4522  4.2788
  161SOPE  H18Y18098   3.598   0.858   8.180 -0.9294 -1.8892  0.7467
  161SOPE  H18Z18099   3.681   0.870   8.328 -1.5487  0.1096  2.6794
  162SOPE     N18100   3.228   0.035  11.044  0.0941  0.1258  0.8057
  162SOPE   HN118101   3.232   0.123  10.988  2.8154 -1.5096 -1.8576
  162SOPE   HN218102   3.300   0.022  11.117  1.7556 -1.3451 -0.9858
  162SOPE   HN318103   3.258  -0.037  10.975 -1.9540 -1.1987  1.1976
  162SOPE   C1218104   3.081   0.001  11.076 -1.0889 -0.1895  0.2322
  162SOPE  H12A18105   3.024   0.093  11.104  1.0179  1.3836 -0.4166
  162SOPE  H12B18106   3.091  -0.068  11.163  2.3076 -2.2742 -1.6304
  162SOPE   C1118107   3.018  -0.058  10.949 -0.0138  0.7816  0.2479
  162SOPE  H11A18108   3.037   0.019  10.872 -1.2757  1.3286  0.4608
  162SOPE  H11B18109   2.907  -0.067  10.953 -0.2444  3.0993  0.0698
  162SOPE     P18110   3.053  -0.269  10.780  0.0320 -0.2075 -0.4926
  162SOPE   O1318111   2.965  -0.378  10.821 -0.5412  0.0546 -0.1433
  162SOPE   O1418112   3.180  -0.305  10.712 -0.1117  0.3217 -0.7014
  162SOPE   O1218113   3.088  -0.173  10.900  0.1906 -0.0436  0.2901
  162SOPE   O1118114   2.974  -0.159  10.697 -0.3586  0.0635  0.2541
  162SOPE    C118115   3.047  -0.119  10.577  0.2056 -0.1388 -0.2702
  162SOPE    HA18116   3.090  -0.201  10.516 -1.6534 -0.0987 -1.7465
  162SOPE    HB18117   3.126  -0.047  10.605 -0.3498  0.5793 -0.5098
  162SOPE    C218118   2.938  -0.059  10.493 -0.2113 -0.0750  0.1339
  162SOPE    HS18119   2.873   0.014  10.546  1.0635  2.3082 -1.4225
  162SOPE   O2118120   2.866  -0.166  10.421 -0.2848  0.3191 -0.1061
  162SOPE   C2118121   2.749  -0.197  10.473  0.7075 -0.1568 -0.6292
  162SOPE   O2218122   2.682  -0.138  10.556 -0.2487 -0.8794 -0.6068
  162SOPE   C2218123   2.697  -0.323  10.409  0.2096 -0.2215  0.8397
  162SOPE   H2R18124   2.667  -0.385  10.497  0.6375  1.8963  2.5838
  162SOPE   H2S18125   2.780  -0.370  10.353  0.5430  3.1965 -1.9230
  162SOPE    C318126   3.002   0.022  10.374 -0.3038 -0.4068 -0.2806
  162SOPE    HX18127   3.075  -0.037  10.316  1.1623  0.5115  0.5501
  162SOPE    HY18128   3.078   0.094  10.413 -0.6986  0.8373 -1.7437
  162SOPE   O3118129   2.895   0.082  10.294 -0.1942  0.3266 -0.0287
  162SOPE   C3118130   2.939   0.181  10.211  0.3657 -0.3643  0.2253
  162SOPE   O3218131   3.054   0.217  10.198 -0.6933 -0.3323 -0.4147
  162SOPE   C3218132   2.821   0.232  10.130  0.4022  1.0935 -0.2431
  162SOPE   H2X18133   2.762   0.296  10.199 -0.9556 -2.5510  2.3032
  162SOPE   H2Y18134   2.771   0.148  10.077  0.3366  0.4453  0.8240
  162SOPE   C2318135   2.580  -0.311  10.315  0.3201 -0.1889  0.0226
  162SOPE   H3R18136   2.493  -0.267  10.368  0.3315 -0.1720  0.0272
  162SOPE   H3S18137   2.562  -0.406  10.262  3.2326 -0.5746 -0.4436
  162SOPE   C2418138   2.616  -0.207  10.206 -1.0685  0.2926 -0.6683
  162SOPE   H4R18139   2.665  -0.117  10.250 -0.4433 -0.3090 -0.1284
  162SOPE   H4S18140   2.698  -0.242  10.140 -1.8802 -0.1872 -1.4452
  162SOPE   C2518141   2.489  -0.161  10.134  0.1068 -0.2438 -0.3523
  162SOPE   H5R18142   2.457  -0.246  10.069  0.8386  0.4446 -1.6436
  162SOPE   H5S18143   2.397  -0.145  10.194  0.8359  0.7267  0.5524
  162SOPE   C2618144   2.504  -0.044  10.032  0.5294  0.3541 -0.4191
  162SOPE   H6R18145   2.567   0.038  10.073  1.2926 -0.3977 -0.0541
  162SOPE   H6S18146   2.550  -0.095   9.945 -1.7373 -0.9801 -0.9126
  162SOPE   C2718147   2.379   0.031   9.975 -0.2428  0.0926  1.0466
  162SOPE   H7R18148   2.314  -0.046   9.928 -0.2803 -0.4085  1.8949
  162SOPE   H7S18149   2.319   0.072  10.059 -2.1012 -0.9240  0.2798
  162SOPE   C2818150   2.415   0.131   9.863  0.3745 -0.0325 -0.6817
  162SOPE   H8R18151   2.313   0.155   9.826  0.2235  0.0940 -0.1865
  162SOPE   H8S18152   2.448   0.226   9.911  0.1551 -1.5755  2.8484
  162SOPE   C2918153   2.518   0.094   9.758  0.1199  0.5541 -0.5155
  162SOPE   H9118154   2.614   0.061   9.801 -0.3464  0.0836  0.1819
  162SOPE  C21018155   2.508   0.102   9.627  0.2340  0.2429  1.1543
  162SOPE  H10118156   2.597   0.075   9.569  2.1836  1.8836  3.2248
  162SOPE  C21118157   2.391   0.148   9.538 -0.0068  0.2607 -0.1964
  162SOPE  H11R18158   2.341   0.236   9.583 -3.4728 -0.5969 -2.0013
  162SOPE  H11S18159   2.310   0.073   9.554  0.1336  0.2920  0.7168
  162SOPE  C21218160   2.419   0.185   9.389 -0.2299  0.5803  0.1321
  162SOPE  H12R18161   2.442   0.090   9.338 -0.3220  0.8067 -0.3320
  162SOPE  H12S18162   2.508   0.248   9.368  1.5652 -1.7366  0.4428
  162SOPE  C21318163   2.301   0.234   9.301  0.0338 -0.2318  0.0420
  162SOPE  H13R18164   2.273   0.341   9.310  3.0698  0.8520 -1.7567
  162SOPE  H13S18165   2.214   0.170   9.327 -2.2214  2.7064  0.2758
  162SOPE  C21418166   2.326   0.218   9.147  0.2695 -0.2644 -0.6397
  162SOPE  H14R18167   2.233   0.261   9.103  0.8519  1.7585 -0.0164
  162SOPE  H14S18168   2.317   0.109   9.129 -0.1018 -0.2771 -0.4020
  162SOPE  C21518169   2.451   0.266   9.086  0.5527 -0.6988 -0.1601
  162SOPE  H15R18170   2.530   0.201   9.129  0.3101 -0.8650  0.0354
  162SOPE  H15S18171   2.471   0.364   9.133  1.3514 -1.2867  0.7877
  162SOPE  C21618172   2.458   0.279   8.936  0.5044 -0.1520 -0.8819
  162SOPE  H16R18173   2.545   0.342   8.910  0.2439  2.7237  3.9023
  162SOPE  H16S18174   2.366   0.332   8.903  1.9509  0.3483 -4.5429
  162SOPE  C21718175   2.449   0.142   8.871  0.0879 -0.5049 -0.1669
  162SOPE  H17R18176   2.354   0.086   8.887 -0.3052  0.2198  0.0893
  162SOPE  H17S18177   2.533   0.087   8.917 -0.6965  0.6080  2.8279
  162SOPE  C21818178   2.476   0.156   8.719  0.3112 -0.8432  0.0216
  162SOPE  H18R18179   2.582   0.176   8.693  0.2382 -1.8352 -1.1460
  162SOPE  H18S18180   2.406   0.233   8.680  1.7042  1.3432  1.5911
  162SOPE  H18T18181   2.460   0.058   8.669 -0.3914 -1.1356  0.8044
  162SOPE   C3318182   2.878   0.318  10.017 -0.4978 -0.5759  0.1350
  162SOPE   H3X18183   2.943   0.252   9.955 -1.2641 -1.4935  0.2966
  162SOPE   H3Y18184   2.947   0.387  10.072  0.4556 -2.0350  0.8413
  162SOPE   C3418185   2.767   0.397   9.944 -1.0708 -0.3927 -0.2839
  162SOPE   H4X18186   2.713   0.444  10.028 -0.2618 -0.8312  0.4961
  162SOPE   H4Y18187   2.695   0.326   9.896 -1.0072 -1.0765  0.6114
  162SOPE   C3518188   2.821   0.496   9.840  0.0814 -0.7002  0.4888
  162SOPE   H5X18189   2.914   0.541   9.881 -0.9703  3.0062 -0.8115
  162SOPE   H5Y18190   2.748   0.579   9.835  1.2242  0.2659 -2.8798
  162SOPE   C3618191   2.829   0.430   9.702  0.7456 -0.4882 -0.3339
  162SOPE   H6X18192   2.855   0.506   9.624 -0.5380  0.8242  0.4792
  162SOPE   H6Y18193   2.738   0.374   9.672  0.3468 -0.5031  0.8637
  162SOPE   C3718194   2.943   0.321   9.695  0.6548  0.5705 -0.1224
  162SOPE   H7X18195   2.898   0.235   9.749  0.3177  0.5759 -0.3898
  162SOPE   H7Y18196   3.033   0.355   9.750  1.8317 -0.0500 -1.6362
  162SOPE   C3818197   2.976   0.274   9.554  0.2501  0.0592  0.5619
  162SOPE   H8X18198   3.054   0.194   9.560 -1.1874 -1.3800  0.8576
  162SOPE   H8Y18199   3.014   0.371   9.515 -1.2274  0.4768  0.1150
  162SOPE   C3918200   2.859   0.220   9.469  0.5359 -0.1026 -0.2972
  162SOPE   H9X18201   2.791   0.305   9.447 -2.7504 -2.7203 -1.1509
  162SOPE   H9Y18202   2.798   0.157   9.537 -0.4042  2.4616  1.3605
  162SOPE  C31018203   2.883   0.149   9.334  0.6084 -0.1032  0.3908
  162SOPE  H10X18204   2.785   0.144   9.283  0.3356  0.9317  0.7938
  162SOPE  H10Y18205   2.909   0.041   9.339 -1.5156 -0.6417  0.7367
  162SOPE  C31118206   2.987   0.222   9.252  0.4350 -0.2950  0.4584
  162SOPE  H11X18207   3.092   0.202   9.285  0.0810 -2.0333  0.6004
  162SOPE  H11Y18208   2.959   0.326   9.277 -2.0275 -0.9230  0.5507
  162SOPE  C31218209   2.988   0.195   9.100  0.4871 -0.0845  0.3397
  162SOPE  H12X18210   3.020   0.089   9.088  0.3746 -0.0198 -0.6146
  162SOPE  H12Y18211   3.064   0.264   9.058 -0.4997 -0.0576 -1.4998
  162SOPE  C31318212   2.858   0.210   9.022  0.2512 -0.5146 -0.7642
  162SOPE  H13X18213   2.811   0.311   9.025 -0.7587 -0.9891 -0.2266
  162SOPE  H13Y18214   2.788   0.135   9.064 -0.3127  0.6494  0.4482
  162SOPE  C31418215   2.869   0.174   8.872 -0.3052 -0.2373 -0.0323
  162SOPE  H14X18216   2.765   0.154   8.836 -0.3166 -1.3702  0.5808
  162SOPE  H14Y18217   2.922   0.076   8.869 -0.9882 -0.6371  0.4677
  162SOPE  C31518218   2.936   0.281   8.790 -0.5335 -0.1339  0.4735
  162SOPE  H15X18219   3.044   0.285   8.815 -0.0349  1.8880 -1.6104
  162SOPE  H15Y18220   2.892   0.377   8.826  0.8394 -0.3066  2.8334
  162SOPE  C31618221   2.905   0.268   8.639 -0.4140 -0.0277 -0.4051
  162SOPE  H16X18222   2.797   0.256   8.619 -0.8489 -0.5044  1.9289
  162SOPE  H16Y18223   2.960   0.175   8.611 -0.9570 -0.8881  1.2630
  162SOPE  C31718224   2.948   0.385   8.554 -0.2144  0.6447  0.3039
  162SOPE  H17X18225   2.891   0.477   8.579  0.6972  1.1256  0.6720
  162SOPE  H17Y18226   2.912   0.351   8.454  0.0371  0.3350  0.3165
  162SOPE  C31818227   3.104   0.410   8.556  0.7103  0.5896 -0.2029
  162SOPE  H18X18228   3.138   0.441   8.656 -0.5206 -0.1223  0.4602
  162SOPE  H18Y18229   3.123   0.500   8.494  1.7707  1.3424  1.1653
  162SOPE  H18Z18230   3.162   0.320   8.525 -0.3640 -0.7150  1.4098
  163SOPE     N18231   6.687   5.085  10.887  0.2973 -0.7050  0.1455
  163SOPE   HN118232   6.784   5.049  10.897 -0.1771 -1.5633  2.1406
  163SOPE   HN218233   6.613   5.012  10.877 -0.3651 -0.1909  1.1414
  163SOPE   HN318234   6.692   5.120  10.789  0.3447 -0.2696  0.3019
  163SOPE   C1218235   6.639   5.181  10.989 -0.3193  0.3040  0.1733
  163SOPE  H12A18236   6.721   5.231  11.045 -1.2625 -0.0020  1.9189
  163SOPE  H12B18237   6.592   5.119  11.068  1.3003  0.4990  1.3502
  163SOPE   C1118238   6.536   5.279  10.929  0.7907 -0.9995 -0.2728
  163SOPE  H11A18239   6.578   5.361  10.867 -2.7632  0.3122 -1.1938
  163SOPE  H11B18240   6.480   5.322  11.015  1.4231 -1.7068  0.5145
  163SOPE     P18241   6.331   5.291  10.754 -0.0301 -0.2670  0.2141
  163SOPE   O1318242   6.258   5.370  10.859  0.0169 -0.3940 -0.1325
  163SOPE   O1418243   6.253   5.198  10.674 -0.8502 -0.0687  0.0639
  163SOPE   O1218244   6.451   5.217  10.831  0.7804  0.3435  0.2941
  163SOPE   O1118245   6.413   5.395  10.666  0.6066  0.1188 -0.9466
  163SOPE    C118246   6.499   5.346  10.565  0.4649  0.1838  0.1582
  163SOPE    HA18247   6.505   5.235  10.573 -1.2261 -0.2628 -3.1220
  163SOPE    HB18248   6.603   5.375  10.588  0.9787 -0.6948 -0.9460
  163SOPE    C218249   6.457   5.382  10.420  0.7784 -0.3690  0.3435
  163SOPE    HS18250   6.454   5.493  10.422  0.6165 -0.3797  1.6623
  163SOPE   O2118251   6.332   5.335  10.382  0.1591 -0.2158 -0.1122
  163SOPE   C2118252   6.226   5.406  10.428 -0.2012 -0.3239  0.1954
  163SOPE   O2218253   6.238   5.506  10.497  0.1151  0.1094 -0.2233
  163SOPE   C2218254   6.091   5.339  10.394  0.1713  0.2297 -0.9191
  163SOPE   H2R18255   6.006   5.410  10.402  0.1362  0.3502 -2.1008
  163SOPE   H2S18256   6.087   5.247  10.455  1.0692  0.1630 -0.9487
  163SOPE    C318257   6.556   5.322  10.315 -0.2691  0.3597 -0.6023
  163SOPE    HX18258   6.554   5.211  10.329 -0.6251  0.6374  2.0269
  163SOPE    HY18259   6.659   5.345  10.347 -0.9666  0.8527  1.4381
  163SOPE   O3118260   6.530   5.355  10.177 -0.0345  0.6106 -0.0747
  163SOPE   C3118261   6.625   5.300  10.101  0.1023 -0.0555  0.5154
  163SOPE   O3218262   6.710   5.226  10.136 -0.0381  0.2419  0.3916
  163SOPE   C3218263   6.607   5.354   9.964 -0.2956  0.3710  0.4515
  163SOPE   H2X18264   6.650   5.455   9.948 -1.0819  0.9877  2.0375
  163SOPE   H2Y18265   6.498   5.359   9.944  0.0637  0.1692 -1.8962
  163SOPE   C2318266   6.087   5.290  10.250  0.1484  0.4725  0.5911
  163SOPE   H3R18267   5.991   5.236  10.233 -0.2318  0.8201  1.5878
  163SOPE   H3S18268   6.166   5.215  10.226 -2.5226 -1.9844 -1.1064
  163SOPE   C2418269   6.095   5.411  10.155  0.4965  0.2656  0.3687
  163SOPE   H4R18270   6.023   5.489  10.188  0.8669  1.4513 -1.4819
  163SOPE   H4S18271   6.197   5.451  10.141  0.2913  0.1658 -1.7097
  163SOPE   C2518272   6.064   5.376  10.008  0.1290  0.3681  0.0487
  163SOPE   H5R18273   6.124   5.293   9.967  1.8193  0.7661  1.5534
  163SOPE   H5S18274   5.960   5.336  10.014  1.0746 -2.2403  0.4281
  163SOPE   C2618275   6.071   5.494   9.908  0.5663  0.6006 -0.9430
  163SOPE   H6R18276   6.007   5.573   9.952  0.7722  1.3269 -1.9007
  163SOPE   H6S18277   6.174   5.534   9.893  1.2464 -0.1257  1.4032
  163SOPE   C2718278   6.010   5.447   9.772  0.2010  0.7465  0.0190
  163SOPE   H7R18279   5.921   5.383   9.794  1.6566 -2.9879 -3.6606
  163SOPE   H7S18280   5.975   5.532   9.710  0.6234  2.3467  1.8846
  163SOPE   C2818281   6.110   5.361   9.696  0.8711  0.1437 -0.6268
  163SOPE   H8R18282   6.159   5.291   9.767  2.4843 -0.0090 -1.8195
  163SOPE   H8S18283   6.055   5.296   9.624  0.0223 -2.0955  1.8798
  163SOPE   C2918284   6.223   5.439   9.623  0.4559  0.5754 -0.2978
  163SOPE   H9118285   6.292   5.492   9.690 -1.3304  1.8404  0.6446
  163SOPE  C21018286   6.231   5.464   9.492  0.2586  0.6436  0.1982
  163SOPE  H10118287   6.305   5.536   9.455  0.8600  0.3407  0.8000
  163SOPE  C21118288   6.123   5.407   9.399  0.0524 -0.2540  0.1332
  163SOPE  H11R18289   6.027   5.455   9.426  0.6093  1.4184 -0.7322
  163SOPE  H11S18290   6.117   5.296   9.398  0.7621 -0.2990  0.0212
  163SOPE  C21218291   6.152   5.468   9.257  0.1528  0.9809  0.4336
  163SOPE  H12R18292   6.185   5.574   9.252  2.1416  0.6118  3.2524
  163SOPE  H12S18293   6.061   5.445   9.197  1.3282  0.4681 -1.2281
  163SOPE  C21318294   6.264   5.379   9.203  0.1435  0.2166  0.4336
  163SOPE  H13R18295   6.211   5.284   9.178  0.9185 -0.1822  0.2642
  163SOPE  H13S18296   6.347   5.359   9.274 -1.1361  1.1748  2.2853
  163SOPE  C21418297   6.322   5.423   9.066  0.2892 -0.4520  0.1169
  163SOPE  H14R18298   6.414   5.364   9.043  0.7783  0.5198 -0.5150
  163SOPE  H14S18299   6.348   5.531   9.069 -1.3258 -0.0584  2.0922
  163SOPE  C21518300   6.221   5.396   8.951  0.5907  0.2599 -0.7079
  163SOPE  H15R18301   6.124   5.448   8.966  1.3079  1.4281  0.0176
  163SOPE  H15S18302   6.212   5.286   8.939 -0.1791  0.5072 -2.8154
  163SOPE  C21618303   6.279   5.446   8.813  0.2660  1.1367 -0.1896
  163SOPE  H16R18304   6.293   5.555   8.796  0.7637  1.3412  1.3451
  163SOPE  H16S18305   6.209   5.408   8.736 -0.2388 -1.7931  1.5637
  163SOPE  C21718306   6.412   5.381   8.770 -0.7442  0.1348  0.2078
  163SOPE  H17R18307   6.405   5.278   8.811  0.6251  0.6148  1.7193
  163SOPE  H17S18308   6.493   5.434   8.824  1.6479 -1.9213 -1.1535
  163SOPE  C21818309   6.442   5.361   8.625 -0.5479  0.2544  0.2435
  163SOPE  H18R18310   6.536   5.302   8.629 -0.3157  0.6286  0.3182
  163SOPE  H18S18311   6.452   5.464   8.584  0.3653  1.2871  2.8448
  163SOPE  H18T18312   6.358   5.302   8.582 -2.7797  0.9369  3.2832
  163SOPE   C3318313   6.657   5.266   9.846 -0.3996 -0.3615  0.1072
  163SOPE   H3X18314   6.653   5.157   9.866  0.1982 -0.7741 -1.7724
  163SOPE   H3Y18315   6.763   5.288   9.823 -0.8739  3.4238  0.9687
  163SOPE   C3418316   6.583   5.285   9.707 -0.2885  0.2089  0.4553
  163SOPE   H4X18317   6.595   5.394   9.685 -1.0092  0.3752  0.8607
  163SOPE   H4Y18318   6.475   5.261   9.718 -0.6592  1.6248  0.1372
  163SOPE   C3518319   6.646   5.194   9.596  1.2127  0.3101 -0.4196
  163SOPE   H5X18320   6.632   5.085   9.608 -0.6506  0.5047 -0.6401
  163SOPE   H5Y18321   6.756   5.210   9.592  1.1436  0.8663 -0.2431
  163SOPE   C3618322   6.566   5.226   9.466 -0.5497  0.1322  0.9000
  163SOPE   H6X18323   6.583   5.329   9.428 -0.3139 -0.3638 -0.4155
  163SOPE   H6Y18324   6.457   5.225   9.489 -0.9289  2.8430 -0.3724
  163SOPE   C3718325   6.606   5.129   9.347 -0.9106 -0.1239  0.2185
  163SOPE   H7X18326   6.576   5.031   9.391 -1.0591 -0.0379  0.3074
  163SOPE   H7Y18327   6.716   5.125   9.330 -0.3910 -1.0085  3.0819
  163SOPE   C3818328   6.530   5.136   9.218 -0.3786  0.3616  0.7350
  163SOPE   H8X18329   6.525   5.245   9.195 -0.5583 -0.3417 -3.1941
  163SOPE   H8Y18330   6.428   5.098   9.240 -0.1481 -0.2633  0.7550
  163SOPE   C3918331   6.586   5.052   9.110 -0.5564  0.6622 -0.1078
  163SOPE   H9X18332   6.634   4.959   9.148  0.8716  1.8406  1.0845
  163SOPE   H9Y18333   6.677   5.098   9.066  0.0629 -1.0486 -0.7322
  163SOPE  C31018334   6.489   5.038   8.996  0.3416 -0.1710  0.3554
  163SOPE  H10X18335   6.467   5.136   8.949 -0.4934 -0.8295 -0.6779
  163SOPE  H10Y18336   6.395   4.994   9.036 -1.7288  2.0522 -1.7683
  163SOPE  C31118337   6.536   4.949   8.876  0.4949 -0.0292 -0.0124
  163SOPE  H11X18338   6.546   4.848   8.922 -1.5039  0.6720  2.1451
  163SOPE  H11Y18339   6.633   4.983   8.834 -0.0211  1.0407 -0.3654
  163SOPE  C31218340   6.435   4.952   8.762 -0.1195 -0.3850  0.0379
  163SOPE  H12X18341   6.416   5.054   8.721 -2.8311 -0.6963  0.3283
  163SOPE  H12Y18342   6.338   4.935   8.813 -0.0789  1.0855  0.6704
  163SOPE  C31318343   6.458   4.851   8.648 -0.0033 -0.5099  0.0707
  163SOPE  H13X18344   6.361   4.858   8.594  1.2158  0.2864 -2.1350
  163SOPE  H13Y18345   6.475   4.749   8.688 -0.2072 -0.4916  0.2062
  163SOPE  C31418346   6.565   4.871   8.541 -0.1429  0.6876  0.7577
  163SOPE  H14X18347   6.667   4.897   8.576  0.2249  1.4792 -0.7781
  163SOPE  H14Y18348   6.542   4.964   8.484  2.7497  0.4832 -0.9797
  163SOPE  C31518349   6.566   4.752   8.435  0.7027 -0.6305  0.1507
  163SOPE  H15X18350   6.462   4.743   8.397  1.4914 -1.2849 -2.0440
  163SOPE  H15Y18351   6.600   4.664   8.495  1.6820  1.1570  2.3564
  163SOPE  C31618352   6.669   4.776   8.324 -0.8580 -0.9329  0.6062
  163SOPE  H16X18353   6.775   4.766   8.355  0.5925  1.1611 -3.0133
  163SOPE  H16Y18354   6.653   4.878   8.283 -2.0699 -1.6653 -0.8972
  163SOPE  C31718355   6.643   4.676   8.209 -0.2550 -0.2111  0.2202
  163SOPE  H17X18356   6.696   4.716   8.119  0.1263  1.0594  0.9775
  163SOPE  H17Y18357   6.535   4.672   8.184 -0.6270 -0.6141  1.7955
  163SOPE  C31818358   6.686   4.532   8.234  0.1819 -0.3669 -0.3772
  163SOPE  H18X18359   6.653   4.477   8.143 -0.5167 -1.1637  0.3333
  163SOPE  H18Y18360   6.644   4.490   8.328  2.9806 -0.0890  1.1009
  163SOPE  H18Z18361   6.796   4.524   8.241  0.2823  0.6861 -0.6189
  164SOPE     N18362   0.772   4.462  10.645 -0.0754 -0.1731  0.3971
  164SOPE   HN118363   0.852   4.397  10.657 -0.5723 -0.8250  0.2464
  164SOPE   HN218364   0.781   4.494  10.546 -0.3038 -0.3780  0.3108
  164SOPE   HN318365   0.790   4.545  10.704  0.4206  0.9751 -1.2777
  164SOPE   C1218366   0.642   4.389  10.648 -0.2607  0.5674  0.2967
  164SOPE  H12A18367   0.574   4.435  10.574  1.7718  0.8981 -1.4620
  164SOPE  H12B18368   0.605   4.389  10.753 -0.4759 -0.8838  0.2384
  164SOPE   C1118369   0.675   4.242  10.607 -0.0439 -0.0281  0.5757
  164SOPE  H11A18370   0.737   4.244  10.515  0.9731  0.8874  1.2601
  164SOPE  H11B18371   0.582   4.183  10.591  0.0325  0.0402 -0.1367
  164SOPE     P18372   0.778   4.025  10.697 -0.2333  0.0952 -0.5960
  164SOPE   O1318373   0.660   3.946  10.749 -0.0326 -0.7807 -0.4531
  164SOPE   O1418374   0.916   3.998  10.749 -0.1185  0.4453  0.0303
  164SOPE   O1218375   0.754   4.175  10.705 -0.3570  0.3755 -0.3120
  164SOPE   O1118376   0.787   4.010  10.547 -0.2354  0.5151  0.1029
  164SOPE    C118377   0.694   3.929  10.468  0.0036  0.2079 -0.4563
  164SOPE    HA18378   0.603   3.989  10.447 -0.6872 -0.4139  0.6634
  164SOPE    HB18379   0.659   3.841  10.527 -0.8897  0.8836  0.0442
  164SOPE    C218380   0.741   3.873  10.341  0.7396 -0.7395  0.2020
  164SOPE    HS18381   0.665   3.798  10.308 -3.6227  2.1577  2.7346
  164SOPE   O2118382   0.875   3.818  10.346  0.5748 -0.1107  0.2626
  164SOPE   C2118383   0.895   3.692  10.382 -0.0649  0.7369  0.2538
  164SOPE   O2218384   0.812   3.607  10.412 -0.5238 -0.2466 -0.1090
  164SOPE   C2218385   1.047   3.666  10.362 -0.5296  0.2017  0.1503
  164SOPE   H2R18386   1.071   3.585  10.434 -0.5149  0.6985  0.7142
  164SOPE   H2S18387   1.103   3.757  10.393  0.0942 -0.6304  1.5917
  164SOPE    C318388   0.739   3.977  10.220  0.2018 -0.7553  0.4059
  164SOPE    HX18389   0.799   4.066  10.250 -0.5257 -0.2022  0.2532
  164SOPE    HY18390   0.634   4.014  10.214  1.2589  2.2614 -2.0329
  164SOPE   O3118391   0.764   3.916  10.095 -0.6184 -0.2539  0.4664
  164SOPE   C3118392   0.883   3.939  10.038 -0.5308  0.6305  0.6824
  164SOPE   O3218393   0.972   3.998  10.097  0.0435  0.1116  0.3692
  164SOPE   C3218394   0.905   3.880   9.895 -0.8196 -0.0284 -0.5667
  164SOPE   H2X18395   0.817   3.815   9.873 -2.2430  1.6903 -0.1799
  164SOPE   H2Y18396   0.989   3.808   9.902 -1.6291 -1.0917 -1.4061
  164SOPE   C2318397   1.085   3.617  10.223 -0.4704  0.6668  0.3539
  164SOPE   H3R18398   1.193   3.592  10.217 -0.4257  1.0409 -0.4640
  164SOPE   H3S18399   1.054   3.692  10.148 -0.7083 -0.0205 -0.2498
  164SOPE   C2418400   1.021   3.480  10.189 -0.6725  0.0562 -0.1503
  164SOPE   H4R18401   1.035   3.412  10.276 -0.1658  2.1098  1.4595
  164SOPE   H4S18402   0.910   3.481  10.187 -0.7064  1.3578  0.8563
  164SOPE   C2518403   1.086   3.420  10.062 -0.1515  0.4481 -0.7699
  164SOPE   H5R18404   1.072   3.500   9.986  1.4750 -0.2482 -1.8653
  164SOPE   H5S18405   1.189   3.379  10.074 -0.3525 -0.0151 -0.6043
  164SOPE   C2618406   1.008   3.290  10.028 -0.7238  0.4164 -0.7013
  164SOPE   H6R18407   1.031   3.230  10.119  3.2865  4.2402  1.1559
  164SOPE   H6S18408   0.898   3.303  10.014 -0.9770 -2.0506 -1.5379
  164SOPE   C2718409   1.060   3.212   9.907  0.0305  0.6091 -0.0860
  164SOPE   H7R18410   1.164   3.184   9.936 -0.7340 -0.6624  1.5751
  164SOPE   H7S18411   1.014   3.112   9.896  0.7867  0.2629 -0.1408
  164SOPE   C2818412   1.054   3.291   9.773 -0.1604 -0.7089 -0.3738
  164SOPE   H8R18413   0.949   3.313   9.743 -0.3544 -2.0559 -0.7558
  164SOPE   H8S18414   1.097   3.391   9.794  0.0648 -1.0660  0.9496
  164SOPE   C2918415   1.149   3.235   9.670 -0.6560  0.0454 -0.1586
  164SOPE   H9118416   1.253   3.238   9.705 -0.5298  2.0402 -0.5332
  164SOPE  C21018417   1.124   3.199   9.540  0.4802 -0.4459  0.1702
  164SOPE  H10118418   1.207   3.175   9.473  0.7475  1.4506 -0.2488
  164SOPE  C21118419   0.990   3.222   9.471  0.4529  0.1784 -0.5500
  164SOPE  H11R18420   0.924   3.290   9.530  0.5558 -1.1163  1.1335
  164SOPE  H11S18421   0.943   3.123   9.454 -0.5566  0.4636  0.4519
  164SOPE  C21218422   0.981   3.294   9.334 -0.0106 -0.4068 -0.1180
  164SOPE  H12R18423   1.047   3.382   9.351  2.2144 -1.4088 -2.8053
  164SOPE  H12S18424   0.880   3.330   9.305 -0.1543 -0.3129  0.4981
  164SOPE  C21318425   1.031   3.214   9.219 -0.4977 -0.5318 -0.4737
  164SOPE  H13R18426   1.011   3.105   9.223 -0.6606 -0.4910 -0.1489
  164SOPE  H13S18427   1.142   3.211   9.220 -0.5093 -1.4863 -0.9038
  164SOPE  C21418428   0.983   3.253   9.077  0.0657 -0.5491  1.2468
  164SOPE  H14R18429   0.873   3.246   9.091  0.2849 -2.3280  2.3989
  164SOPE  H14S18430   1.017   3.185   8.995  1.5598  0.7120  0.7627
  164SOPE  C21518431   1.029   3.392   9.041 -0.0014  0.4398 -0.3409
  164SOPE  H15R18432   1.139   3.403   9.043  0.0314  0.0781  0.6634
  164SOPE  H15S18433   1.002   3.463   9.122  3.9601  1.5087  0.2373
  164SOPE  C21618434   0.968   3.421   8.904 -0.2696 -0.5670  0.2815
  164SOPE  H16R18435   0.857   3.411   8.900 -0.1195 -2.4689 -0.1165
  164SOPE  H16S18436   0.999   3.344   8.831 -0.5359 -0.3239 -0.0896
  164SOPE  C21718437   0.992   3.570   8.859 -0.0301  0.0904  0.2697
  164SOPE  H17R18438   0.987   3.638   8.946 -0.3860  1.2890 -0.6682
  164SOPE  H17S18439   0.905   3.604   8.799  2.4922  1.8782 -2.6448
  164SOPE  C21818440   1.126   3.582   8.781 -0.2022 -0.3121  0.8321
  164SOPE  H18R18441   1.204   3.564   8.858 -0.6211  0.9870  1.6045
  164SOPE  H18S18442   1.137   3.685   8.738 -3.2275  0.1383  0.9162
  164SOPE  H18T18443   1.136   3.518   8.691 -1.4746  1.0662 -0.3503
  164SOPE   C3318444   0.941   3.985   9.787 -0.6143  0.0740 -0.2892
  164SOPE   H3X18445   1.025   4.048   9.822 -0.5527 -1.2179  2.0530
  164SOPE   H3Y18446   0.853   4.053   9.784  0.1770  1.1556  0.2965
  164SOPE   C3418447   0.959   3.923   9.649 -0.6586  0.2598 -0.0125
  164SOPE   H4X18448   0.877   3.851   9.627  0.1640 -1.7978  2.9847
  164SOPE   H4Y18449   1.047   3.855   9.645  1.1832  2.5534 -0.2897
  164SOPE   C3518450   0.981   4.031   9.534  0.2830 -0.2688 -0.2449
  164SOPE   H5X18451   1.058   4.102   9.570 -1.2567  1.3854 -0.1133
  164SOPE   H5Y18452   0.889   4.091   9.517 -1.4219 -2.9565 -1.2989
  164SOPE   C3618453   1.008   3.979   9.399  0.0329 -0.1548 -0.0098
  164SOPE   H6X18454   0.921   3.919   9.365 -1.1706  2.2066 -1.3106
  164SOPE   H6Y18455   1.092   3.906   9.398  0.6635  0.5646 -1.3411
  164SOPE   C3718456   1.035   4.084   9.290 -0.4794 -0.0955 -0.5420
  164SOPE   H7X18457   1.117   4.155   9.317 -1.6451  2.5214 -3.2962
  164SOPE   H7Y18458   0.950   4.153   9.272  0.5665  1.3156 -0.3219
  164SOPE   C3818459   1.076   4.016   9.165  1.0737 -0.1135  0.6932
  164SOPE   H8X18460   1.027   3.917   9.154 -0.3669  0.5103  1.3042
  164SOPE   H8Y18461   1.183   3.987   9.171  1.4315  0.4297 -1.8116
  164SOPE   C3918462   1.054   4.107   9.047  0.1570  0.8610 -0.0297
  164SOPE   H9X18463   1.128   4.189   9.056  1.3460 -0.1625 -0.0864
  164SOPE   H9Y18464   0.955   4.156   9.052 -0.7175 -0.7009 -1.1977
  164SOPE  C31018465   1.099   4.040   8.912 -0.2548  0.3581  0.1766
  164SOPE  H10X18466   1.055   3.938   8.905  1.3414 -0.3418 -0.0681
  164SOPE  H10Y18467   1.209   4.036   8.901 -0.1077 -2.3552  1.6876
  164SOPE  C31118468   1.042   4.130   8.798 -1.1467 -0.3450 -0.2895
  164SOPE  H11X18469   1.058   4.235   8.831 -3.0723 -1.0120  3.2471
  164SOPE  H11Y18470   0.933   4.112   8.785 -1.7996  2.4216  0.5925
  164SOPE  C31218471   1.118   4.107   8.664  0.3369  0.2933  0.2041
  164SOPE  H12X18472   1.068   4.127   8.567  1.7218 -1.1577 -0.8588
  164SOPE  H12Y18473   1.139   3.998   8.668  1.1022  0.4055 -0.5257
  164SOPE  C31318474   1.244   4.196   8.652 -0.4745  0.0983 -0.2492
  164SOPE  H13X18475   1.315   4.157   8.728  0.8977 -0.2930 -1.6802
  164SOPE  H13Y18476   1.219   4.303   8.668 -1.3922  0.3997 -3.0816
  164SOPE  C31418477   1.299   4.193   8.511 -0.4367 -0.2434 -0.1264
  164SOPE  H14X18478   1.220   4.216   8.436  1.4107 -1.4268 -2.5489
  164SOPE  H14Y18479   1.311   4.084   8.495 -0.3880 -0.0459 -1.5621
  164SOPE  C31518480   1.434   4.265   8.484 -1.0679  0.1952 -0.0841
  164SOPE  H15X18481   1.513   4.231   8.555 -0.2230  1.3025 -0.4673
  164SOPE  H15Y18482   1.431   4.375   8.499  2.0692 -0.0144  4.0377
  164SOPE  C31618483   1.490   4.223   8.349 -0.0502  0.6271  0.6601
  164SOPE  H16X18484   1.423   4.266   8.271  1.6468  2.3653  0.0903
  164SOPE  H16Y18485   1.486   4.113   8.342  0.0613  0.6290  0.5652
  164SOPE  C31718486   1.633   4.282   8.325  0.0308 -0.1285  0.2021
  164SOPE  H17X18487   1.691   4.235   8.408 -1.4587 -0.4370  1.1119
  164SOPE  H17Y18488   1.641   4.392   8.339  0.3275 -0.1372  0.1164
  164SOPE  C31818489   1.702   4.237   8.198 -0.4563 -0.1537  0.0529
  164SOPE  H18X18490   1.795   4.295   8.185 -0.9072  0.8699  1.2115
  164SOPE  H18Y18491   1.639   4.253   8.108 -0.4789 -1.0045 -0.0973
  164SOPE  H18Z18492   1.725   4.128   8.198 -1.5751 -0.4329 -1.5944
  165SOPE     N18493   6.443   2.832  10.649  0.3071  0.1623  0.0174
  165SOPE   HN118494   6.378   2.896  10.600  1.1567 -0.1408 -1.5627
  165SOPE   HN218495   6.535   2.838  10.601  0.4310  2.0993  0.4013
  165SOPE   HN318496   6.406   2.735  10.646  2.1308 -0.5744  0.0946
  165SOPE   C1218497   6.454   2.881  10.789  0.4863  0.1115  0.8520
  165SOPE  H12A18498   6.536   2.818  10.829  1.8223  0.3576 -1.3442
  165SOPE  H12B18499   6.355   2.880  10.840 -0.6885  2.5171 -1.1220
  165SOPE   C1118500   6.513   3.028  10.788  0.4572 -0.0907 -0.2981
  165SOPE  H11A18501   6.622   3.025  10.767  0.5131 -1.2842  0.0641
  165SOPE  H11B18502   6.505   3.055  10.896  0.5864  2.1458 -0.7992
  165SOPE     P18503   6.392   3.263  10.735  0.1781  0.2668 -0.2536
  165SOPE   O1318504   6.468   3.322  10.843  0.0487  0.4631  0.0685
  165SOPE   O1418505   6.246   3.268  10.742 -0.1277  0.1884  0.6680
  165SOPE   O1218506   6.436   3.111  10.707 -0.1630 -0.0329 -0.2348
  165SOPE   O1118507   6.439   3.343  10.599 -0.0668  0.2663 -0.1460
  165SOPE    C118508   6.435   3.284  10.473  0.5083  0.3656 -0.0130
  165SOPE    HA18509   6.335   3.291  10.425 -0.1624 -2.0492  0.9130
  165SOPE    HB18510   6.462   3.177  10.479  0.6233  0.4548  1.5681
  165SOPE    C218511   6.549   3.339  10.383  0.4144 -0.4420  0.4296
  165SOPE    HS18512   6.646   3.336  10.437 -0.0638  0.9646  1.4319
  165SOPE   O2118513   6.514   3.477  10.343 -0.0439  0.2215 -0.2831
  165SOPE   C2118514   6.617   3.564  10.335  0.2154  0.4235  0.2139
  165SOPE   O2218515   6.728   3.544  10.377  0.5921 -0.4728 -0.2100
  165SOPE   C2218516   6.567   3.687  10.257 -1.0101  0.2626 -0.2189
  165SOPE   H2R18517   6.482   3.728  10.316 -0.0269  1.4075  0.4366
  165SOPE   H2S18518   6.535   3.646  10.158 -1.2156  1.6781 -0.7610
  165SOPE    C318519   6.566   3.242  10.257 -0.8927 -0.4589 -0.2913
  165SOPE    HX18520   6.468   3.241  10.206 -0.0459  1.2112 -2.1010
  165SOPE    HY18521   6.584   3.134  10.279 -5.8031 -1.4319 -0.1016
  165SOPE   O3118522   6.662   3.301  10.167  0.0732 -0.5519  0.0481
  165SOPE   C3118523   6.787   3.260  10.180  0.3217 -0.0704  0.0524
  165SOPE   O3218524   6.826   3.196  10.276  0.1455 -0.9187 -0.4634
  165SOPE   C3218525   6.877   3.316  10.074  0.1229 -0.1811 -0.2944
  165SOPE   H2X18526   6.924   3.404  10.122 -2.6325  0.2244  1.9477
  165SOPE   H2Y18527   6.814   3.341   9.986 -1.9999  0.1417  1.2418
  165SOPE   C2318528   6.689   3.780  10.213  0.0708  0.2537 -0.1899
  165SOPE   H3R18529   6.743   3.802  10.307  1.3951  1.0066 -1.0986
  165SOPE   H3S18530   6.639   3.870  10.171  0.5485  0.5228 -0.1805
  165SOPE   C2418531   6.770   3.717  10.106 -0.3045  0.0291  0.3884
  165SOPE   H4R18532   6.865   3.773  10.099  0.2736 -1.0098 -0.4223
  165SOPE   H4S18533   6.806   3.614  10.124  0.2128  0.3559  1.2870
  165SOPE   C2518534   6.713   3.731   9.967 -0.7754  0.1454  0.3148
  165SOPE   H5R18535   6.617   3.675   9.963 -0.0240 -1.1553 -0.2384
  165SOPE   H5S18536   6.698   3.837   9.939  0.9002  0.1053 -0.8693
  165SOPE   C2618537   6.792   3.675   9.852  0.0512 -0.5799 -0.3342
  165SOPE   H6R18538   6.888   3.731   9.854  0.3397 -1.0861  0.7335
  165SOPE   H6S18539   6.811   3.565   9.850  2.0955 -0.2672 -0.5745
  165SOPE   C2718540   6.734   3.714   9.721 -0.4597 -0.2199  0.2001
  165SOPE   H7R18541   6.623   3.703   9.723 -0.5193 -0.0463 -0.9903
  165SOPE   H7S18542   6.748   3.823   9.705  0.9967  0.0013  2.5101
  165SOPE   C2818543   6.783   3.638   9.593  0.0422 -0.1380  0.0651
  165SOPE   H8R18544   6.813   3.538   9.630  0.5159  0.6885  2.0137
  165SOPE   H8S18545   6.690   3.620   9.534 -0.7128  1.2186  0.7806
  165SOPE   C2918546   6.886   3.712   9.506 -0.8142  0.0985 -0.0557
  165SOPE   H9118547   6.979   3.738   9.559  0.0561  0.4142 -1.6816
  165SOPE  C21018548   6.870   3.756   9.380 -0.7100  0.9684 -0.1713
  165SOPE  H10118549   6.954   3.805   9.329 -0.8390 -0.1513 -1.5189
  165SOPE  C21118550   6.748   3.742   9.286 -0.3923 -1.0041 -0.4066
  165SOPE  H11R18551   6.726   3.835   9.231  2.0309 -1.4756 -2.3421
  165SOPE  H11S18552   6.658   3.724   9.348 -0.0182 -1.4945  0.0095
  165SOPE  C21218553   6.747   3.628   9.185  0.5667  0.2042 -0.4702
  165SOPE  H12R18554   6.647   3.652   9.144  0.6015 -0.5876 -1.0306
  165SOPE  H12S18555   6.745   3.526   9.231 -1.2124  0.7108  0.6996
  165SOPE  C21318556   6.853   3.644   9.076 -0.1690  0.2486  0.4896
  165SOPE  H13R18557   6.948   3.625   9.132  0.1720  3.7165  1.3393
  165SOPE  H13S18558   6.862   3.750   9.043 -0.7020  0.6015  1.4378
  165SOPE  C21418559   6.824   3.572   8.955 -0.3935 -0.3081  0.4863
  165SOPE  H14R18560   6.728   3.610   8.913  0.4330  0.2888 -0.9691
  165SOPE  H14S18561   6.819   3.466   8.986 -1.7805 -0.2272  0.6134
  165SOPE  C21518562   6.942   3.579   8.853 -0.1899 -0.3688  0.3601
  165SOPE  H15R18563   6.943   3.483   8.798  0.5569 -0.3830  0.3873
  165SOPE  H15S18564   7.030   3.592   8.921 -0.6370  3.5430  0.4588
  165SOPE  C21618565   6.939   3.688   8.752  0.2944 -0.2706  0.2846
  165SOPE  H16R18566   6.922   3.788   8.798  1.5184 -0.9436  2.3135
  165SOPE  H16S18567   6.856   3.664   8.682 -0.7951  0.2437  1.3583
  165SOPE  C21718568   7.074   3.701   8.679  0.2573 -0.2415 -0.0509
  165SOPE  H17R18569   7.155   3.712   8.754 -0.8381 -0.5580  1.2305
  165SOPE  H17S18570   7.083   3.798   8.624 -0.5072 -0.3586 -0.3962
  165SOPE  C21818571   7.099   3.585   8.585 -0.8531 -0.3367  0.4442
  165SOPE  H18R18572   7.043   3.596   8.490  0.4373  2.2684 -0.0933
  165SOPE  H18S18573   7.063   3.486   8.620 -1.9410 -1.0736 -2.4299
  165SOPE  H18T18574   7.206   3.583   8.555 -0.9995 -3.0848 -0.1163
  165SOPE   C3318575   7.005   3.234  10.047 -0.3969 -0.4395 -0.2750
  165SOPE   H3X18576   7.056   3.198  10.139 -0.8540 -1.0316 -0.2537
  165SOPE   H3Y18577   7.064   3.303   9.982 -1.2666  0.8388  0.2449
  165SOPE   C3418578   6.978   3.103   9.973  0.4431  0.0856 -0.2964
  165SOPE   H4X18579   6.912   3.038  10.034 -0.0559 -0.2974 -1.2284
  165SOPE   H4Y18580   7.072   3.048   9.951 -0.2863  0.0071 -3.7861
  165SOPE   C3518581   6.914   3.135   9.835 -0.1575  0.0564  0.4804
  165SOPE   H5X18582   6.808   3.157   9.862  0.2171  1.5445  0.8164
  165SOPE   H5Y18583   6.914   3.040   9.777  0.2901  0.2776  0.1100
  165SOPE   C3618584   6.974   3.242   9.751  0.5306 -0.1337  0.1373
  165SOPE   H6X18585   7.080   3.218   9.730 -0.2392 -1.0155 -3.3152
  165SOPE   H6Y18586   6.966   3.343   9.798 -2.4609 -0.6607  0.9755
  165SOPE   C3718587   6.906   3.258   9.611  0.4924 -0.5907  0.6250
  165SOPE   H7X18588   6.814   3.314   9.637  0.7760  0.1954 -0.0189
  165SOPE   H7Y18589   6.873   3.164   9.561 -1.7242 -0.0136  0.8987
  165SOPE   C3818590   6.989   3.343   9.509  0.0154 -0.0002  0.0888
  165SOPE   H8X18591   7.078   3.278   9.491  0.5640  0.6005  0.5658
  165SOPE   H8Y18592   7.007   3.445   9.549 -1.4023  0.7909 -1.1882
  165SOPE   C3918593   6.917   3.350   9.368  0.3092 -0.5307  0.7323
  165SOPE   H9X18594   6.986   3.413   9.309  1.2675 -0.6943  1.6349
  165SOPE   H9Y18595   6.819   3.401   9.379 -1.1520 -2.5708 -1.7663
  165SOPE  C31018596   6.902   3.214   9.286  0.4818 -0.6785 -0.5141
  165SOPE  H10X18597   6.817   3.155   9.326  1.1512 -0.8777  0.6618
  165SOPE  H10Y18598   6.999   3.164   9.303  0.3794 -0.3395  1.2670
  165SOPE  C31118599   6.888   3.235   9.136 -0.5508  0.1586  0.5990
  165SOPE  H11X18600   6.956   3.313   9.096  0.3146 -1.2228 -0.7535
  165SOPE  H11Y18601   6.783   3.270   9.123 -0.2302  0.4243 -1.9302
  165SOPE  C31218602   6.919   3.113   9.047 -0.1934  0.6135 -0.0402
  165SOPE  H12X18603   6.840   3.037   9.068  1.5357 -1.2208  0.1757
  165SOPE  H12Y18604   7.023   3.080   9.067  0.0395  2.5504  2.5208
  165SOPE  C31318605   6.908   3.168   8.906  0.4513 -0.2760  0.8981
  165SOPE  H13X18606   6.977   3.253   8.889 -0.6318  0.2638 -1.0593
  165SOPE  H13Y18607   6.807   3.212   8.890  0.9233 -0.0882 -2.0714
  165SOPE  C31418608   6.918   3.055   8.798  0.1170  0.7217 -0.1268
  165SOPE  H14X18609   6.839   2.985   8.831  2.6178 -1.2236  2.1442
  165SOPE  H14Y18610   7.019   3.009   8.808 -0.6539 -1.1455 -0.6367
  165SOPE  C31518611   6.890   3.097   8.655  0.6104  0.2404 -0.3140
  165SOPE  H15X18612   6.970   3.155   8.604  0.5570  1.1761  0.6286
  165SOPE  H15Y18613   6.797   3.157   8.655  0.2084 -0.3712 -0.6040
  165SOPE  C31618614   6.855   2.974   8.568 -0.4286  0.0414  0.4382
  165SOPE  H16X18615   6.799   3.007   8.478 -1.8519 -1.5262  0.6950
  165SOPE  H16Y18616   6.797   2.904   8.632 -0.9584 -2.0337 -2.1234
  165SOPE  C31718617   6.980   2.902   8.504 -0.0952 -0.1049  0.6264
  165SOPE  H17X18618   6.941   2.806   8.465 -0.6420  0.3298  0.0952
  165SOPE  H17Y18619   7.060   2.869   8.574  2.3849 -0.3257 -2.0981
  165SOPE  C31818620   7.047   2.987   8.396  0.6187  0.1952 -1.2467
  165SOPE  H18X18621   7.136   2.937   8.351  0.9013 -0.1332 -0.3450
  165SOPE  H18Y18622   7.078   3.084   8.440  0.3906 -0.5815  0.6972
  165SOPE  H18Z18623   6.968   3.010   8.321 -0.7041  0.9605  0.3326
  166SOPE     N18624   6.235   1.529  10.625 -0.5724 -0.0501  0.2486
  166SOPE   HN118625   6.175   1.514  10.709  0.9769 -1.0714  1.2047
  166SOPE   HN218626   6.301   1.450  10.616  0.3803  0.9124 -2.3571
  166SOPE   HN318627   6.290   1.614  10.647 -1.0858  0.4336 -0.2625
  166SOPE   C1218628   6.146   1.558  10.508 -0.1491  0.0681 -0.1361
  166SOPE  H12A18629   6.152   1.474  10.435 -1.0990  0.7813 -1.0658
  166SOPE  H12B18630   6.182   1.657  10.473  2.4024 -0.3908  0.9320
  166SOPE   C1118631   5.998   1.580  10.554  0.4344  0.0700  0.0496
  166SOPE  H11A18632   5.943   1.625  10.468  0.0009  0.5681  0.5846
  166SOPE  H11B18633   6.005   1.660  10.630 -2.2443 -0.0279  0.5207
  166SOPE     P18634   5.815   1.464  10.685 -0.1035  0.2815 -0.5262
  166SOPE   O1318635   5.830   1.524  10.820  0.6444 -0.6501 -0.2173
  166SOPE   O1418636   5.754   1.330  10.695  0.6439  0.0551  0.1186
  166SOPE   O1218637   5.952   1.452  10.601  0.1910  0.4614 -0.3199
  166SOPE   O1118638   5.730   1.561  10.597 -0.2660  0.0532 -0.1916
  166SOPE    C118639   5.627   1.524  10.507 -0.6661 -0.1421 -0.0183
  166SOPE    HA18640   5.533   1.527  10.566 -0.2482 -0.9830  0.7123
  166SOPE    HB18641   5.639   1.418  10.475 -0.7875 -0.2951  0.4370
  166SOPE    C218642   5.628   1.601  10.367 -0.3855  0.5020  0.6107
  166SOPE    HS18643   5.556   1.547  10.302  2.2108 -1.0732 -1.1617
  166SOPE   O2118644   5.754   1.587  10.303 -0.0652  0.0239  0.2027
  166SOPE   C2118645   5.774   1.474  10.247  0.0456 -0.1147 -0.2961
  166SOPE   O2218646   5.693   1.382  10.231  0.9504 -0.2510 -0.1084
  166SOPE   C2218647   5.918   1.471  10.192  0.4873  0.1155 -0.3507
  166SOPE   H2R18648   5.983   1.503  10.276  1.1254  0.9049 -1.1285
  166SOPE   H2S18649   5.929   1.551  10.116  1.3270  0.2880 -0.0635
  166SOPE    C318650   5.608   1.751  10.396  0.2674 -0.1875  0.1242
  166SOPE    HX18651   5.706   1.794  10.428  0.7219 -1.7915  1.0623
  166SOPE    HY18652   5.535   1.753  10.480  0.1942  0.0997  0.0512
  166SOPE   O3118653   5.551   1.814  10.277  0.2009 -0.2682 -0.4291
  166SOPE   C3118654   5.553   1.950  10.297 -0.4174  0.2630 -0.0596
  166SOPE   O3218655   5.607   2.010  10.389 -0.0604  0.2800  0.7247
  166SOPE   C3218656   5.486   2.018  10.178  0.0422 -0.6315  0.0243
  166SOPE   H2X18657   5.565   2.033  10.101 -1.6205 -3.3784 -2.4421
  166SOPE   H2Y18658   5.461   2.122  10.209  1.8968 -0.6891  1.9457
  166SOPE   C2318659   5.955   1.329  10.142 -0.2279  0.0999 -0.3984
  166SOPE   H3R18660   5.929   1.312  10.036 -0.1382  0.4010 -0.4704
  166SOPE   H3S18661   5.901   1.255  10.205 -1.1463 -0.3707 -1.7020
  166SOPE   C2418662   6.108   1.287  10.153 -0.1615  0.4682 -0.1656
  166SOPE   H4R18663   6.183   1.355  10.106 -0.9270  1.5567  0.1433
  166SOPE   H4S18664   6.139   1.282  10.260 -1.8237 -1.3124  0.2986
  166SOPE   C2518665   6.145   1.143  10.103  0.6240 -0.3180  0.0322
  166SOPE   H5R18666   6.244   1.105  10.136  1.5737  0.1942 -2.0771
  166SOPE   H5S18667   6.070   1.077  10.151 -0.0217  0.0533 -0.4539
  166SOPE   C2618668   6.120   1.123   9.947  0.0939 -1.4346 -0.0321
  166SOPE   H6R18669   6.145   1.017   9.926 -2.0166 -2.0578  0.3834
  166SOPE   H6S18670   6.011   1.129   9.929  0.1656 -3.3096 -1.3885
  166SOPE   C2718671   6.193   1.229   9.867  0.1244 -0.9195 -0.3362
  166SOPE   H7R18672   6.141   1.327   9.882 -0.2852 -0.6419 -2.9633
  166SOPE   H7S18673   6.292   1.230   9.916  0.6685  0.1503 -1.4075
  166SOPE   C2818674   6.203   1.199   9.715  0.4564 -0.1184  0.3274
  166SOPE   H8R18675   6.264   1.280   9.668 -0.4349  0.5056  0.2170
  166SOPE   H8S18676   6.257   1.103   9.705 -1.6358 -1.2036 -1.3211
  166SOPE   C2918677   6.060   1.215   9.658 -0.5157 -0.2926 -0.1843
  166SOPE   H9118678   5.987   1.138   9.686 -0.3470 -0.5102 -0.3384
  166SOPE  C21018679   6.025   1.295   9.555 -0.2993  0.3426  0.2878
  166SOPE  H10118680   5.921   1.292   9.518 -0.3047 -0.8728  0.3568
  166SOPE  C21118681   6.114   1.400   9.488  0.2576  0.1573 -0.1770
  166SOPE  H11R18682   6.212   1.354   9.463 -0.0248  0.0884 -1.2053
  166SOPE  H11S18683   6.127   1.481   9.562  0.0600  0.5572 -0.5775
  166SOPE  C21218684   6.060   1.454   9.361  0.6542 -0.1995 -0.2819
  166SOPE  H12R18685   6.090   1.560   9.350 -2.3587  0.6662 -1.0774
  166SOPE  H12S18686   5.949   1.452   9.369  0.7771 -0.7355  1.9042
  166SOPE  C21318687   6.091   1.371   9.238 -0.2322  0.3445 -0.5003
  166SOPE  H13R18688   6.040   1.273   9.245  1.4290 -0.6032 -1.1270
  166SOPE  H13S18689   6.198   1.343   9.225  0.1637  0.4792  1.9645
  166SOPE  C21418690   6.037   1.419   9.105  0.2932  0.4223  0.5560
  166SOPE  H14R18691   6.085   1.509   9.059  0.3278 -0.7291 -1.7631
  166SOPE  H14S18692   5.931   1.445   9.126  0.0433 -0.0497 -0.1060
  166SOPE  C21518693   6.049   1.302   9.001  0.3335 -0.2073 -0.0495
  166SOPE  H15R18694   6.013   1.208   9.049  2.1615 -1.0918 -0.3065
  166SOPE  H15S18695   6.155   1.284   8.972  0.2024 -1.2653  0.1000
  166SOPE  C21618696   5.958   1.323   8.869  0.1917 -0.1961 -1.1335
  166SOPE  H16R18697   5.988   1.240   8.802  0.9449  0.3007 -1.4271
  166SOPE  H16S18698   5.975   1.423   8.823  0.7460  0.5662  0.6240
  166SOPE  C21718699   5.803   1.313   8.901  0.1041 -0.1909  0.3930
  166SOPE  H17R18700   5.761   1.383   8.976 -0.5106 -1.2708  1.0847
  166SOPE  H17S18701   5.786   1.216   8.953  1.1931 -0.3393  0.4910
  166SOPE  C21818702   5.724   1.333   8.775  0.9556  1.1520 -0.5456
  166SOPE  H18R18703   5.720   1.244   8.708  0.3623  0.1709  0.7409
  166SOPE  H18S18704   5.771   1.404   8.704  1.0957 -0.2934 -1.9472
  166SOPE  H18T18705   5.620   1.368   8.794  0.1869 -0.3936 -1.6281
  166SOPE   C3318706   5.363   1.954  10.117  0.5614  0.5673  0.6319
  166SOPE   H3X18707   5.283   2.031  10.110  1.6140  1.6321 -0.0670
  166SOPE   H3Y18708   5.326   1.871  10.181 -1.2256  0.7965 -0.0423
  166SOPE   C3418709   5.394   1.908   9.974  0.0570 -0.4412  0.1136
  166SOPE   H4X18710   5.485   1.844   9.984  0.9463  0.7478 -0.0574
  166SOPE   H4Y18711   5.408   2.000   9.913  0.8763 -0.7930 -0.2399
  166SOPE   C3518712   5.283   1.822   9.923 -0.1974 -0.0433  0.1956
  166SOPE   H5X18713   5.192   1.884   9.922  0.3072  0.7022 -0.1743
  166SOPE   H5Y18714   5.269   1.743  10.000  0.3687 -0.2044  0.1371
  166SOPE   C3618715   5.313   1.761   9.780 -0.8290  0.6420 -0.1047
  166SOPE   H6X18716   5.228   1.695   9.753  0.0430 -0.7867  0.5252
  166SOPE   H6Y18717   5.397   1.699   9.817 -2.7348 -0.5785  2.4971
  166SOPE   C3718718   5.361   1.853   9.664 -0.1229  0.0242 -0.0886
  166SOPE   H7X18719   5.453   1.906   9.696 -0.7032  0.2198  1.3345
  166SOPE   H7Y18720   5.283   1.929   9.641 -1.7325 -1.7602 -0.8123
  166SOPE   C3818721   5.385   1.790   9.525  0.1561 -0.4363 -0.5021
  166SOPE   H8X18722   5.470   1.718   9.530 -0.6500 -1.3587  0.6094
  166SOPE   H8Y18723   5.432   1.863   9.455 -0.8844  1.7742  0.9849
  166SOPE   C3918724   5.274   1.704   9.470  0.5234 -0.3630  0.4356
  166SOPE   H9X18725   5.184   1.765   9.446  1.3417  0.5175 -0.4903
  166SOPE   H9Y18726   5.244   1.624   9.541  1.1853 -0.4989  0.5648
  166SOPE  C31018727   5.315   1.640   9.338 -0.4335 -0.1423  0.4808
  166SOPE  H10X18728   5.420   1.602   9.340 -0.3814  0.0255  1.3979
  166SOPE  H10Y18729   5.308   1.725   9.267 -1.9302 -0.6350 -0.0048
  166SOPE  C31118730   5.221   1.532   9.285 -0.3576  0.3136  0.2950
  166SOPE  H11X18731   5.210   1.457   9.366  2.0642 -0.4067  0.0115
  166SOPE  H11Y18732   5.251   1.470   9.198 -0.7723  0.4803  0.0276
  166SOPE  C31218733   5.073   1.588   9.257  0.0655 -0.4216  0.2891
  166SOPE  H12X18734   5.080   1.667   9.179  0.0205 -0.7143 -0.0192
  166SOPE  H12Y18735   5.040   1.627   9.355 -0.5740  0.0945 -0.1241
  166SOPE  C31318736   4.979   1.482   9.201  0.2523 -0.0311  0.8598
  166SOPE  H13X18737   4.872   1.514   9.200 -0.9466 -3.4592 -1.9282
  166SOPE  H13Y18738   4.978   1.398   9.273 -2.3807 -1.6242 -0.8482
  166SOPE  C31418739   5.009   1.440   9.058  0.7059  0.2413  0.3514
  166SOPE  H14X18740   5.114   1.402   9.052  0.7101  0.3691 -0.4090
  166SOPE  H14Y18741   5.006   1.528   8.990 -0.0987 -0.1934 -0.1840
  166SOPE  C31518742   4.917   1.326   9.001  0.6985 -0.1859  0.7298
  166SOPE  H15X18743   4.965   1.298   8.905  1.1717 -1.8988  1.4396
  166SOPE  H15Y18744   4.815   1.368   8.987  1.8399  2.3891 -0.4829
  166SOPE  C31618745   4.933   1.195   9.090  0.0045  0.6698  0.1934
  166SOPE  H16X18746   4.896   1.224   9.191 -0.2748  1.4952 -0.1388
  166SOPE  H16Y18747   5.042   1.172   9.086  0.5812  3.0229  0.4509
  166SOPE  C31718748   4.841   1.082   9.040  0.3869 -0.9106 -0.6970
  166SOPE  H17X18749   4.740   1.128   9.045 -0.0303 -1.8512 -0.3978
  166SOPE  H17Y18750   4.855   0.994   9.105  1.5346  1.2179  2.1460
  166SOPE  C31818751   4.859   1.044   8.896 -0.3770  0.3054 -0.3274
  166SOPE  H18X18752   4.827   0.939   8.877 -0.6222  0.5704 -1.4376
  166SOPE  H18Y18753   4.968   1.040   8.873  0.1298  0.8752  1.7591
  166SOPE  H18Z18754   4.805   1.111   8.826 -1.7931 -1.1630 -0.6883
  167SOPE     N18755   4.735   3.475   6.407 -0.2856  0.0365  0.5360
  167SOPE   HN118756   4.707   3.570   6.440 -0.8474  0.0086  0.1616
  167SOPE   HN218757   4.701   3.403   6.474  1.6910  0.7261  2.4073
  167SOPE   HN318758   4.838   3.468   6.395 -0.2242  1.8609 -0.3390
  167SOPE   C1218759   4.672   3.460   6.273  0.9315 -0.6015 -0.8966
  167SOPE  H12A18760   4.717   3.364   6.240  0.5320 -1.9296  2.0808
  167SOPE  H12B18761   4.702   3.550   6.215  1.3371  0.1047  0.3880
  167SOPE   C1118762   4.513   3.435   6.276 -0.8650 -0.5211 -0.2616
  167SOPE  H11A18763   4.479   3.435   6.170 -0.6031  0.7110 -0.3582
  167SOPE  H11B18764   4.469   3.529   6.316  1.3371  0.5267 -0.1958
  167SOPE     P18765   4.326   3.296   6.391 -0.1652  0.0281 -0.0100
  167SOPE   O1318766   4.322   3.173   6.470 -0.1972  0.6581  0.8283
  167SOPE   O1418767   4.236   3.302   6.277 -0.1427  0.2036  1.0891
  167SOPE   O1218768   4.473   3.317   6.350 -0.0307 -0.0070  0.1246
  167SOPE   O1118769   4.281   3.407   6.492  0.2789  0.8778  0.5048
  167SOPE    C118770   4.355   3.458   6.603 -0.2126 -0.2726  0.5154
  167SOPE    HA18771   4.380   3.566   6.592 -0.3085 -0.2097  0.9003
  167SOPE    HB18772   4.456   3.411   6.606 -0.2245 -0.3990 -0.7784
  167SOPE    C218773   4.271   3.440   6.733  0.7132 -0.0855 -0.2125
  167SOPE    HS18774   4.310   3.517   6.802  0.9688  1.5568 -2.0932
  167SOPE   O2118775   4.264   3.305   6.786 -0.0186  0.1821 -0.1181
  167SOPE   C2118776   4.380   3.240   6.811  0.5583  0.6470  0.0771
  167SOPE   O2218777   4.489   3.288   6.806 -0.7740 -0.0351  0.2387
  167SOPE   C2218778   4.356   3.098   6.849  0.5080 -0.5707 -0.3594
  167SOPE   H2R18779   4.338   3.052   6.750  0.1543 -0.5275 -0.3162
  167SOPE   H2S18780   4.260   3.089   6.904  0.1249 -0.5844 -1.0235
  167SOPE    C318781   4.126   3.490   6.708  0.3876  0.1543 -0.1915
  167SOPE    HX18782   4.076   3.437   6.624 -0.5045  1.6808 -0.6640
  167SOPE    HY18783   4.130   3.599   6.687  0.2371  0.4314  1.1195
  167SOPE   O3118784   4.042   3.495   6.824 -0.2437 -0.0302 -0.3993
  167SOPE   C3118785   3.981   3.378   6.851 -0.1648 -0.5385 -0.1928
  167SOPE   O3218786   3.979   3.281   6.779  0.1837  0.2724 -0.1666
  167SOPE   C3218787   3.910   3.388   6.987  0.4974  0.0839 -0.2359
  167SOPE   H2X18788   3.802   3.410   6.970  0.0566 -1.2926  0.6045
  167SOPE   H2Y18789   3.966   3.467   7.041  2.6410 -0.2698 -1.8002
  167SOPE   C2318790   4.472   3.031   6.924  0.3015 -0.5488 -1.2558
  167SOPE   H3R18791   4.565   3.034   6.864  1.9267  0.5660  1.1358
  167SOPE   H3S18792   4.436   2.926   6.938  1.0935 -0.6778 -0.0586
  167SOPE   C2418793   4.502   3.088   7.063  1.1186  0.2095 -0.3794
  167SOPE   H4R18794   4.591   3.153   7.051  1.5195 -0.5562 -1.8124
  167SOPE   H4S18795   4.413   3.143   7.101  0.3391 -0.8077 -0.6659
  167SOPE   C2518796   4.522   2.975   7.166  0.0423  0.1557  0.8301
  167SOPE   H5R18797   4.430   2.920   7.198  0.9513 -1.6815  0.4312
  167SOPE   H5S18798   4.571   2.887   7.119 -1.7197  0.2079 -1.2631
  167SOPE   C2618799   4.598   3.029   7.287  0.3560  0.5437 -0.2813
  167SOPE   H6R18800   4.686   3.091   7.261  1.7341 -1.3112 -0.2536
  167SOPE   H6S18801   4.534   3.103   7.340 -0.3336 -1.5105  1.9425
  167SOPE   C2718802   4.642   2.907   7.380  0.0054 -0.6006 -0.2657
  167SOPE   H7R18803   4.547   2.852   7.401 -1.5783  2.2984  0.6992
  167SOPE   H7S18804   4.700   2.826   7.331 -3.6435 -4.7338  1.5433
  167SOPE   C2818805   4.706   2.944   7.515 -0.3437  0.0824  0.0467
  167SOPE   H8R18806   4.738   2.849   7.564 -0.0142  0.1265 -0.0761
  167SOPE   H8S18807   4.794   3.002   7.478 -0.3038 -1.3216 -2.2593
  167SOPE   C2918808   4.632   3.016   7.621  0.0254  0.1892  0.6305
  167SOPE   H9118809   4.583   3.108   7.587  0.2668  0.9021  2.1580
  167SOPE  C21018810   4.618   2.986   7.753 -0.6577  0.0997 -0.1652
  167SOPE  H10118811   4.565   3.055   7.820 -1.7701 -1.1163  0.2578
  167SOPE  C21118812   4.665   2.856   7.825 -0.0784  0.0592  0.0090
  167SOPE  H11R18813   4.632   2.771   7.762  3.0289  0.3680 -2.3138
  167SOPE  H11S18814   4.617   2.846   7.924  0.1276  0.2709  0.1329
  167SOPE  C21218815   4.814   2.846   7.861 -0.1476 -0.4616  0.2493
  167SOPE  H12R18816   4.884   2.887   7.785  0.2258  1.0475  1.3485
  167SOPE  H12S18817   4.844   2.742   7.881  0.9754 -0.3259 -0.5883
  167SOPE  C21318818   4.851   2.933   7.981 -0.0194 -0.2022  0.4103
  167SOPE  H13R18819   4.780   2.908   8.063  0.4957 -2.7094  0.1679
  167SOPE  H13S18820   4.833   3.039   7.954  2.7755  0.2888  0.2198
  167SOPE  C21418821   4.997   2.929   8.034  0.3713 -0.2369 -0.9405
  167SOPE  H14R18822   5.065   2.955   7.951 -1.0494 -0.3669 -2.1884
  167SOPE  H14S18823   5.013   2.821   8.055 -1.5956 -0.3051  0.5096
  167SOPE  C21518824   5.036   2.990   8.170 -0.1554  0.3480 -0.4310
  167SOPE  H15R18825   5.008   3.096   8.156  4.2499  1.9775  1.2570
  167SOPE  H15S18826   5.145   2.989   8.193 -0.4193  1.1497  1.0041
  167SOPE  C21618827   4.956   2.942   8.299 -0.3347  0.3228  0.3341
  167SOPE  H16R18828   4.851   2.920   8.268  0.1211  1.2631 -2.1516
  167SOPE  H16S18829   4.958   3.019   8.379  1.4186 -0.5731  1.2152
  167SOPE  C21718830   5.017   2.822   8.356 -0.6507  0.4837  0.1402
  167SOPE  H17R18831   5.058   2.773   8.265 -0.7453 -0.8502  0.7977
  167SOPE  H17S18832   4.941   2.761   8.409  0.6046 -0.8029  0.5307
  167SOPE  C21818833   5.133   2.846   8.455  0.2623 -0.4767  0.2089
  167SOPE  H18R18834   5.157   2.748   8.501  3.5134 -0.4031 -1.0846
  167SOPE  H18S18835   5.090   2.917   8.529 -1.6479 -1.0162 -0.3257
  167SOPE  H18T18836   5.214   2.904   8.405 -0.0683 -0.1001  0.1007
  167SOPE   C3318837   3.907   3.264   7.079 -0.0141  0.1399 -0.0908
  167SOPE   H3X18838   3.889   3.171   7.021  2.0416 -0.2105 -0.2633
  167SOPE   H3Y18839   3.825   3.289   7.150  1.2938 -0.4707  1.7196
  167SOPE   C3418840   4.043   3.245   7.150 -0.1289 -0.2700 -0.0166
  167SOPE   H4X18841   4.054   3.341   7.204  0.4207 -0.0263 -0.5603
  167SOPE   H4Y18842   4.122   3.218   7.078  0.2673 -3.6414  1.4817
  167SOPE   C3518843   4.037   3.127   7.248  0.2983 -0.7551  0.1330
  167SOPE   H5X18844   4.028   3.032   7.191 -0.1036  1.0366 -3.0406
  167SOPE   H5Y18845   3.944   3.130   7.308  0.7414 -0.0579  0.8139
  167SOPE   C3618846   4.154   3.124   7.346  0.2058 -0.5597  0.0200
  167SOPE   H6X18847   4.166   3.222   7.398 -0.9920 -0.0772 -0.5778
  167SOPE   H6Y18848   4.254   3.103   7.303 -0.8410 -0.1024 -2.8097
  167SOPE   C3718849   4.120   3.020   7.453  0.2475  0.5741 -0.0521
  167SOPE   H7X18850   4.086   2.935   7.389  2.3219  1.1823 -2.0872
  167SOPE   H7Y18851   4.048   3.053   7.530  1.2357  1.0613  0.6787
  167SOPE   C3818852   4.240   2.983   7.536 -0.1964 -0.0040 -0.5444
  167SOPE   H8X18853   4.287   3.070   7.586  1.0547 -1.6470  1.2675
  167SOPE   H8Y18854   4.318   2.941   7.468 -0.6704 -1.6206 -0.1399
  167SOPE   C3918855   4.219   2.875   7.644  0.3948 -0.1155 -0.1188
  167SOPE   H9X18856   4.323   2.849   7.672  0.5444 -0.4901 -0.9810
  167SOPE   H9Y18857   4.167   2.793   7.590 -0.4752 -0.5678  1.3585
  167SOPE  C31018858   4.140   2.917   7.764 -0.2472  0.9048  0.4358
  167SOPE  H10X18859   4.108   2.829   7.824 -2.9157  2.4258  1.4338
  167SOPE  H10Y18860   4.043   2.962   7.732  1.0421  1.1079 -3.8729
  167SOPE  C31118861   4.207   3.014   7.862  0.1564  0.2428  0.6907
  167SOPE  H11X18862   4.224   3.116   7.821  1.5110  0.4419  1.6935
  167SOPE  H11Y18863   4.304   2.965   7.887 -0.1948 -0.8602 -0.0517
  167SOPE  C31218864   4.125   3.033   7.989  0.6470  0.4566  0.2300
  167SOPE  H12X18865   4.128   2.939   8.049  1.3434  1.6063  2.0671
  167SOPE  H12Y18866   4.025   3.079   7.973  0.4829  1.4340  3.3610
  167SOPE  C31318867   4.195   3.143   8.074  0.0862  0.2894 -0.6304
  167SOPE  H13X18868   4.199   3.243   8.027  0.8286  1.0634  0.9984
  167SOPE  H13Y18869   4.303   3.115   8.078  0.1530  0.5723 -0.4207
  167SOPE  C31418870   4.135   3.168   8.213 -0.3810  0.1853  0.5706
  167SOPE  H14X18871   4.129   3.076   8.276 -1.0827  0.2112  0.5480
  167SOPE  H14Y18872   4.028   3.196   8.207 -0.3382  0.3424  0.5483
  167SOPE  C31518873   4.215   3.271   8.302  0.6721  0.2160  0.2304
  167SOPE  H15X18874   4.252   3.364   8.255  2.3531  0.1003  1.2417
  167SOPE  H15Y18875   4.306   3.209   8.320 -0.4698 -0.9407  2.5357
  167SOPE  C31618876   4.158   3.312   8.443  0.1839  0.4146 -0.1836
  167SOPE  H16X18877   4.243   3.316   8.514  0.0281 -0.4190  0.0628
  167SOPE  H16Y18878   4.090   3.228   8.468  0.2031  0.5095  0.1895
  167SOPE  C31718879   4.071   3.436   8.460  0.1265 -0.3580 -0.1466
  167SOPE  H17X18880   3.976   3.425   8.404  0.3095  0.5804 -0.6683
  167SOPE  H17Y18881   4.113   3.532   8.423 -0.7393 -0.6834 -2.0985
  167SOPE  C31818882   4.031   3.455   8.605 -0.0803  0.1941  0.4558
  167SOPE  H18X18883   4.118   3.485   8.667  0.9609 -0.1213 -0.8347
  167SOPE  H18Y18884   3.987   3.361   8.644  1.0548 -0.3825  0.3590
  167SOPE  H18Z18885   3.956   3.538   8.612 -0.7638 -0.4848  1.4887
  168SOPE     N18886   0.000   6.263   6.089 -0.0788  0.2364  0.1920
  168SOPE   HN118887   0.088   6.227   6.046  0.1604  1.5106 -0.4393
  168SOPE   HN218888  -0.081   6.241   6.029  0.3080 -1.3637  0.2279
  168SOPE   HN318889   0.013   6.366   6.100  0.9346 -0.0320  1.9224
  168SOPE   C1218890  -0.016   6.205   6.220  0.2789 -0.0998 -0.5667
  168SOPE  H12A18891  -0.081   6.115   6.219 -1.1659  0.9206 -0.6980
  168SOPE  H12B18892  -0.065   6.279   6.286  0.6969 -1.5394  1.4825
  168SOPE   C1118893   0.119   6.150   6.268 -0.0707  0.8401 -0.0619
  168SOPE  H11A18894   0.175   6.109   6.181  0.6579 -1.8793  1.5580
  168SOPE  H11B18895   0.106   6.073   6.347  0.4764 -0.8164 -1.5227
  168SOPE     P18896   0.334   6.304   6.273 -0.0040  0.3337  0.0330
  168SOPE   O1318897   0.296   6.407   6.171 -0.2627 -0.2392  0.0253
  168SOPE   O1418898   0.409   6.193   6.216  0.5119  0.2675  0.6210
  168SOPE   O1218899   0.196   6.255   6.333 -0.4329  0.8443  0.0009
  168SOPE   O1118900   0.411   6.365   6.395  0.3856 -0.5222  0.0315
  168SOPE    C118901   0.417   6.293   6.512  0.1720  1.2740  0.3534
  168SOPE    HA18902   0.525   6.289   6.539  0.0120  2.1040  1.2202
  168SOPE    HB18903   0.392   6.185   6.511  0.9783  1.0872  0.1666
  168SOPE    C218904   0.339   6.364   6.623  0.0935 -0.5496  0.2755
  168SOPE    HS18905   0.323   6.470   6.592  0.4042  0.1697  2.3882
  168SOPE   O2118906   0.418   6.377   6.741 -0.1484 -0.4598  0.1962
  168SOPE   C2118907   0.462   6.275   6.804 -0.0943 -0.5232 -0.0851
  168SOPE   O2218908   0.444   6.157   6.779 -0.0803 -0.3178 -0.0524
  168SOPE   C2218909   0.529   6.327   6.932  0.5777  0.3355 -0.0943
  168SOPE   H2R18910   0.544   6.437   6.929  1.8006  0.1682 -1.2024
  168SOPE   H2S18911   0.626   6.275   6.942  1.9749  3.2041  3.0571
  168SOPE    C318912   0.203   6.299   6.650  0.5867  1.2154 -0.4221
  168SOPE    HX18913   0.232   6.192   6.657  0.8482  1.1084 -2.4096
  168SOPE    HY18914   0.123   6.305   6.572  0.4783  1.8075 -0.2690
  168SOPE   O3118915   0.141   6.342   6.777 -0.1119  0.3492  0.6345
  168SOPE   C3118916   0.061   6.452   6.773 -0.3784  0.0849  0.0580
  168SOPE   O3218917   0.046   6.520   6.675  0.4755 -0.1425 -0.3185
  168SOPE   C3218918   0.000   6.466   6.908 -0.3238 -0.3898  0.0074
  168SOPE   H2X18919   0.082   6.437   6.978  1.1349 -0.2289 -1.5525
  168SOPE   H2Y18920  -0.086   6.397   6.916 -0.8205  0.4300  2.3836
  168SOPE   C2318921   0.434   6.300   7.054  0.1950  0.1041  0.0935
  168SOPE   H3R18922   0.395   6.197   7.066 -2.2899  0.8429 -0.9484
  168SOPE   H3S18923   0.344   6.365   7.055  0.6421  0.7683 -0.8970
  168SOPE   C2418924   0.501   6.337   7.193 -0.0957  0.7715  0.1222
  168SOPE   H4R18925   0.570   6.255   7.223  0.9357  1.1494 -1.1163
  168SOPE   H4S18926   0.554   6.426   7.152  1.6131 -0.0691  0.4272
  168SOPE   C2518927   0.402   6.364   7.300  0.3843 -0.3679 -0.3274
  168SOPE   H5R18928   0.333   6.443   7.263 -2.5095 -2.4855  0.1476
  168SOPE   H5S18929   0.337   6.276   7.317  1.6656 -1.3170 -0.2373
  168SOPE   C2618930   0.452   6.416   7.427 -0.4545  0.0036  0.2723
  168SOPE   H6R18931   0.513   6.505   7.401  1.2428 -1.8098 -2.4905
  168SOPE   H6S18932   0.369   6.452   7.492 -0.8428  0.0184 -0.2302
  168SOPE   C2718933   0.548   6.329   7.512  0.4939  0.0132  0.7482
  168SOPE   H7R18934   0.506   6.227   7.528 -1.4578  0.3564 -1.7250
  168SOPE   H7S18935   0.639   6.314   7.450 -0.2479 -0.2108 -0.3014
  168SOPE   C2818936   0.583   6.388   7.652  0.4847  0.4447  0.1816
  168SOPE   H8R18937   0.624   6.490   7.637  1.4852  0.2568  1.4128
  168SOPE   H8S18938   0.483   6.401   7.698  1.3938  0.3660  2.3018
  168SOPE   C2918939   0.664   6.293   7.737  1.1131  0.2329 -0.2716
  168SOPE   H9118940   0.764   6.267   7.698  0.7735  0.2976 -1.2141
  168SOPE  C21018941   0.627   6.243   7.860 -0.2986 -0.5377  0.3422
  168SOPE  H10118942   0.694   6.173   7.911  0.3526 -2.3430 -2.7653
  168SOPE  C21118943   0.493   6.277   7.930 -0.0360  0.4478 -0.1516
  168SOPE  H11R18944   0.482   6.387   7.933 -1.8580  0.2648  1.1299
  168SOPE  H11S18945   0.490   6.258   8.039 -1.2978 -0.1900 -0.2827
  168SOPE  C21218946   0.374   6.199   7.863 -0.4441  0.2817 -0.4192
  168SOPE  H12R18947   0.393   6.203   7.754  0.6362  2.5835 -0.1916
  168SOPE  H12S18948   0.281   6.260   7.871 -1.0822  0.0174 -4.1488
  168SOPE  C21318949   0.358   6.052   7.906  0.5004 -0.5875  0.2434
  168SOPE  H13R18950   0.448   5.990   7.927  0.5397 -0.0891  1.6573
  168SOPE  H13S18951   0.298   6.003   7.827  0.6141  1.8687 -1.4912
  168SOPE  C21418952   0.274   6.054   8.033  0.0862  0.5611 -0.5696
  168SOPE  H14R18953   0.184   6.116   8.015 -0.7900  0.2341  2.2977
  168SOPE  H14S18954   0.317   6.079   8.132 -0.2654 -0.0220 -0.2643
  168SOPE  C21518955   0.234   5.903   8.050  0.0598 -0.2838 -0.0471
  168SOPE  H15R18956   0.324   5.850   8.089  0.7351  0.9038  0.0377
  168SOPE  H15S18957   0.215   5.850   7.954  3.1743  1.0842 -1.5570
  168SOPE  C21618958   0.106   5.889   8.144  0.0902 -0.2936 -0.2053
  168SOPE  H16R18959   0.082   5.781   8.140 -0.4578 -0.2527  1.3327
  168SOPE  H16S18960   0.029   5.944   8.087 -0.1242  0.9298  1.1995
  168SOPE  C21718961   0.138   5.907   8.292 -0.3567 -0.2326  0.6504
  168SOPE  H17R18962   0.147   6.016   8.306 -2.4274  0.2155 -1.1286
  168SOPE  H17S18963   0.240   5.870   8.320 -0.4094 -0.2514  0.8230
  168SOPE  C21818964   0.030   5.867   8.391  0.5294 -0.8197  0.1367
  168SOPE  H18R18965   0.070   5.888   8.492  0.4706 -0.4129  0.0804
  168SOPE  H18S18966  -0.000   5.761   8.382 -0.5121 -0.7780  2.3961
  168SOPE  H18T18967  -0.058   5.927   8.358  0.0731 -1.4394  0.2231
  168SOPE   C3318968  -0.053   6.606   6.955 -0.6894  0.1045  0.3401
  168SOPE   H3X18969  -0.129   6.645   6.884 -0.0156  1.0513  0.1096
  168SOPE   H3Y18970   0.023   6.686   6.941 -2.6881  2.1751  0.7373
  168SOPE   C3418971  -0.083   6.612   7.110 -0.4999 -0.1415  0.1112
  168SOPE   H4X18972  -0.161   6.536   7.129  0.1643 -1.5392 -2.2603
  168SOPE   H4Y18973  -0.128   6.713   7.116 -2.0398 -0.8028  0.1157
  168SOPE   C3518974   0.036   6.608   7.200  0.4084 -0.3982  0.2517
  168SOPE   H5X18975   0.116   6.676   7.164  0.5697  1.8987  4.3514
  168SOPE   H5Y18976   0.077   6.505   7.189 -0.1777 -0.4827 -1.4382
  168SOPE   C3618977  -0.023   6.636   7.342  0.2960 -0.1468 -0.3219
  168SOPE   H6X18978  -0.110   6.571   7.369  0.2546  0.1266  0.2107
  168SOPE   H6Y18979  -0.054   6.743   7.344  1.2653  0.1356  0.0903
  168SOPE   C3718980   0.083   6.607   7.453 -0.3412  0.4483 -0.2135
  168SOPE   H7X18981   0.167   6.676   7.430 -0.7031  0.7430 -0.6843
  168SOPE   H7Y18982   0.111   6.500   7.459 -0.5260  0.4230  0.1916
  168SOPE   C3818983   0.021   6.620   7.592  0.1208  0.2948 -0.0603
  168SOPE   H8X18984  -0.068   6.554   7.585  0.4179 -0.0433 -0.7355
  168SOPE   H8Y18985  -0.014   6.724   7.610  1.6627  0.9052 -0.4057
  168SOPE   C3918986   0.119   6.580   7.704  0.0571  0.2555 -0.2545
  168SOPE   H9X18987   0.221   6.568   7.661  0.3459 -2.1953  0.9634
  168SOPE   H9Y18988   0.081   6.488   7.752  1.6905  0.1263  0.8570
  168SOPE  C31018989   0.117   6.694   7.812  0.4791  0.3484 -0.1052
  168SOPE  H10X18990   0.017   6.724   7.849  0.0830  0.6854 -1.4120
  168SOPE  H10Y18991   0.141   6.792   7.766  0.0963  0.8494  0.7381
  168SOPE  C31118992   0.209   6.663   7.925 -0.0821  0.0432 -1.1842
  168SOPE  H11X18993   0.223   6.750   7.993  1.1107 -1.7076  0.9604
  168SOPE  H11Y18994   0.308   6.634   7.885 -0.9065 -3.4906 -1.0266
  168SOPE  C31218995   0.161   6.547   8.013  0.1170  0.2497  0.3089
  168SOPE  H12X18996   0.162   6.453   7.954  0.8911  0.0451  0.6328
  168SOPE  H12Y18997   0.057   6.564   8.048  0.2088  2.0626 -0.2008
  168SOPE  C31318998   0.240   6.534   8.142 -0.4025  0.0601 -0.0030
  168SOPE  H13X18999   0.230   6.622   8.209  0.3067 -1.0680  1.6551
  168SOPE  H13Y19000   0.350   6.522   8.130  0.0894  2.5406  1.4152
  168SOPE  C31419001   0.199   6.414   8.227 -0.3402 -0.7679  0.6930
  168SOPE  H14X19002   0.230   6.324   8.171  0.0031 -1.0400  1.3086
  168SOPE  H14Y19003   0.089   6.408   8.243 -0.6378  0.8591 -0.5079
  168SOPE  C31519004   0.281   6.423   8.358 -0.3444 -0.3111  0.0610
  168SOPE  H15X19005   0.270   6.524   8.402 -0.6186  1.0381 -2.8952
  168SOPE  H15Y19006   0.390   6.414   8.339  0.0926 -0.5585  2.3855
  168SOPE  C31619007   0.247   6.309   8.446 -0.4818 -0.3521 -0.2552
  168SOPE  H16X19008   0.225   6.225   8.377 -0.2462  0.3577 -1.2156
  168SOPE  H16Y19009   0.153   6.321   8.504  0.3451  0.0731  1.0467
  168SOPE  C31719010   0.357   6.276   8.542 -0.2727  0.2047 -0.2449
  168SOPE  H17X19011   0.365   6.361   8.612 -1.6689 -0.0061  0.2070
  168SOPE  H17Y19012   0.453   6.254   8.489 -2.2866 -1.8317 -3.4206
  168SOPE  C31819013   0.321   6.165   8.646  0.1670 -0.4612  0.1813
  168SOPE  H18X19014   0.240   6.197   8.715 -0.0493 -0.3215 -0.1354
  168SOPE  H18Y19015   0.405   6.137   8.713 -1.1876 -0.9306  1.7563
  168SOPE  H18Z19016   0.278   6.078   8.593  2.0882 -1.7964  0.6943
  169SOPE     N19017   6.651   1.532   6.414 -0.4490 -0.5484 -1.1139
  169SOPE   HN119018   6.677   1.615   6.472  1.1084 -1.5687 -0.2882
  169SOPE   HN219019   6.610   1.570   6.326  1.1958  2.1545 -0.8288
  169SOPE   HN319020   6.582   1.478   6.470  1.0987  0.6340  2.2355
  169SOPE   C1219021   6.766   1.447   6.390 -0.0170 -0.2028  0.0629
  169SOPE  H12A19022   6.811   1.408   6.483 -0.0980  2.2327  1.2130
  169SOPE  H12B19023   6.838   1.515   6.338  0.6050  1.3267  2.7495
  169SOPE   C1119024   6.720   1.320   6.310  0.1074 -0.5284  1.0575
  169SOPE  H11A19025   6.816   1.271   6.284 -0.4847 -1.6821  0.9936
  169SOPE  H11B19026   6.660   1.356   6.224 -1.9835 -0.6842  2.3790
  169SOPE     P19027   6.572   1.106   6.335 -0.0712  0.1288  0.1887
  169SOPE   O1319028   6.585   0.988   6.421  0.2096  0.1056 -0.1396
  169SOPE   O1419029   6.624   1.088   6.197 -0.4149 -0.2020  0.3795
  169SOPE   O1219030   6.649   1.234   6.399 -0.1360  0.0823  0.4611
  169SOPE   O1119031   6.423   1.154   6.333  0.3509 -0.3047 -0.1692
  169SOPE    C119032   6.373   1.287   6.330 -0.1017  0.4329  0.3809
  169SOPE    HA19033   6.335   1.325   6.233  0.5497 -0.1854 -0.1369
  169SOPE    HB19034   6.453   1.363   6.340  1.7769 -1.4544  0.3982
  169SOPE    C219035   6.273   1.307   6.444 -0.6868  1.2575  0.2977
  169SOPE    HS19036   6.234   1.410   6.460 -3.7745 -0.1464  2.8605
  169SOPE   O2119037   6.332   1.259   6.564 -0.0276 -0.5465 -0.7819
  169SOPE   C2119038   6.418   1.332   6.629  0.1436  0.3372 -0.1465
  169SOPE   O2219039   6.463   1.443   6.599 -0.3287  0.0529  0.5527
  169SOPE   C2219040   6.461   1.264   6.754 -0.4235 -0.5694  0.6979
  169SOPE   H2R19041   6.498   1.163   6.726  0.9725  0.3036 -0.8691
  169SOPE   H2S19042   6.370   1.256   6.816 -0.0290  1.4850  1.6442
  169SOPE    C319043   6.148   1.234   6.414  0.1889 -0.1775 -0.6235
  169SOPE    HX19044   6.170   1.126   6.399 -1.1505 -0.7678  1.2255
  169SOPE    HY19045   6.105   1.274   6.320  0.0871  2.8147  0.5784
  169SOPE   O3119046   6.054   1.264   6.518 -0.2844 -0.2780 -0.5357
  169SOPE   C3119047   5.992   1.166   6.578 -0.4805  0.5655  0.6895
  169SOPE   O3219048   6.002   1.048   6.548 -0.3905 -0.2402 -0.1315
  169SOPE   C3219049   5.918   1.204   6.709 -0.6033  0.8073 -0.0096
  169SOPE   H2X19050   5.852   1.291   6.688 -0.4008  0.9634  0.0044
  169SOPE   H2Y19051   5.999   1.239   6.776  1.3632 -1.6396 -0.9192
  169SOPE   C2319052   6.571   1.347   6.814  0.7983 -0.2979 -0.2537
  169SOPE   H3R19053   6.520   1.438   6.854 -0.6809 -1.9359  1.8595
  169SOPE   H3S19054   6.648   1.376   6.740 -0.0360 -0.4104 -1.1827
  169SOPE   C2419055   6.635   1.285   6.942 -0.1818  1.1231 -0.6113
  169SOPE   H4R19056   6.683   1.188   6.917 -0.3248  1.2027 -1.2038
  169SOPE   H4S19057   6.715   1.358   6.966 -1.4486  2.2831  0.2667
  169SOPE   C2519058   6.543   1.271   7.058  0.4260  0.0991  0.4246
  169SOPE   H5R19059   6.495   1.366   7.090  0.5348 -0.1858  1.4633
  169SOPE   H5S19060   6.471   1.188   7.042  2.0566 -1.1413 -0.6851
  169SOPE   C2619061   6.631   1.238   7.182  0.9192 -0.5679  0.6470
  169SOPE   H6R19062   6.662   1.132   7.186 -0.9399 -1.0976  3.0614
  169SOPE   H6S19063   6.716   1.309   7.172  0.5063 -0.3484 -2.3017
  169SOPE   C2719064   6.543   1.274   7.307 -0.1470  0.6536 -0.1905
  169SOPE   H7R19065   6.484   1.368   7.298 -1.8968 -0.4732 -1.1525
  169SOPE   H7S19066   6.465   1.197   7.324  1.2599 -0.4138  1.9357
  169SOPE   C2819067   6.623   1.267   7.440 -0.0824 -0.2280 -0.0749
  169SOPE   H8R19068   6.555   1.239   7.523  1.5167 -2.4789  0.5866
  169SOPE   H8S19069   6.691   1.179   7.442  3.5405  2.3481  1.4586
  169SOPE   C2919070   6.715   1.385   7.469 -0.1265 -0.5617 -0.3746
  169SOPE   H9119071   6.769   1.420   7.380 -1.7558  2.2044 -0.3903
  169SOPE  C21019072   6.724   1.454   7.589 -0.4264  0.2443 -0.1860
  169SOPE  H10119073   6.799   1.534   7.596  1.1093 -1.1542 -0.0690
  169SOPE  C21119074   6.660   1.402   7.717 -0.0428 -0.4136  0.2144
  169SOPE  H11R19075   6.610   1.304   7.706 -2.2579  0.4792  1.6065
  169SOPE  H11S19076   6.576   1.472   7.736 -2.1911 -2.4896 -1.0402
  169SOPE  C21219077   6.755   1.402   7.842 -0.1542 -0.0492  0.0180
  169SOPE  H12R19078   6.693   1.349   7.918 -2.7651  0.2971 -1.7185
  169SOPE  H12S19079   6.766   1.507   7.878  0.3745  0.0579 -0.4472
  169SOPE  C21319080   6.893   1.336   7.821  0.2173 -0.5618  0.4153
  169SOPE  H13R19081   6.899   1.288   7.721 -0.4515  0.1425  0.0320
  169SOPE  H13S19082   6.902   1.262   7.903 -3.8192 -2.1955 -0.4108
  169SOPE  C21419083   7.011   1.440   7.822  0.3030 -0.3727  0.1599
  169SOPE  H14R19084   6.995   1.503   7.912 -0.4884  0.2658 -0.4094
  169SOPE  H14S19085   6.999   1.490   7.723 -0.6010 -1.9947 -0.5980
  169SOPE  C21519086   7.156   1.377   7.833  0.4229  0.2034  0.4153
  169SOPE  H15R19087   7.171   1.299   7.756  1.1654  0.1635  0.5946
  169SOPE  H15S19088   7.161   1.328   7.933 -0.9771 -0.0715  0.3618
  169SOPE  C21619089   7.274   1.475   7.806  0.5671  0.4299 -0.4812
  169SOPE  H16R19090   7.251   1.569   7.861 -0.3109 -0.7077  1.1567
  169SOPE  H16S19091   7.285   1.497   7.697  1.9723 -0.5645 -0.5699
  169SOPE  C21719092   7.411   1.428   7.852  0.5521 -0.0862 -0.2483
  169SOPE  H17R19093   7.454   1.338   7.804  0.2793 -1.1638  1.4746
  169SOPE  H17S19094   7.408   1.408   7.961 -1.1917 -0.9207 -0.4152
  169SOPE  C21819095   7.516   1.538   7.833 -0.3077  0.0203 -0.3153
  169SOPE  H18R19096   7.545   1.552   7.727 -1.2412  0.6914 -0.4979
  169SOPE  H18S19097   7.601   1.515   7.900 -1.5555  1.3364  1.8608
  169SOPE  H18T19098   7.476   1.638   7.863 -1.5845  0.5401 -3.3588
  169SOPE   C3319099   5.847   1.091   6.779 -0.3391 -0.2698 -0.0269
  169SOPE   H3X19100   5.907   1.013   6.828 -0.5813  0.5723  1.6727
  169SOPE   H3Y19101   5.785   1.040   6.702 -0.9868  0.6854 -0.1704
  169SOPE   C3419102   5.750   1.145   6.891  0.6925 -0.1029 -0.7594
  169SOPE   H4X19103   5.698   1.062   6.944  0.9011 -0.0329 -0.4418
  169SOPE   H4Y19104   5.680   1.225   6.860  2.1342  1.6513  0.3126
  169SOPE   C3519105   5.829   1.214   7.009 -0.0072  0.1748  0.1223
  169SOPE   H5X19106   5.853   1.319   6.981 -0.8207  0.5061  0.6300
  169SOPE   H5Y19107   5.926   1.164   7.031  0.0280  0.0791 -0.2323
  169SOPE   C3619108   5.731   1.226   7.123  0.2924 -0.6995 -0.0316
  169SOPE   H6X19109   5.704   1.123   7.157  0.5464 -0.4263  1.0134
  169SOPE   H6Y19110   5.638   1.277   7.091  1.2478  1.3232  0.2988
  169SOPE   C3719111   5.803   1.308   7.235 -0.0452 -0.5135 -0.5955
  169SOPE   H7X19112   5.840   1.406   7.200 -0.3164 -0.9427 -2.1310
  169SOPE   H7Y19113   5.896   1.253   7.258  0.3075  0.1818 -0.3488
  169SOPE   C3819114   5.713   1.317   7.366 -0.0578  0.2810  0.1668
  169SOPE   H8X19115   5.611   1.353   7.340 -0.8766 -0.9862  1.4873
  169SOPE   H8Y19116   5.709   1.220   7.419  1.2040 -0.2989 -0.7380
  169SOPE   C3919117   5.783   1.408   7.470  0.4678  0.5022 -0.2602
  169SOPE   H9X19118   5.796   1.506   7.420 -1.1889  1.1029  0.4324
  169SOPE   H9Y19119   5.884   1.374   7.502  0.3860 -0.6192 -1.1135
  169SOPE  C31019120   5.697   1.418   7.596 -0.4068 -0.9920 -0.1445
  169SOPE  H10X19121   5.591   1.435   7.569 -0.7038 -1.4511  0.6935
  169SOPE  H10Y19122   5.729   1.516   7.639  0.7934 -1.5015  0.1840
  169SOPE  C31119123   5.699   1.299   7.697 -0.3351 -0.4237 -1.0851
  169SOPE  H11X19124   5.808   1.296   7.721 -0.8415 -0.7958  1.4782
  169SOPE  H11Y19125   5.677   1.199   7.653  0.5906 -0.0947 -2.3672
  169SOPE  C31219126   5.600   1.321   7.818 -0.0893 -0.6861  0.0980
  169SOPE  H12X19127   5.493   1.300   7.795 -0.9204  2.7575  0.2918
  169SOPE  H12Y19128   5.617   1.427   7.843 -2.1223 -0.3198  0.1447
  169SOPE  C31319129   5.637   1.234   7.941 -0.2554 -0.1566  0.5679
  169SOPE  H13X19130   5.737   1.266   7.978 -1.0988  1.2449  1.7373
  169SOPE  H13Y19131   5.650   1.127   7.914 -1.0591  0.2687 -1.7743
  169SOPE  C31419132   5.556   1.243   8.068 -0.8041 -0.5921 -0.1356
  169SOPE  H14X19133   5.612   1.181   8.142 -2.9624 -2.1100  0.3094
  169SOPE  H14Y19134   5.458   1.193   8.063 -1.0236 -0.1385 -0.4424
  169SOPE  C31519135   5.549   1.384   8.123 -0.1279  0.4046 -0.7265
  169SOPE  H15X19136   5.479   1.432   8.052 -1.3547 -1.1791 -0.6629
  169SOPE  H15Y19137   5.652   1.425   8.127 -0.0857  0.2216  0.3773
  169SOPE  C31619138   5.501   1.390   8.262 -0.2350  0.1752  0.2470
  169SOPE  H16X19139   5.577   1.328   8.315  0.6506  0.1644 -0.9982
  169SOPE  H16Y19140   5.401   1.340   8.262  0.0418 -0.4090 -0.6183
  169SOPE  C31719141   5.496   1.530   8.311 -0.2318 -0.3062  0.0407
  169SOPE  H17X19142   5.412   1.592   8.271  0.7338  2.2271  1.6804
  169SOPE  H17Y19143   5.594   1.580   8.294 -0.2969 -0.1327  0.1715
  169SOPE  C31819144   5.479   1.533   8.463  0.3097 -0.4528  1.0572
  169SOPE  H18X19145   5.540   1.453   8.510  0.3945 -0.1905  1.4018
  169SOPE  H18Y19146   5.374   1.508   8.487  0.1186 -0.1588  0.5300
  169SOPE  H18Z19147   5.509   1.631   8.505  0.9530  0.4559 -1.3583
  170SOPE     N19148   2.785   5.660   6.504 -0.0450  0.9990  0.8729
  170SOPE   HN119149   2.721   5.579   6.516  0.1476  0.4503 -1.3626
  170SOPE   HN219150   2.727   5.727   6.450 -3.1644 -1.4334  0.8976
  170SOPE   HN319151   2.859   5.631   6.436 -0.0642 -0.6951  1.5178
  170SOPE   C1219152   2.854   5.714   6.625  0.1687  0.4133  0.0628
  170SOPE  H12A19153   2.933   5.643   6.656  0.1896  0.8254  0.9988
  170SOPE  H12B19154   2.779   5.729   6.706  0.4612 -0.9216  0.6118
  170SOPE   C1119155   2.911   5.860   6.594  0.0778  0.2232 -0.6185
  170SOPE  H11A19156   3.018   5.857   6.562  0.0978  0.5461 -0.5892
  170SOPE  H11B19157   2.904   5.923   6.685  0.4361  1.5811 -1.4955
  170SOPE     P19158   2.691   5.981   6.507 -0.6305 -0.1045 -0.2330
  170SOPE   O1319159   2.601   5.873   6.467  0.1512  0.4593 -0.5067
  170SOPE   O1419160   2.680   6.110   6.430 -0.4840  0.0173 -0.6946
  170SOPE   O1219161   2.835   5.926   6.495 -0.4335  0.4243  0.0219
  170SOPE   O1119162   2.680   6.007   6.666 -0.4172 -0.2824 -0.7975
  170SOPE    C119163   2.622   6.118   6.728  0.1461  0.8903  0.6203
  170SOPE    HA19164   2.572   6.088   6.822 -0.9381  1.7448  0.3345
  170SOPE    HB19165   2.546   6.159   6.658 -0.1841 -1.6180 -0.5751
  170SOPE    C219166   2.719   6.234   6.762 -0.2811  0.6888  0.6216
  170SOPE    HS19167   2.815   6.224   6.708  0.2300  3.1685  0.9244
  170SOPE   O2119168   2.742   6.237   6.906 -0.9311 -0.1676 -0.0631
  170SOPE   C2119169   2.867   6.249   6.946 -0.2147 -0.4329  0.1948
  170SOPE   O2219170   2.963   6.250   6.871  0.2024 -0.1234  0.2710
  170SOPE   C2219171   2.873   6.260   7.099  0.0035  0.2331  0.1448
  170SOPE   H2R19172   2.904   6.361   7.134  2.4899  0.1570 -1.5597
  170SOPE   H2S19173   2.955   6.187   7.117 -0.1341 -0.5748 -2.1942
  170SOPE    C319174   2.669   6.362   6.702  1.3235  0.6716 -0.1166
  170SOPE    HX19175   2.565   6.386   6.733 -0.3164 -2.5776 -2.5173
  170SOPE    HY19176   2.670   6.347   6.592  1.8569 -1.0904  0.0976
  170SOPE   O3119177   2.750   6.469   6.747 -0.4513  0.2141  0.4359
  170SOPE   C3119178   2.864   6.483   6.671  0.0542 -0.2647 -0.5540
  170SOPE   O3219179   2.904   6.407   6.595 -0.7003  1.0957  0.7377
  170SOPE   C3219180   2.938   6.613   6.712 -0.1706 -0.2460 -0.3373
  170SOPE   H2X19181   2.856   6.688   6.716  1.0620  1.1535 -0.3745
  170SOPE   H2Y19182   3.027   6.632   6.647  1.2876 -1.2864  1.2675
  170SOPE   C2319183   2.744   6.220   7.173  0.4820  0.3275  0.3571
  170SOPE   H3R19184   2.710   6.125   7.125  0.1474  1.3973 -1.6168
  170SOPE   H3S19185   2.668   6.298   7.154  1.7661  1.0661 -2.1703
  170SOPE   C2419186   2.754   6.207   7.326  0.0413  0.4497 -0.1367
  170SOPE   H4R19187   2.817   6.290   7.364 -0.7965  1.1400 -0.2532
  170SOPE   H4S19188   2.654   6.206   7.374 -0.5679 -1.1157 -1.3575
  170SOPE   C2519189   2.808   6.064   7.356 -0.3500  0.0138 -0.3403
  170SOPE   H5R19190   2.736   5.994   7.307 -1.3649  2.1846 -2.1496
  170SOPE   H5S19191   2.908   6.050   7.311 -0.3291  2.8448 -1.3448
  170SOPE   C2619192   2.791   6.012   7.500 -0.9853  0.3069 -0.2902
  170SOPE   H6R19193   2.689   6.027   7.541 -0.0787  3.6397  1.1056
  170SOPE   H6S19194   2.833   5.909   7.495 -1.6294  0.0373 -0.2636
  170SOPE   C2719195   2.882   6.079   7.610 -0.3191  0.6771  0.0082
  170SOPE   H7R19196   2.864   6.188   7.603  3.3650  1.4402  0.4430
  170SOPE   H7S19197   2.854   6.043   7.711  0.1482 -0.2582 -0.1812
  170SOPE   C2819198   3.036   6.056   7.587  0.1536 -0.7657  0.3441
  170SOPE   H8R19199   3.050   6.073   7.478 -0.0521 -2.3601  0.0333
  170SOPE   H8S19200   3.096   6.136   7.634  0.8690 -0.1146 -1.5690
  170SOPE   C2919201   3.080   5.914   7.632  0.7523  0.9226  0.0140
  170SOPE   H9119202   3.074   5.841   7.550  0.6945  0.0140  0.8105
  170SOPE  C21019203   3.113   5.872   7.758 -0.1648 -0.2393 -0.5193
  170SOPE  H10119204   3.149   5.771   7.786  0.6211 -0.1782 -1.2700
  170SOPE  C21119205   3.099   5.966   7.878 -0.7166 -0.0818 -0.1947
  170SOPE  H11R19206   3.007   5.943   7.935  1.1276 -0.6710  2.7210
  170SOPE  H11S19207   3.095   6.071   7.841  1.7828  0.7371  1.6003
  170SOPE  C21219208   3.231   5.968   7.968 -0.3284  0.2804  0.4600
  170SOPE  H12R19209   3.323   5.991   7.909  0.3935  0.0866  1.4933
  170SOPE  H12S19210   3.256   5.868   8.008  2.1119 -0.2688 -2.1051
  170SOPE  C21319211   3.229   6.074   8.083  0.7435  0.2418 -0.3734
  170SOPE  H13R19212   3.244   6.176   8.041 -0.4595  0.3400 -0.5943
  170SOPE  H13S19213   3.310   6.042   8.153 -1.3214 -0.2820  1.9219
  170SOPE  C21419214   3.094   6.076   8.155  0.0241 -0.2126  0.3111
  170SOPE  H14R19215   3.058   5.972   8.171 -1.6954 -0.2514 -2.9355
  170SOPE  H14S19216   3.026   6.123   8.081 -1.9713 -2.1094  0.8164
  170SOPE  C21519217   3.102   6.150   8.287 -0.3281  1.0004 -0.2345
  170SOPE  H15R19218   3.133   6.256   8.275  0.8746  0.6770 -0.0854
  170SOPE  H15S19219   3.175   6.097   8.351 -0.5526  0.9714 -0.0032
  170SOPE  C21619220   2.957   6.147   8.351  0.1770  0.1224 -0.6608
  170SOPE  H16R19221   2.939   6.042   8.384 -0.5051 -0.0155 -1.4494
  170SOPE  H16S19222   2.882   6.169   8.272 -1.7263 -1.0952  0.6914
  170SOPE  C21719223   2.940   6.241   8.472 -0.2088  0.8443  0.0418
  170SOPE  H17R19224   2.837   6.266   8.505  0.4401 -0.8794  3.8404
  170SOPE  H17S19225   2.979   6.340   8.440 -1.0443  0.4784 -2.3054
  170SOPE  C21819226   3.027   6.212   8.592 -0.2438 -0.6364 -0.2363
  170SOPE  H18R19227   3.039   6.303   8.654 -0.2834 -1.4801  1.0430
  170SOPE  H18S19228   3.129   6.187   8.555 -0.0849  0.0323 -0.2557
  170SOPE  H18T19229   2.985   6.139   8.665 -1.2567 -1.0539 -1.2100
  170SOPE   C3319230   2.990   6.587   6.854  0.0822 -0.7356  0.4163
  170SOPE   H3X19231   3.072   6.511   6.850  0.0396 -0.7619  0.0083
  170SOPE   H3Y19232   2.917   6.538   6.922 -1.1794 -0.1578 -0.4902
  170SOPE   C3419233   3.051   6.715   6.913 -0.2396  0.1036 -0.0478
  170SOPE   H4X19234   2.970   6.783   6.946  1.3637  0.9472  2.4070
  170SOPE   H4Y19235   3.117   6.766   6.840 -1.1543  0.3861 -0.6981
  170SOPE   C3519236   3.150   6.699   7.032  0.6954  0.0907  0.6160
  170SOPE   H5X19237   3.199   6.795   7.060  0.2811  0.1278  1.2478
  170SOPE   H5Y19238   3.222   6.625   6.991 -0.9226  0.1934 -2.7026
  170SOPE   C3619239   3.075   6.640   7.151 -0.1702 -0.2285 -0.4368
  170SOPE   H6X19240   3.003   6.561   7.121  0.0861 -0.4793 -0.3965
  170SOPE   H6Y19241   3.017   6.721   7.200 -0.7317 -0.3750 -0.8458
  170SOPE   C3719242   3.172   6.585   7.252 -0.0010  1.0512  0.0144
  170SOPE   H7X19243   3.251   6.662   7.270 -0.4527  1.6040 -0.3207
  170SOPE   H7Y19244   3.232   6.503   7.207 -2.3264 -0.0277 -1.2919
  170SOPE   C3819245   3.116   6.539   7.388 -0.2252  0.7354 -0.0606
  170SOPE   H8X19246   3.039   6.460   7.370 -1.0333  1.3066  0.8006
  170SOPE   H8Y19247   3.056   6.619   7.437 -0.0695  0.5379  0.4589
  170SOPE   C3919248   3.228   6.481   7.478 -1.0594  0.7334 -0.2648
  170SOPE   H9X19249   3.298   6.563   7.503 -0.0844 -0.4998  1.2693
  170SOPE   H9Y19250   3.284   6.397   7.432  0.0728  1.0824  0.4387
  170SOPE  C31019251   3.166   6.442   7.610 -0.5613 -0.2198 -0.6057
  170SOPE  H10X19252   3.092   6.360   7.600 -0.7121 -0.4787  1.9150
  170SOPE  H10Y19253   3.117   6.536   7.645 -0.3164 -0.3469  0.0834
  170SOPE  C31119254   3.275   6.412   7.719  0.2833  0.4145 -0.5881
  170SOPE  H11X19255   3.359   6.484   7.714 -0.2507  1.4372  2.8066
  170SOPE  H11Y19256   3.308   6.307   7.708 -1.3440 -0.1044 -0.7287
  170SOPE  C31219257   3.241   6.426   7.864  0.0195 -0.4229 -0.2057
  170SOPE  H12X19258   3.322   6.382   7.927  1.8524  1.0204 -1.4387
  170SOPE  H12Y19259   3.137   6.396   7.887 -0.7491  2.2927  0.2179
  170SOPE  C31319260   3.231   6.573   7.924 -0.2321 -0.3179  0.5699
  170SOPE  H13X19261   3.158   6.634   7.867  1.7164  1.1794 -0.4707
  170SOPE  H13Y19262   3.335   6.609   7.910 -0.7670  0.4015 -2.1692
  170SOPE  C31419263   3.204   6.579   8.076  0.4510 -0.5313  0.1476
  170SOPE  H14X19264   3.103   6.541   8.101  0.3765 -1.4548 -1.4678
  170SOPE  H14Y19265   3.207   6.686   8.108  0.7841 -0.1671 -1.0670
  170SOPE  C31519266   3.300   6.514   8.174  0.2889  0.2085  0.2932
  170SOPE  H15X19267   3.400   6.542   8.134 -0.7810  1.3300 -1.7798
  170SOPE  H15Y19268   3.280   6.406   8.161  0.7173  0.2775 -1.0979
  170SOPE  C31619269   3.271   6.548   8.319  0.5512  0.2519  0.8696
  170SOPE  H16X19270   3.176   6.495   8.343  0.7283 -0.2679  0.4143
  170SOPE  H16Y19271   3.263   6.657   8.342  2.7450  0.4074  1.1035
  170SOPE  C31719272   3.395   6.510   8.408 -0.1791  0.0182  0.4609
  170SOPE  H17X19273   3.395   6.568   8.502  0.9682 -1.9535  1.7478
  170SOPE  H17Y19274   3.488   6.532   8.351 -0.8105 -0.5263 -0.8142
  170SOPE  C31819275   3.390   6.364   8.435 -0.1602  0.3095 -0.2925
  170SOPE  H18X19276   3.303   6.356   8.503 -0.0114  0.7271 -0.0522
  170SOPE  H18Y19277   3.484   6.337   8.487 -1.0948 -0.1343  1.2134
  170SOPE  H18Z19278   3.383   6.315   8.335  2.8926 -0.6984 -0.1265
  171SOPE     N19279   2.357   1.924   6.404  0.2705 -0.5530  0.5098
  171SOPE   HN119280   2.446   1.978   6.399  0.2588 -0.5771 -0.0128
  171SOPE   HN219281   2.357   1.843   6.469  2.7797 -0.4224  0.7772
  171SOPE   HN319282   2.337   1.895   6.306 -3.5017  3.2901 -0.1705
  171SOPE   C1219283   2.246   2.022   6.455 -0.0030  0.0268  0.3449
  171SOPE  H12A19284   2.234   2.098   6.375  0.6334  0.0183  0.2339
  171SOPE  H12B19285   2.283   2.075   6.546 -2.7298  2.1249  0.3738
  171SOPE   C1119286   2.114   1.956   6.475  0.2403  0.3012  0.2172
  171SOPE  H11A19287   2.039   2.038   6.471  0.5210  0.5419 -3.2306
  171SOPE  H11B19288   2.102   1.904   6.573  3.3292  1.4930  1.3475
  171SOPE     P19289   1.985   1.893   6.258  0.1379  0.2564 -0.5317
  171SOPE   O1319290   1.997   1.778   6.164  0.6392  0.4204  0.2932
  171SOPE   O1419291   2.017   2.020   6.187 -0.0126  0.3800 -0.5618
  171SOPE   O1219292   2.094   1.864   6.368  0.4166  0.9245  0.7498
  171SOPE   O1119293   1.856   1.900   6.340 -0.3503 -0.2535  0.4141
  171SOPE    C119294   1.796   1.789   6.409  0.2376  0.7370 -0.5583
  171SOPE    HA19295   1.872   1.727   6.460 -1.1991  0.9320  2.0130
  171SOPE    HB19296   1.741   1.718   6.344 -1.9550  0.2648  1.6449
  171SOPE    C219297   1.695   1.838   6.513  0.5525  0.2818 -0.4673
  171SOPE    HS19298   1.634   1.908   6.452 -1.3412  0.6256  1.7150
  171SOPE   O2119299   1.778   1.903   6.612  0.4838  0.3665 -0.0461
  171SOPE   C2119300   1.722   1.989   6.696 -0.8922 -0.4197  0.3966
  171SOPE   O2219301   1.608   2.030   6.678 -0.6662 -0.2640 -0.0230
  171SOPE   C2219302   1.836   2.043   6.785  0.7213 -0.6773 -0.3939
  171SOPE   H2R19303   1.848   2.152   6.766 -0.8226  0.1444  2.7016
  171SOPE   H2S19304   1.931   1.990   6.760  0.3025 -1.2042 -0.9056
  171SOPE    C319305   1.608   1.725   6.571  0.5999  0.1796 -0.6633
  171SOPE    HX19306   1.547   1.675   6.492 -0.2370 -0.5679  0.4348
  171SOPE    HY19307   1.540   1.781   6.638  0.3759 -0.1489 -0.6122
  171SOPE   O3119308   1.690   1.633   6.634 -0.1156  0.6727 -0.0785
  171SOPE   C3119309   1.715   1.639   6.769 -0.5015  0.1588  0.4555
  171SOPE   O3219310   1.669   1.725   6.841  0.3266 -0.0798 -0.0911
  171SOPE   C3219311   1.802   1.519   6.810  0.1311 -0.6995  0.4982
  171SOPE   H2X19312   1.895   1.522   6.749 -1.3229 -1.2893 -1.8780
  171SOPE   H2Y19313   1.741   1.431   6.781  2.2609 -1.6328 -1.5479
  171SOPE   C2319314   1.818   2.027   6.942 -0.2034 -0.5749 -0.1802
  171SOPE   H3R19315   1.825   1.917   6.958 -2.4230 -0.6858  0.3872
  171SOPE   H3S19316   1.724   2.081   6.967  0.9803  2.2237 -1.3956
  171SOPE   C2419317   1.935   2.100   7.019 -0.0383 -0.4970  0.6889
  171SOPE   H4R19318   1.926   2.205   6.985  0.6115 -0.5365  0.3816
  171SOPE   H4S19319   1.916   2.087   7.128  1.6195  1.6863  1.2987
  171SOPE   C2519320   2.071   2.037   7.000 -0.9980 -0.4894 -0.6500
  171SOPE   H5R19321   2.089   1.931   7.029  0.8638 -0.7332 -2.5203
  171SOPE   H5S19322   2.090   2.041   6.891  0.3358  1.0918 -0.3906
  171SOPE   C2619323   2.178   2.124   7.074  0.4749 -0.7259  0.2438
  171SOPE   H6R19324   2.172   2.230   7.040 -3.8747 -0.5020  1.0902
  171SOPE   H6S19325   2.141   2.120   7.179 -0.0599  0.9493  0.1511
  171SOPE   C2719326   2.328   2.081   7.048  0.7466 -0.3976  0.1124
  171SOPE   H7R19327   2.333   1.970   7.046  1.1272 -0.4084 -3.1167
  171SOPE   H7S19328   2.357   2.124   6.950 -2.1549 -0.0337 -0.6592
  171SOPE   C2819329   2.430   2.125   7.153  0.2121 -0.0410 -0.1373
  171SOPE   H8R19330   2.408   2.087   7.255 -1.9949  1.2862 -0.0409
  171SOPE   H8S19331   2.532   2.092   7.128  0.8000  1.3374  0.3217
  171SOPE   C2919332   2.450   2.276   7.152  0.2092 -0.1219 -0.3974
  171SOPE   H9119333   2.431   2.336   7.062  0.6479 -1.4558 -1.3975
  171SOPE  C21019334   2.495   2.357   7.247 -0.2716 -0.2688 -0.5357
  171SOPE  H10119335   2.517   2.464   7.234 -0.5345 -0.1601 -0.0778
  171SOPE  C21119336   2.537   2.321   7.385 -1.0207 -0.0090  0.1456
  171SOPE  H11R19337   2.647   2.339   7.381 -0.4827 -2.9395 -0.3700
  171SOPE  H11S19338   2.519   2.212   7.397  3.6289 -1.1167 -1.0237
  171SOPE  C21219339   2.450   2.386   7.491  0.0574 -0.0407 -0.2556
  171SOPE  H12R19340   2.350   2.359   7.451 -0.6923 -0.6980  1.9582
  171SOPE  H12S19341   2.446   2.496   7.500 -0.0971 -0.1709  1.4677
  171SOPE  C21319342   2.469   2.326   7.633  0.1741 -0.0756  0.3030
  171SOPE  H13R19343   2.563   2.374   7.666  1.2927 -0.2331 -2.3573
  171SOPE  H13S19344   2.489   2.217   7.627  0.1013 -0.4223  4.1606
  171SOPE  C21419345   2.353   2.340   7.733 -0.1347  0.3546 -0.0881
  171SOPE  H14R19346   2.263   2.295   7.687  0.0957 -1.2928  1.0090
  171SOPE  H14S19347   2.327   2.447   7.749  1.1530  0.5506  0.8555
  171SOPE  C21519348   2.380   2.271   7.868 -0.0877  0.7828 -0.3118
  171SOPE  H15R19349   2.425   2.172   7.846 -2.9889 -0.6887 -0.1719
  171SOPE  H15S19350   2.283   2.256   7.920  0.8325  0.9976  1.5592
  171SOPE  C21619351   2.465   2.348   7.977 -0.1186  0.7165 -0.0187
  171SOPE  H16R19352   2.564   2.370   7.932  0.4206  2.9159  2.0386
  171SOPE  H16S19353   2.493   2.277   8.057  1.2016  1.2131 -0.0182
  171SOPE  C21719354   2.403   2.480   8.027  0.1318 -0.3841  0.1791
  171SOPE  H17R19355   2.294   2.471   8.010 -0.0707 -0.2554  1.3132
  171SOPE  H17S19356   2.440   2.562   7.963  0.2035 -0.5510  0.0038
  171SOPE  C21819357   2.443   2.519   8.176 -0.2825 -0.2044  0.5410
  171SOPE  H18R19358   2.416   2.440   8.249  0.6217 -0.4900  0.5867
  171SOPE  H18S19359   2.409   2.621   8.204  3.3993  2.0484 -2.2042
  171SOPE  H18T19360   2.554   2.511   8.167 -0.2849 -4.2284  2.1367
  171SOPE   C3319361   1.821   1.501   6.958 -0.0385 -0.2145  0.3013
  171SOPE   H3X19362   1.845   1.395   6.980 -1.5840 -1.0001 -1.5337
  171SOPE   H3Y19363   1.727   1.528   7.011 -1.1860 -1.0633 -1.2267
  171SOPE   C3419364   1.924   1.601   7.029 -0.7434  0.3649  0.1351
  171SOPE   H4X19365   1.895   1.702   6.994 -0.0745  0.2573 -0.7510
  171SOPE   H4Y19366   2.029   1.579   7.002 -0.1025 -0.3564  2.8362
  171SOPE   C3519367   1.927   1.613   7.190  0.4425  0.0531  0.5979
  171SOPE   H5X19368   1.924   1.514   7.240 -0.0210 -0.4605 -0.4318
  171SOPE   H5Y19369   1.824   1.655   7.202  0.8469  0.9485  1.0299
  171SOPE   C3619370   2.034   1.712   7.252  0.6088 -0.4523  0.3019
  171SOPE   H6X19371   2.034   1.800   7.185 -1.8109 -1.0224 -0.5285
  171SOPE   H6Y19372   2.129   1.655   7.236  0.8953  0.0910  0.0374
  171SOPE   C3719373   2.015   1.733   7.396 -0.3072  0.1505 -0.5533
  171SOPE   H7X19374   2.110   1.778   7.433 -0.1931 -0.9628  0.5960
  171SOPE   H7Y19375   2.000   1.641   7.456  0.1831 -0.8882 -1.9795
  171SOPE   C3819376   1.905   1.838   7.443  0.0778  0.5472  0.1961
  171SOPE   H8X19377   1.816   1.772   7.447  0.7602 -0.3425  1.6691
  171SOPE   H8Y19378   1.891   1.917   7.367  1.3835 -0.0786 -0.7331
  171SOPE   C3919379   1.929   1.909   7.573 -0.4091  0.1616 -0.8585
  171SOPE   H9X19380   1.867   2.001   7.582  1.8405  1.6785  0.1258
  171SOPE   H9Y19381   2.031   1.953   7.576 -0.7264  1.0238 -1.9292
  171SOPE  C31019382   1.931   1.820   7.700  0.3073  0.3875 -0.0938
  171SOPE  H10X19383   1.994   1.729   7.689 -0.4985 -0.3750  1.2718
  171SOPE  H10Y19384   1.829   1.779   7.716  0.6989 -0.9196 -0.7557
  171SOPE  C31119385   1.982   1.898   7.822 -0.2260  0.3832 -0.2411
  171SOPE  H11X19386   1.913   1.982   7.845 -0.5738  0.2540 -0.8132
  171SOPE  H11Y19387   2.078   1.952   7.805 -1.2231  2.1631 -0.4991
  171SOPE  C31219388   1.997   1.806   7.942  0.3466  0.1714 -0.1989
  171SOPE  H12X19389   2.092   1.845   7.985 -0.1834  1.2280  0.0514
  171SOPE  H12Y19390   2.012   1.699   7.915  3.5748  0.2474  0.8370
  171SOPE  C31319391   1.877   1.825   8.041 -0.4443 -0.6145  0.1251
  171SOPE  H13X19392   1.781   1.806   7.988 -0.6973  1.1905 -0.1495
  171SOPE  H13Y19393   1.868   1.932   8.070 -2.8673 -0.8388  0.4167
  171SOPE  C31419394   1.872   1.723   8.156 -0.6475 -0.1269  0.2514
  171SOPE  H14X19395   1.956   1.740   8.228 -1.7978  0.3746  1.5278
  171SOPE  H14Y19396   1.896   1.623   8.114  2.1489 -0.0159  1.3269
  171SOPE  C31519397   1.752   1.730   8.246 -0.2478  0.2537  0.4278
  171SOPE  H15X19398   1.717   1.834   8.264 -0.5629  0.3872 -0.8062
  171SOPE  H15Y19399   1.772   1.682   8.344  0.6742 -1.9068 -0.7441
  171SOPE  C31619400   1.633   1.647   8.198  0.3433  0.0555  0.5737
  171SOPE  H16X19401   1.671   1.542   8.195 -0.4647 -0.5246  4.6054
  171SOPE  H16Y19402   1.600   1.659   8.092 -1.0888 -1.7757  0.7606
  171SOPE  C31719403   1.518   1.658   8.294 -0.1776  0.0791  0.7141
  171SOPE  H17X19404   1.426   1.610   8.255 -0.2999 -0.9341  2.1564
  171SOPE  H17Y19405   1.488   1.764   8.308 -1.0215  0.2090 -1.5597
  171SOPE  C31819406   1.536   1.598   8.434  0.4990 -0.0112  0.9585
  171SOPE  H18X19407   1.439   1.598   8.488  0.1858 -0.7196  0.4047
  171SOPE  H18Y19408   1.617   1.642   8.496  1.5914 -3.3448  2.1078
  171SOPE  H18Z19409   1.559   1.490   8.426 -2.2413 -0.5800 -0.2764
  172SOPE     N19410   1.643   4.947   6.486  0.2979  0.5204  0.5703
  172SOPE   HN119411   1.547   4.934   6.447  0.5754 -0.7078  0.2397
  172SOPE   HN219412   1.678   5.042   6.463 -0.0452  0.8202  1.2745
  172SOPE   HN319413   1.698   4.877   6.432 -2.0335 -0.6105 -0.5321
  172SOPE   C1219414   1.649   4.933   6.638  0.2809  0.3256  0.1813
  172SOPE  H12A19415   1.635   4.825   6.657 -0.4650  0.1219 -1.3692
  172SOPE  H12B19416   1.578   5.006   6.683  0.8247  1.3329 -0.5480
  172SOPE   C1119417   1.789   4.971   6.692 -0.5757 -0.2021 -0.1091
  172SOPE  H11A19418   1.865   4.929   6.623 -1.3151 -0.8437 -0.5567
  172SOPE  H11B19419   1.802   4.928   6.793 -1.6141  1.2792  0.6959
  172SOPE     P19420   1.882   5.189   6.602  0.3254  0.0979  0.1152
  172SOPE   O1319421   1.879   5.332   6.630 -0.0277  0.2987  0.4672
  172SOPE   O1419422   1.836   5.147   6.463  0.0704 -0.1353 -0.3407
  172SOPE   O1219423   1.796   5.115   6.720  0.9521 -0.0216  0.3982
  172SOPE   O1119424   2.030   5.135   6.645 -0.0788 -0.4498  0.2862
  172SOPE    C119425   2.088   5.191   6.763  1.0958  0.2739 -0.2391
  172SOPE    HA19426   2.048   5.293   6.783  0.4356 -0.2718  1.4363
  172SOPE    HB19427   2.199   5.199   6.760  1.1325  0.4596  0.9224
  172SOPE    C219428   2.058   5.110   6.900 -0.3462 -0.2509 -0.3486
  172SOPE    HS19429   1.951   5.084   6.908 -0.3179 -0.3500 -0.2846
  172SOPE   O2119430   2.093   5.191   7.011  0.3767 -0.4868  0.0210
  172SOPE   C2119431   2.211   5.229   7.041  0.3018  0.3864  1.2107
  172SOPE   O2219432   2.318   5.204   6.983  0.2532  0.1069 -0.0066
  172SOPE   C2219433   2.203   5.313   7.174  0.0223 -0.0037  0.2032
  172SOPE   H2R19434   2.097   5.317   7.205  0.2259  1.6237  0.7830
  172SOPE   H2S19435   2.241   5.413   7.144 -0.7349  0.0781 -0.5302
  172SOPE    C319436   2.135   4.977   6.906  0.1895 -0.2266 -0.6822
  172SOPE    HX19437   2.238   5.009   6.880  0.3509 -1.0672 -1.1242
  172SOPE    HY19438   2.098   4.908   6.827 -0.3872 -0.0698 -0.5498
  172SOPE   O3119439   2.138   4.923   7.039  0.0590  0.1252 -0.5244
  172SOPE   C3119440   2.026   4.869   7.102 -1.3103 -0.1269 -0.1021
  172SOPE   O3219441   1.914   4.867   7.062  0.1759 -0.7916  0.4984
  172SOPE   C3219442   2.066   4.808   7.242  0.2556  0.1768 -0.0069
  172SOPE   H2X19443   2.167   4.762   7.231 -1.3361 -3.4355 -0.8711
  172SOPE   H2Y19444   1.985   4.734   7.260  0.4152  0.4516  2.1800
  172SOPE   C2319445   2.298   5.235   7.272  0.7779 -0.5754  0.0303
  172SOPE   H3R19446   2.396   5.215   7.223  1.0974 -3.8802  1.7679
  172SOPE   H3S19447   2.251   5.135   7.279 -1.7059  0.6168  2.1199
  172SOPE   C2419448   2.317   5.287   7.414  0.1754 -0.4426 -0.3324
  172SOPE   H4R19449   2.366   5.387   7.408  1.3308 -1.0476 -1.6104
  172SOPE   H4S19450   2.227   5.312   7.473  1.4252 -0.2471  1.5673
  172SOPE   C2519451   2.391   5.187   7.502  0.3793 -0.4331 -0.2981
  172SOPE   H5R19452   2.359   5.083   7.482 -2.1251 -0.2930  2.2781
  172SOPE   H5S19453   2.501   5.198   7.485  0.2798 -1.2983 -1.6336
  172SOPE   C2619454   2.360   5.203   7.651  0.6295 -0.3166 -0.8093
  172SOPE   H6R19455   2.251   5.201   7.673  0.8570 -4.6390  0.8503
  172SOPE   H6S19456   2.401   5.112   7.700 -0.0715 -1.7302 -2.7020
  172SOPE   C2719457   2.419   5.328   7.698  0.1859 -0.7828  0.0813
  172SOPE   H7R19458   2.529   5.316   7.708  0.1155 -2.0630 -0.6187
  172SOPE   H7S19459   2.392   5.408   7.626 -1.2859 -0.8509  0.5395
  172SOPE   C2819460   2.368   5.368   7.836 -0.2493 -0.0341 -0.3944
  172SOPE   H8R19461   2.412   5.468   7.859  1.1210 -0.5607 -0.6107
  172SOPE   H8S19462   2.260   5.387   7.823 -0.1676  0.7761  0.0580
  172SOPE   C2919463   2.394   5.262   7.944  0.5465 -0.1639  0.4693
  172SOPE   H9119464   2.403   5.157   7.914  0.2999 -0.4021  1.2067
  172SOPE  C21019465   2.407   5.287   8.075  1.0753 -0.0720 -0.4634
  172SOPE  H10119466   2.395   5.202   8.144  0.8866  0.4852  0.2022
  172SOPE  C21119467   2.395   5.421   8.134  0.6711  0.4760 -0.2070
  172SOPE  H11R19468   2.304   5.435   8.197  0.5749  1.4229 -0.5519
  172SOPE  H11S19469   2.392   5.506   8.063 -0.4997 -1.6760 -2.9216
  172SOPE  C21219470   2.504   5.453   8.224 -0.4130 -0.1001  0.1066
  172SOPE  H12R19471   2.507   5.554   8.269  2.1344  0.5204 -1.2324
  172SOPE  H12S19472   2.597   5.447   8.163 -0.2869 -1.8290  0.4104
  172SOPE  C21319473   2.518   5.353   8.340  0.1455 -0.0729 -0.7094
  172SOPE  H13R19474   2.541   5.251   8.302 -0.9990 -1.2241  1.4861
  172SOPE  H13S19475   2.420   5.355   8.393  0.7806  0.2220  0.4989
  172SOPE  C21419476   2.621   5.384   8.449  0.2677 -0.1197  0.3523
  172SOPE  H14R19477   2.626   5.493   8.474  0.7278  0.2850 -1.3983
  172SOPE  H14S19478   2.720   5.361   8.404 -0.2685 -0.8629 -0.4704
  172SOPE  C21519479   2.604   5.301   8.578  0.1755 -0.0648 -0.2329
  172SOPE  H15R19480   2.609   5.192   8.557 -0.9566 -0.3778  0.9700
  172SOPE  H15S19481   2.504   5.322   8.622  0.3559  0.0180  0.1505
  172SOPE  C21619482   2.706   5.334   8.688  0.2835 -0.3238 -0.1977
  172SOPE  H16R19483   2.717   5.445   8.696  0.7131 -0.2332 -1.6949
  172SOPE  H16S19484   2.807   5.302   8.657 -0.2574 -1.4192 -0.8938
  172SOPE  C21719485   2.651   5.269   8.813 -0.6437  0.4634 -0.1568
  172SOPE  H17R19486   2.633   5.162   8.792 -1.0202  0.4571  0.1707
  172SOPE  H17S19487   2.548   5.306   8.834 -0.7787 -0.3156  0.5824
  172SOPE  C21819488   2.733   5.290   8.943 -0.5949 -0.0890  0.3999
  172SOPE  H18R19489   2.740   5.398   8.965 -2.7552  0.0320  0.7128
  172SOPE  H18S19490   2.831   5.238   8.932 -0.2276  0.4314  1.1313
  172SOPE  H18T19491   2.686   5.232   9.026 -1.2961 -1.3063 -0.8075
  172SOPE   C3319492   2.062   4.913   7.352  0.3387 -0.0247 -0.4660
  172SOPE   H3X19493   1.955   4.940   7.363  0.4890 -0.1095  1.8692
  172SOPE   H3Y19494   2.111   5.010   7.328  1.0629 -0.5927 -1.3370
  172SOPE   C3419495   2.119   4.865   7.483  0.1988 -0.3058 -0.5335
  172SOPE   H4X19496   2.227   4.874   7.458  0.4977  1.1198  1.0719
  172SOPE   H4Y19497   2.080   4.765   7.510  0.5423 -0.3711 -0.2608
  172SOPE   C3519498   2.093   4.960   7.608 -0.3084 -0.2909 -0.0978
  172SOPE   H5X19499   1.983   4.977   7.613 -0.4145 -1.0333  0.3643
  172SOPE   H5Y19500   2.143   5.057   7.590 -0.3261 -0.0656  0.9754
  172SOPE   C3619501   2.137   4.897   7.742 -0.6257 -0.1836 -0.4565
  172SOPE   H6X19502   2.245   4.872   7.743 -1.0469 -2.1378  0.0061
  172SOPE   H6Y19503   2.077   4.803   7.744  1.2956 -1.4575  0.7627
  172SOPE   C3719504   2.112   4.983   7.864 -0.2083  0.0967  0.0260
  172SOPE   H7X19505   2.005   4.993   7.894 -0.0243  1.5191  0.2896
  172SOPE   H7Y19506   2.148   5.086   7.841 -2.2736  1.3568  2.0129
  172SOPE   C3819507   2.184   4.932   7.992  0.4813 -0.1368 -0.7041
  172SOPE   H8X19508   2.293   4.943   7.971  1.6750 -1.7369  3.4763
  172SOPE   H8Y19509   2.159   4.824   7.999  1.0412 -0.1890  1.2033
  172SOPE   C3919510   2.146   4.994   8.132 -0.2411 -0.6684 -0.0458
  172SOPE   H9X19511   2.048   4.955   8.164  0.1151 -0.6171  1.1465
  172SOPE   H9Y19512   2.153   5.103   8.114  1.5001 -0.4935  1.3938
  172SOPE  C31019513   2.255   4.956   8.242 -0.5994  0.5592 -0.1535
  172SOPE  H10X19514   2.355   4.995   8.215 -0.0566 -0.3044  0.5627
  172SOPE  H10Y19515   2.254   4.845   8.240 -3.8382  0.4832  0.2671
  172SOPE  C31119516   2.218   4.990   8.387 -0.0603 -0.4119  0.3074
  172SOPE  H11X19517   2.119   4.946   8.409 -0.7869 -0.1784 -2.1969
  172SOPE  H11Y19518   2.190   5.097   8.372 -1.4456 -0.9488 -1.1781
  172SOPE  C31219519   2.322   4.965   8.491  0.1670  0.9421  0.4137
  172SOPE  H12X19520   2.412   5.026   8.470  1.3737 -1.4083 -1.8309
  172SOPE  H12Y19521   2.348   4.857   8.485  0.4993  1.0116  0.6296
  172SOPE  C31319522   2.266   4.992   8.632 -0.3881 -0.4919 -0.5891
  172SOPE  H13X19523   2.175   4.931   8.653  0.1137 -0.8616  0.5478
  172SOPE  H13Y19524   2.233   5.098   8.636 -0.0265 -0.4079  0.7487
  172SOPE  C31419525   2.368   4.979   8.749 -0.0256  0.9409  0.3754
  172SOPE  H14X19526   2.457   5.044   8.732  0.5211  0.2421  0.5266
  172SOPE  H14Y19527   2.418   4.880   8.746  0.0703  0.9756  0.7560
  172SOPE  C31519528   2.297   5.013   8.878 -0.0906 -0.1100 -0.0944
  172SOPE  H15X19529   2.228   4.930   8.901 -1.8335  1.4688  0.6884
  172SOPE  H15Y19530   2.236   5.106   8.871 -1.2267 -0.8256  0.1333
  172SOPE  C31619531   2.401   5.037   8.983  0.5790 -0.5107 -0.3454
  172SOPE  H16X19532   2.460   5.131   8.979  0.7900 -0.4892  1.9537
  172SOPE  H16Y19533   2.477   4.956   8.983 -0.0686 -1.2353  2.3764
  172SOPE  C31719534   2.340   5.020   9.127 -0.7419  0.2102  0.3570
  172SOPE  H17X19535   2.268   4.936   9.128  0.0855 -0.5168 -0.2148
  172SOPE  H17Y19536   2.285   5.116   9.141 -1.0773  0.5999 -2.9404
  172SOPE  C31819537   2.441   5.000   9.235 -0.0982 -1.1903  0.0090
  172SOPE  H18X19538   2.462   4.891   9.242 -0.1668 -1.3027 -1.3020
  172SOPE  H18Y19539   2.414   5.045   9.333 -0.5250  0.4596 -0.8340
  172SOPE  H18Z19540   2.527   5.063   9.203 -0.7434 -0.0636  0.4479
  173SAPI   C1219541   4.540   1.567  10.723 -0.3124  0.0622  0.0447
  173SAPI    H219542   4.449   1.538  10.667 -0.3236  2.9606 -1.6396
  173SAPI    O219543   4.645   1.605  10.636 -0.0224  0.2509 -0.2511
  173SAPI   HO219544   4.712   1.540  10.618  1.2339  2.0053 -2.5625
  173SAPI   C1319545   4.504   1.692  10.810 -0.0959  0.2016 -0.0265
  173SAPI    H319546   4.418   1.661  10.873 -1.8001  0.8787 -1.9086
  173SAPI    O319547   4.444   1.794  10.731  0.4971 -0.1055 -0.5303
  173SAPI   HO319548   4.354   1.801  10.761 -0.1804  1.6361 -2.6748
  173SAPI   C1419549   4.619   1.736  10.899  0.3366 -0.3791  0.2754
  173SAPI    H419550   4.701   1.771  10.832 -0.5097  0.0228 -0.5733
  173SAPI    O419551   4.581   1.851  10.976  0.7803  0.1126 -0.0922
  173SAPI   HO419552   4.586   1.936  10.932  1.1124  0.9202  1.4352
  173SAPI   C1519553   4.664   1.618  10.988 -0.3453  0.0245 -0.2941
  173SAPI    H519554   4.590   1.588  11.065  1.0240  0.1954  1.1518
  173SAPI    O519555   4.773   1.664  11.065  0.9854 -0.4286 -1.1184
  173SAPI   HO519556   4.788   1.580  11.111 -0.9165  0.5371  1.4932
  173SAPI   C1619557   4.698   1.492  10.902  0.0055  0.7560  0.4741
  173SAPI    H619558   4.787   1.510  10.839 -0.6860 -1.3528 -1.2342
  173SAPI    O619559   4.733   1.388  10.991  0.3113  0.0355 -0.5995
  173SAPI   HO619560   4.739   1.311  10.935 -0.6050  1.2573 -2.4953
  173SAPI   C1119561   4.586   1.449  10.810 -0.1440 -0.4139  0.6481
  173SAPI    H119562   4.494   1.434  10.871  1.4053  1.9505  3.8403
  173SAPI     P19563   4.560   1.198  10.743  0.2690 -0.0071  0.3071
  173SAPI   O1319564   4.413   1.214  10.744  0.0644  0.0222 -0.4755
  173SAPI   O1419565   4.631   1.146  10.863 -0.5561  0.0684  0.0143
  173SAPI   O1219566   4.630   1.344  10.717  0.5056 -0.5607  0.0088
  173SAPI   O1119567   4.600   1.114  10.611 -0.1454  0.3642 -0.4773
  173SAPI    C119568   4.659   1.186  10.501  0.2286  0.1915  0.0815
  173SAPI    HA19569   4.747   1.244  10.535 -0.6624 -0.6000  4.1712
  173SAPI    HB19570   4.707   1.118  10.428  2.3661  2.2133 -0.5213
  173SAPI    C219571   4.559   1.287  10.424  0.1038  0.5721 -0.0355
  173SAPI    HS19572   4.520   1.359  10.498  0.2008  2.3345 -1.6168
  173SAPI   O2119573   4.453   1.206  10.370  0.0535 -0.5400 -0.3775
  173SAPI   C2119574   4.340   1.270  10.360 -0.1175  0.3854 -0.1634
  173SAPI   O2219575   4.310   1.389  10.386  0.2299  0.6320  0.8318
  173SAPI   C2219576   4.245   1.170  10.289  0.4888  0.0894  0.1458
  173SAPI   H2R19577   4.260   1.069  10.334 -0.2347  0.2708  0.8119
  173SAPI   H2S19578   4.145   1.203  10.324  0.3092 -0.3386  0.0403
  173SAPI    C319579   4.637   1.368  10.317  0.3362 -0.2751 -0.7500
  173SAPI    HX19580   4.697   1.295  10.259  1.3021 -0.1702  0.0921
  173SAPI    HY19581   4.706   1.435  10.373 -1.4768 -0.9576  2.5651
  173SAPI   O3119582   4.554   1.424  10.212 -0.2211 -0.1440 -0.4085
  173SAPI   C3119583   4.522   1.551  10.236 -0.0310 -0.4357 -0.6931
  173SAPI   O3219584   4.568   1.615  10.330  1.1478  0.0773 -0.2355
  173SAPI   C3219585   4.423   1.594  10.129  0.4074 -0.8683 -0.1404
  173SAPI   H2X19586   4.369   1.686  10.160  0.1916 -0.5659 -1.3518
  173SAPI   H2Y19587   4.360   1.507  10.103  0.4714 -0.5064 -1.6110
  173SAPI   C2319588   4.258   1.169  10.137  0.0587  0.4955 -0.3182
  173SAPI   H3R19589   4.350   1.109  10.121  0.0080 -0.5799  2.7351
  173SAPI   H3S19590   4.276   1.274  10.106 -1.3894 -0.0816 -3.5959
  173SAPI   C2419591   4.127   1.125  10.059 -0.9453 -0.1425 -0.3991
  173SAPI   H4R19592   4.122   1.023  10.101  1.5671 -0.3645 -0.4815
  173SAPI   H4S19593   4.159   1.117   9.952  0.7585 -0.0669  0.0706
  173SAPI   C2519594   3.995   1.201  10.069  0.4120  0.2949 -0.2371
  173SAPI   H5R19595   3.925   1.171  10.149 -0.1347 -0.3238 -0.9299
  173SAPI   C2619596   3.959   1.304   9.994  0.5629 -0.8152  0.4891
  173SAPI   H6R19597   3.858   1.345  10.010  0.2704 -2.0450  1.9837
  173SAPI   C2719598   4.050   1.372   9.888 -0.3294 -0.1089 -0.9904
  173SAPI   H7R19599   4.076   1.299   9.807 -0.1958 -0.6995 -0.4274
  173SAPI   H7S19600   4.150   1.383   9.937 -1.4225  0.3174  1.2573
  173SAPI   C2819601   4.006   1.504   9.833 -0.0672  0.3847  0.9739
  173SAPI   H8R19602   3.966   1.576   9.906  0.2655  2.1156 -0.4808
  173SAPI   C2919603   4.019   1.540   9.701  0.2259  0.3448 -0.0954
  173SAPI   H9R19604   3.996   1.647   9.685 -0.6267 -0.1581 -2.8630
  173SAPI  C21019605   4.059   1.458   9.578 -0.0481 -0.0825 -0.3563
  173SAPI  H10R19606   3.971   1.403   9.537  0.3557 -0.0579 -1.2889
  173SAPI  H10S19607   4.130   1.376   9.603  1.4027  0.8485 -1.2236
  173SAPI  C21119608   4.130   1.547   9.472 -0.5604 -0.2391 -0.0006
  173SAPI  H11R19609   4.233   1.572   9.499 -0.9280  1.6885 -0.2813
  173SAPI  C21219610   4.091   1.582   9.350  0.4003  0.7164 -0.0594
  173SAPI  H12R19611   4.169   1.631   9.290  0.7669  1.7722  1.2323
  173SAPI  C21319612   3.962   1.543   9.282 -0.2539  0.2409  0.2132
  173SAPI  H13R19613   3.881   1.503   9.346 -1.6419  1.6065 -0.6202
  173SAPI  H13S19614   3.985   1.460   9.212 -2.0701  0.7728 -1.0858
  173SAPI  C21419615   3.923   1.665   9.200  0.3990  0.8821 -0.0236
  173SAPI  H14R19616   3.885   1.747   9.262 -3.6286  0.3759 -1.4970
  173SAPI  C21519617   3.927   1.680   9.066  0.3279  0.5463  0.4763
  173SAPI  H15R19618   3.881   1.766   9.016 -0.9213 -0.9228 -1.0503
  173SAPI  C21619619   3.983   1.581   8.960  0.2102  0.0193  0.0226
  173SAPI  H16R19620   3.898   1.538   8.902 -1.1157  2.0469  0.3741
  173SAPI  H16S19621   4.034   1.489   8.996  0.6238  1.0675  2.2440
  173SAPI  C21719622   4.077   1.661   8.877 -0.3704  0.1614  0.7456
  173SAPI  H17R19623   4.162   1.703   8.933  0.2917 -1.5520  1.0741
  173SAPI  H17S19624   4.023   1.737   8.816 -0.5996 -1.2107 -0.8587
  173SAPI  C21819625   4.143   1.569   8.776 -0.3503  0.3727 -0.4846
  173SAPI  H18R19626   4.075   1.513   8.707 -0.5362  0.2513 -0.2063
  173SAPI  H18S19627   4.191   1.494   8.842  0.7341  0.6585 -0.9315
  173SAPI  C21919628   4.234   1.643   8.682 -0.2520  0.4397  0.4885
  173SAPI  H19R19629   4.283   1.724   8.740 -0.6908  0.5392  0.7220
  173SAPI  H19S19630   4.179   1.698   8.602 -0.1056 -1.6444 -1.1278
  173SAPI  C22019631   4.335   1.557   8.604 -0.5559 -0.0304  0.1692
  173SAPI  H20R19632   4.404   1.505   8.673 -1.3615  2.5845  3.1398
  173SAPI  H20S19633   4.397   1.624   8.539 -2.6034  0.6813 -1.1462
  173SAPI  H20T19634   4.279   1.479   8.549 -3.2890  2.6318 -1.1276
  173SAPI   C3319635   4.486   1.622   9.998  0.7143 -0.0051  0.7220
  173SAPI   H3X19636   4.528   1.533   9.947  0.8282  0.8104 -0.6347
  173SAPI   H3Y19637   4.572   1.690  10.014  1.9281 -1.5439  1.0303
  173SAPI   C3419638   4.394   1.701   9.902 -0.0964 -0.8972 -0.1102
  173SAPI   H4X19639   4.387   1.802   9.946  0.1872 -0.8743 -0.1168
  173SAPI   H4Y19640   4.290   1.661   9.897  0.0601 -1.1601 -1.7996
  173SAPI   C3519641   4.470   1.727   9.760 -0.0192  0.5846 -0.3439
  173SAPI   H5X19642   4.472   1.622   9.721  0.8210  0.6777 -0.5660
  173SAPI   H5Y19643   4.574   1.752   9.788 -0.0028 -1.4301  1.7557
  173SAPI   C3619644   4.395   1.818   9.662 -0.3394  0.2776  0.7841
  173SAPI   H6X19645   4.363   1.905   9.723 -1.7733 -0.1604  0.6983
  173SAPI   H6Y19646   4.300   1.766   9.638 -0.5901  0.6839  0.9075
  173SAPI   C3719647   4.476   1.851   9.537 -0.2310  1.0793  0.5606
  173SAPI   H7X19648   4.531   1.758   9.511  1.6571  1.7513  1.9025
  173SAPI   H7Y19649   4.557   1.922   9.563  1.9280 -0.7711 -0.7418
  173SAPI   C3819650   4.380   1.899   9.435 -0.2889 -0.1171  0.1896
  173SAPI   H8X19651   4.317   1.974   9.487  0.7764  0.6978  0.3379
  173SAPI   H8Y19652   4.309   1.819   9.406 -0.2292 -0.2682  0.4543
  173SAPI   C3919653   4.445   1.959   9.313  0.0754  0.3292  0.3059
  173SAPI   H9X19654   4.533   1.898   9.284 -1.2920 -0.9153 -1.4541
  173SAPI   H9Y19655   4.486   2.059   9.337  1.3076 -0.7044  2.9509
  173SAPI  C31019656   4.353   1.978   9.193  0.3027 -0.1483  0.0186
  173SAPI  H10X19657   4.266   2.044   9.214  0.5660 -0.0186  0.7204
  173SAPI  H10Y19658   4.319   1.874   9.177 -0.6886 -0.0223  1.1968
  173SAPI  C31119659   4.435   2.028   9.069 -0.1354  0.1263 -0.4534
  173SAPI  H11X19660   4.529   1.969   9.066 -0.6670 -0.7143 -2.2324
  173SAPI  H11Y19661   4.458   2.135   9.085  1.4490 -0.1643 -0.6604
  173SAPI  C31219662   4.352   2.024   8.943 -0.1296  0.7633  0.0081
  173SAPI  H12X19663   4.278   2.106   8.949 -0.6943  0.3741 -1.2013
  173SAPI  H12Y19664   4.298   1.928   8.931  0.1904  0.3985  1.3329
  173SAPI  C31319665   4.447   2.040   8.822 -0.1272 -1.0335 -0.1233
  173SAPI  H13X19666   4.468   1.945   8.768  0.7490 -1.7984  1.4734
  173SAPI  H13Y19667   4.544   2.056   8.875 -0.2924 -1.0204  0.1808
  173SAPI  C31419668   4.395   2.142   8.723 -0.1187  0.5038 -0.5153
  173SAPI  H14X19669   4.480   2.155   8.653  0.2336 -0.7721 -0.3458
  173SAPI  H14Y19670   4.395   2.238   8.780  0.9179  1.2474 -1.7087
  173SAPI  C31519671   4.269   2.111   8.653 -0.5753 -0.1034 -0.1098
  173SAPI  H15X19672   4.182   2.122   8.721 -1.5140  1.9526 -1.5109
  173SAPI  H15Y19673   4.256   2.011   8.607 -0.8962  0.0438 -0.3483
  173SAPI  C31619674   4.234   2.200   8.539  0.7156 -0.6728  0.5813
  173SAPI  H16X19675   4.302   2.178   8.454 -0.3748 -1.7906 -0.0342
  173SAPI  H16Y19676   4.234   2.308   8.563 -1.2138 -1.0640  2.7258
  173SAPI  C31719677   4.088   2.176   8.501  0.4706 -0.0867 -0.1375
  173SAPI  H17X19678   4.024   2.200   8.589 -1.6296  1.1684 -1.9069
  173SAPI  H17Y19679   4.073   2.068   8.481 -0.4640 -0.3013  1.5101
  173SAPI  C31819680   4.027   2.263   8.393  0.3635  1.1051 -0.7422
  173SAPI  H18X19681   4.075   2.235   8.296  0.2810 -2.3167  0.0879
  173SAPI  H18Y19682   4.043   2.372   8.412 -0.1739  1.4031 -1.8782
  173SAPI  H18Z19683   3.919   2.249   8.369  0.3387 -0.1255  0.0126
  174SAPI   C1219684   5.563   2.722  10.765 -0.0738  0.1183  0.5184
  174SAPI    H219685   5.509   2.674  10.681  2.4300 -1.8701 -0.0786
  174SAPI    O219686   5.630   2.837  10.717 -0.0468 -0.2667  0.1856
  174SAPI   HO219687   5.717   2.800  10.700 -0.1830  0.1529 -1.5627
  174SAPI   C1319688   5.460   2.758  10.875  0.0804  0.2539 -0.1161
  174SAPI    H319689   5.409   2.665  10.907 -0.3897 -0.1231 -1.8439
  174SAPI    O319690   5.372   2.858  10.823 -0.2356  0.7162  0.1437
  174SAPI   HO319691   5.280   2.844  10.848 -0.4780 -1.1799 -1.5348
  174SAPI   C1419692   5.534   2.808  11.008  0.7701 -0.0532  0.0944
  174SAPI    H419693   5.589   2.901  10.983 -1.3989  0.7440 -2.1464
  174SAPI    O419694   5.432   2.830  11.108 -0.5175 -0.5199 -0.0426
  174SAPI   HO419695   5.455   2.915  11.148 -1.5401 -0.1965 -0.1101
  174SAPI   C1519696   5.630   2.702  11.053  0.1122  0.2357 -0.0883
  174SAPI    H519697   5.573   2.610  11.078  0.0782  0.7991  2.0707
  174SAPI    O519698   5.697   2.745  11.175 -0.6649  0.4195 -0.0124
  174SAPI   HO519699   5.650   2.816  11.219  0.5748  0.1324  1.9167
  174SAPI   C1619700   5.726   2.665  10.942 -0.2095  0.4004  0.3984
  174SAPI    H619701   5.792   2.750  10.913 -0.2105  0.4811  0.6295
  174SAPI    O619702   5.814   2.560  10.983  0.3058  0.5024  0.1579
  174SAPI   HO619703   5.852   2.531  10.900  1.0897  1.3784  0.1958
  174SAPI   C1119704   5.650   2.615  10.814 -0.0438 -0.5733  0.4032
  174SAPI    H119705   5.587   2.529  10.844  0.9020 -1.8793 -1.2122
  174SAPI     P19706   5.815   2.450  10.663 -0.3777 -0.2671 -0.0754
  174SAPI   O1319707   5.706   2.355  10.632  0.4399 -0.4234 -0.1030
  174SAPI   O1419708   5.929   2.404  10.751  0.0463  0.4013 -0.3728
  174SAPI   O1219709   5.753   2.593  10.713  0.2053  0.1733  0.2111
  174SAPI   O1119710   5.870   2.493  10.520 -0.3529 -0.2698  0.6228
  174SAPI    C119711   5.873   2.630  10.469 -0.4091 -0.0582  0.2668
  174SAPI    HA19712   5.774   2.681  10.462 -0.5235 -0.5074 -2.4385
  174SAPI    HB19713   5.934   2.701  10.529 -0.8750  0.0247  0.6481
  174SAPI    C219714   5.944   2.646  10.325  0.6517  0.4867  0.2440
  174SAPI    HS19715   5.906   2.739  10.280  0.5871  0.8692  1.0756
  174SAPI   O2119716   5.903   2.538  10.239  0.0555  0.1351  0.0134
  174SAPI   C2119717   5.782   2.534  10.209  0.3270  0.1956  0.4660
  174SAPI   O2219718   5.702   2.623  10.233  0.1350  0.1303 -0.2876
  174SAPI   C2219719   5.748   2.425  10.108 -0.8438  0.1670  0.1793
  174SAPI   H2R19720   5.811   2.419  10.017 -0.6868 -0.9696  0.3415
  174SAPI   H2S19721   5.777   2.337  10.170 -0.6438  1.2602  1.6963
  174SAPI    C319722   6.097   2.657  10.348  0.1225 -0.3037 -0.2750
  174SAPI    HX19723   6.116   2.559  10.397 -1.4273  0.3335  1.7667
  174SAPI    HY19724   6.120   2.734  10.425  0.3786  1.5422 -2.1204
  174SAPI   O3119725   6.176   2.684  10.223  0.2257  0.3229  0.5512
  174SAPI   C3119726   6.167   2.813  10.180  0.4417  0.3415  0.8456
  174SAPI   O3219727   6.129   2.904  10.243  0.2561 -0.3008 -0.3467
  174SAPI   C3219728   6.222   2.812  10.032  0.4810  0.0491  0.4208
  174SAPI   H2X19729   6.157   2.739   9.978 -0.5617  1.2288  0.0169
  174SAPI   H2Y19730   6.327   2.778  10.022 -0.0605 -1.3255 -1.1567
  174SAPI   C2319731   5.602   2.435  10.059  0.1756  0.2241 -0.7962
  174SAPI   H3R19732   5.586   2.539  10.023  3.3821  1.0131 -0.2703
  174SAPI   H3S19733   5.528   2.414  10.140 -0.1212  1.9578 -0.5877
  174SAPI   C2419734   5.560   2.320   9.964 -0.1001 -0.1960  0.5657
  174SAPI   H4R19735   5.452   2.295   9.958  0.2156 -1.3688 -0.5458
  174SAPI   H4S19736   5.600   2.233  10.022  1.3840  0.4512  0.5734
  174SAPI   C2519737   5.630   2.341   9.839 -0.1877  0.1367  0.0683
  174SAPI   H5R19738   5.726   2.395   9.836 -0.4779  0.6361 -3.2399
  174SAPI   C2619739   5.586   2.297   9.718  0.1999 -0.0292  0.2309
  174SAPI   H6R19740   5.654   2.319   9.635 -0.1080  0.4038  0.0952
  174SAPI   C2719741   5.463   2.228   9.676 -0.1927  0.6129 -0.1948
  174SAPI   H7R19742   5.400   2.183   9.756  0.4527 -1.5964 -0.8507
  174SAPI   H7S19743   5.493   2.139   9.616  2.7544  0.0301  1.9264
  174SAPI   C2819744   5.375   2.322   9.602  0.5145  0.0608  0.2512
  174SAPI   H8R19745   5.334   2.402   9.666 -0.2069 -0.0812 -0.0236
  174SAPI   C2919746   5.353   2.321   9.471  0.0907 -0.4777  0.1623
  174SAPI   H9R19747   5.289   2.402   9.434  1.9317  0.6057 -0.8066
  174SAPI  C21019748   5.411   2.221   9.373 -0.2676 -0.3346 -0.1870
  174SAPI  H10R19749   5.508   2.174   9.400 -0.7561 -2.1412 -1.3750
  174SAPI  H10S19750   5.448   2.276   9.284  1.4497  0.9676  1.2694
  174SAPI  C21119751   5.296   2.135   9.335 -0.0324  0.1071 -0.5106
  174SAPI  H11R19752   5.225   2.121   9.418  1.6115  2.3665  1.4209
  174SAPI  C21219753   5.277   2.079   9.215 -0.3574  0.5914  0.3873
  174SAPI  H12R19754   5.187   2.018   9.197 -0.2256  0.8646 -1.4130
  174SAPI  C21319755   5.373   2.083   9.099 -0.4531 -0.1024  0.0210
  174SAPI  H13R19756   5.347   2.002   9.028  0.4755  0.8875 -1.5060
  174SAPI  H13S19757   5.476   2.057   9.131 -1.0523 -2.5041  0.2010
  174SAPI  C21419758   5.375   2.216   9.024 -0.1823 -0.6038  0.0196
  174SAPI  H14R19759   5.315   2.294   9.073 -1.2737 -0.2159 -1.8491
  174SAPI  C21519760   5.429   2.235   8.898 -0.5744  1.0125 -0.0628
  174SAPI  H15R19761   5.426   2.328   8.840  2.5680  0.1150 -1.9317
  174SAPI  C21619762   5.498   2.125   8.820  0.0136  0.3925  0.3399
  174SAPI  H16R19763   5.495   2.031   8.880  1.1974 -1.1886 -1.9058
  174SAPI  H16S19764   5.600   2.159   8.793 -0.0578  1.7560  1.6764
  174SAPI  C21719765   5.420   2.099   8.684 -0.0832  0.0249 -0.3291
  174SAPI  H17R19766   5.373   2.191   8.644  1.2145  0.2051 -1.5228
  174SAPI  H17S19767   5.343   2.024   8.712  0.6780 -0.0890  1.5595
  174SAPI  C21819768   5.511   2.050   8.570  0.0577 -0.2631 -0.0010
  174SAPI  H18R19769   5.570   1.965   8.610  0.5218 -0.1859 -0.5166
  174SAPI  H18S19770   5.584   2.129   8.540 -0.1340  1.3242  3.1806
  174SAPI  C21919771   5.440   1.992   8.443 -0.6133  0.2206 -0.3913
  174SAPI  H19R19772   5.388   2.077   8.395 -0.4216  0.1478 -0.7327
  174SAPI  H19S19773   5.373   1.910   8.478  1.7578 -0.9940  1.5935
  174SAPI  C22019774   5.528   1.951   8.331 -0.3846  0.5364 -0.2620
  174SAPI  H20R19775   5.483   1.909   8.238  0.9077  0.3869 -0.8326
  174SAPI  H20S19776   5.602   1.875   8.365 -1.2478  0.0419  0.5499
  174SAPI  H20T19777   5.585   2.041   8.302 -0.6257  0.7072 -0.2105
  174SAPI   C3319778   6.194   2.950   9.955  0.0373  0.0986 -0.2345
  174SAPI   H3X19779   6.247   3.036  10.001  3.0145 -1.3304 -0.7867
  174SAPI   H3Y19780   6.091   2.986   9.973  0.0060 -1.3877  3.5029
  174SAPI   C3419781   6.240   2.939   9.806  0.0124 -0.0011 -0.6706
  174SAPI   H4X19782   6.161   2.892   9.743 -1.0733  0.0888  0.5648
  174SAPI   H4Y19783   6.327   2.871   9.819 -0.3091 -0.5105 -1.1225
  174SAPI   C3519784   6.282   3.073   9.755  0.2083 -0.8286 -0.8009
  174SAPI   H5X19785   6.346   3.122   9.831  0.1323 -2.0422  0.0706
  174SAPI   H5Y19786   6.185   3.127   9.753  0.2838 -0.5261  1.4566
  174SAPI   C3619787   6.354   3.078   9.620  0.4249 -0.5474  0.8191
  174SAPI   H6X19788   6.296   3.019   9.546 -0.5217 -1.1083  1.9709
  174SAPI   H6Y19789   6.454   3.031   9.630  0.8969  0.0474 -0.8114
  174SAPI   C3719790   6.360   3.227   9.577  0.4157 -0.0574 -0.4526
  174SAPI   H7X19791   6.393   3.274   9.673  0.0558 -0.3182 -0.1993
  174SAPI   H7Y19792   6.257   3.263   9.559  0.9564  1.1559 -1.3284
  174SAPI   C3819793   6.453   3.267   9.462 -0.5021  0.1832  0.1919
  174SAPI   H8X19794   6.559   3.241   9.483 -0.8647 -0.3865  1.4532
  174SAPI   H8Y19795   6.442   3.375   9.442  0.8099  0.1457 -0.8647
  174SAPI   C3919796   6.400   3.217   9.324 -0.5332 -0.1715  0.1196
  174SAPI   H9X19797   6.290   3.230   9.315 -0.4208  0.0833 -1.0417
  174SAPI   H9Y19798   6.413   3.107   9.329  0.2445 -0.1978 -1.7992
  174SAPI  C31019799   6.465   3.289   9.200  0.1832 -0.7014  0.1983
  174SAPI  H10X19800   6.574   3.299   9.223  0.3457 -2.0679  0.1197
  174SAPI  H10Y19801   6.428   3.393   9.192  1.4838 -0.3395 -2.0145
  174SAPI  C31119802   6.440   3.238   9.060 -0.5721  0.0477  0.6133
  174SAPI  H11X19803   6.462   3.318   8.986 -0.6131 -0.0549  0.4893
  174SAPI  H11Y19804   6.334   3.222   9.031 -0.3278 -1.8339  0.6570
  174SAPI  C31219805   6.526   3.117   9.010  0.3066  0.6694  1.1004
  174SAPI  H12X19806   6.635   3.136   8.997 -0.1421  1.5131 -2.3949
  174SAPI  H12Y19807   6.495   3.103   8.905 -0.9464 -0.5876  1.6190
  174SAPI  C31319808   6.497   2.983   9.082 -0.6688  0.4577  0.0689
  174SAPI  H13X19809   6.387   2.970   9.070 -1.2017  4.4096 -0.7711
  174SAPI  H13Y19810   6.510   2.988   9.192 -2.0706 -0.1487  0.2875
  174SAPI  C31419811   6.569   2.862   9.027 -0.2613 -0.0683  0.2166
  174SAPI  H14X19812   6.537   2.776   9.090 -2.0872  0.4391  0.0193
  174SAPI  H14Y19813   6.680   2.872   9.025 -0.0858 -1.7218 -0.0921
  174SAPI  C31519814   6.513   2.812   8.892 -0.2384 -0.4859  0.4695
  174SAPI  H15X19815   6.555   2.872   8.808  0.7296 -1.7400  0.0316
  174SAPI  H15Y19816   6.404   2.833   8.893  0.2097  2.2954  0.4961
  174SAPI  C31619817   6.539   2.666   8.889  0.1022 -0.2370  0.4461
  174SAPI  H16X19818   6.461   2.618   8.951  1.7379 -1.4562  1.6597
  174SAPI  H16Y19819   6.641   2.649   8.929  0.7812 -0.2878 -1.1922
  174SAPI  C31719820   6.524   2.602   8.749 -0.5075 -0.8573  0.9785
  174SAPI  H17X19821   6.587   2.663   8.681 -0.7735 -1.7675 -0.1214
  174SAPI  H17Y19822   6.417   2.610   8.720  0.1909  2.3110 -1.3334
  174SAPI  C31819823   6.558   2.452   8.741  0.2002 -0.4923  0.1065
  174SAPI  H18X19824   6.483   2.393   8.798  2.1670 -0.4729  2.8984
  174SAPI  H18Y19825   6.660   2.432   8.780  0.4354  3.6393  2.1115
  174SAPI  H18Z19826   6.540   2.419   8.637 -0.2558 -0.1763  0.0859
  175SAPI   C1219827   3.430   4.713   6.165 -0.6442  0.0238  0.2872
  175SAPI    H219828   3.452   4.749   6.268 -2.3537  1.0923  0.3076
  175SAPI    O219829   3.301   4.646   6.173  0.1207 -0.4729 -0.2151
  175SAPI   HO219830   3.295   4.584   6.246 -1.5232  1.2411  1.2129
  175SAPI   C1319831   3.417   4.837   6.070 -0.6359 -0.4903  0.5749
  175SAPI    H319832   3.512   4.893   6.078 -0.6531 -0.7279  3.6576
  175SAPI    O319833   3.316   4.923   6.122  0.1522 -0.2360 -0.5186
  175SAPI   HO319834   3.231   4.877   6.125  0.3959 -0.6660 -0.0466
  175SAPI   C1419835   3.396   4.791   5.922  0.1263 -0.2867 -0.2701
  175SAPI    H419836   3.294   4.749   5.911 -0.4589  0.6418  1.2883
  175SAPI    O419837   3.395   4.904   5.839 -0.1478  0.4173 -0.0768
  175SAPI   HO419838   3.358   4.874   5.756  2.6126 -1.1914 -0.8646
  175SAPI   C1519839   3.499   4.694   5.880  0.6985  0.3616 -0.0490
  175SAPI    H519840   3.599   4.742   5.868  0.9346  0.3152  1.5864
  175SAPI    O519841   3.468   4.642   5.746  0.2641 -0.5375  0.1806
  175SAPI   HO519842   3.553   4.618   5.708  0.8647 -1.4627  1.9753
  175SAPI   C1619843   3.518   4.571   5.970 -0.2204 -0.0622 -0.1917
  175SAPI    H619844   3.419   4.521   5.978 -0.9506  1.2412 -0.7265
  175SAPI    O619845   3.616   4.480   5.920  0.4156  0.1524  0.4401
  175SAPI   HO619846   3.579   4.430   5.846  2.0139 -0.3794 -0.0322
  175SAPI   C1119847   3.543   4.618   6.113  0.4436  0.3023 -0.5052
  175SAPI    H119848   3.632   4.684   6.110 -1.2370  2.7300  0.1146
  175SAPI     P19849   3.624   4.531   6.347  0.1538 -0.1250  0.2291
  175SAPI   O1319850   3.725   4.642   6.340  0.1816  0.6832  0.0541
  175SAPI   O1419851   3.683   4.406   6.396 -0.3257 -0.2975  0.1159
  175SAPI   O1219852   3.555   4.503   6.194  0.2073 -0.0794  0.1227
  175SAPI   O1119853   3.504   4.574   6.444 -0.0981 -0.2117 -0.5944
  175SAPI    C119854   3.535   4.648   6.569 -0.5479  0.2257 -0.4644
  175SAPI    HA19855   3.622   4.714   6.545 -1.0037  0.9280 -0.2139
  175SAPI    HB19856   3.447   4.712   6.591 -0.7658 -0.3941  0.5063
  175SAPI    C219857   3.561   4.552   6.686  0.1720 -0.3442  0.4729
  175SAPI    HS19858   3.640   4.477   6.663 -0.2356 -0.5999 -0.1311
  175SAPI   O2119859   3.435   4.493   6.718  0.0062  1.1451  0.3663
  175SAPI   C2119860   3.409   4.364   6.694 -0.8323  0.3751  0.2609
  175SAPI   O2219861   3.487   4.284   6.652 -0.0487 -0.3371 -0.3028
  175SAPI   C2219862   3.268   4.331   6.727 -0.1361  0.6151  0.6249
  175SAPI   H2R19863   3.266   4.352   6.836  1.8361 -0.3431  0.8694
  175SAPI   H2S19864   3.211   4.404   6.665  1.5255  0.8873 -0.6586
  175SAPI    C319865   3.606   4.624   6.817 -0.0912  0.9099  0.3450
  175SAPI    HX19866   3.602   4.546   6.896  1.1417 -1.1598 -1.5257
  175SAPI    HY19867   3.521   4.692   6.838 -0.7548 -0.7884  3.9272
  175SAPI   O3119868   3.730   4.691   6.801 -0.7779  0.0999  0.0144
  175SAPI   C3119869   3.840   4.615   6.808  0.8458  0.2967  0.3729
  175SAPI   O3219870   3.841   4.490   6.816  0.1340 -0.1579  0.0026
  175SAPI   C3219871   3.966   4.706   6.818  0.5034  0.0295 -0.0007
  175SAPI   H2X19872   3.933   4.812   6.817  0.3716  0.0000  0.5594
  175SAPI   H2Y19873   4.023   4.692   6.724  0.4168 -0.6958  0.0524
  175SAPI   C2319874   3.239   4.183   6.698  0.2015  0.1195  0.4433
  175SAPI   H3R19875   3.318   4.117   6.740 -1.2430 -2.2268 -0.3052
  175SAPI   H3S19876   3.214   4.157   6.593 -3.0798 -0.6925  1.3113
  175SAPI   C2419877   3.110   4.153   6.767  0.2241 -0.4775 -0.5016
  175SAPI   H4R19878   3.027   4.205   6.715  1.0825  0.2140 -1.2005
  175SAPI   H4S19879   3.125   4.179   6.874  0.6771  1.1384 -0.9314
  175SAPI   C2519880   3.084   4.004   6.777 -0.9752 -0.4835 -0.1847
  175SAPI   H5R19881   3.077   3.957   6.678 -2.3792  0.8454 -0.7592
  175SAPI   C2619882   3.095   3.927   6.886 -0.4274  0.3262  0.0129
  175SAPI   H6R19883   3.051   3.826   6.884 -1.2618  0.5914  2.0844
  175SAPI   C2719884   3.128   3.961   7.026  0.3691 -0.9365 -0.5468
  175SAPI   H7R19885   3.220   4.023   7.030  1.0374 -1.8442 -1.2723
  175SAPI   H7S19886   3.166   3.868   7.073  3.7623 -0.2485 -1.6423
  175SAPI   C2819887   3.007   4.020   7.094 -0.7175  1.0981 -0.6324
  175SAPI   H8R19888   2.930   4.059   7.026 -0.8257  1.0961 -0.5094
  175SAPI   C2919889   2.980   4.003   7.221 -0.8483 -0.5002 -0.7087
  175SAPI   H9R19890   2.886   4.052   7.251  1.1314  3.1121  0.1314
  175SAPI  C21019891   3.057   3.931   7.327  0.3810 -0.5303  0.4474
  175SAPI  H10R19892   3.158   3.912   7.284  1.3428  0.8728  1.9701
  175SAPI  H10S19893   3.018   3.827   7.329 -1.4333  0.0702 -1.0374
  175SAPI  C21119894   3.076   3.990   7.461  0.0665 -0.4065  0.0405
  175SAPI  H11R19895   3.060   4.099   7.461  2.3337 -0.0025 -1.8802
  175SAPI  C21219896   3.099   3.926   7.574 -0.3739  0.4431  0.2440
  175SAPI  H12R19897   3.091   3.980   7.669  1.2375 -1.6587  1.6776
  175SAPI  C21319898   3.109   3.774   7.599  0.1188  0.2033  0.7990
  175SAPI  H13R19899   3.118   3.719   7.503 -0.4568  0.4868  0.5756
  175SAPI  H13S19900   3.014   3.730   7.637  0.4971 -1.4303 -0.0692
  175SAPI  C21419901   3.214   3.728   7.698 -0.0219  0.4175  0.2811
  175SAPI  H14R19902   3.289   3.663   7.651 -1.1146  0.9676 -2.4130
  175SAPI  C21519903   3.214   3.755   7.828  0.4893  0.4565  0.2150
  175SAPI  H15R19904   3.296   3.712   7.887 -1.7288 -0.9102  2.4672
  175SAPI  C21619905   3.112   3.841   7.896 -0.5087  0.1319 -1.0339
  175SAPI  H16R19906   3.073   3.789   7.985 -0.9210  2.5066  0.2599
  175SAPI  H16S19907   3.024   3.872   7.837 -1.5106 -1.7807 -0.6197
  175SAPI  C21719908   3.158   3.966   7.969  0.2183  0.0919  0.0716
  175SAPI  H17R19909   3.065   4.012   8.009  0.8830  0.6538  1.0405
  175SAPI  H17S19910   3.204   4.043   7.903  0.7181  1.6845  2.1591
  175SAPI  C21819911   3.266   3.956   8.089 -0.1485  0.3083 -0.0197
  175SAPI  H18R19912   3.229   3.883   8.165  1.0679  1.6879  2.0039
  175SAPI  H18S19913   3.276   4.048   8.150 -0.6665 -1.3504  2.7888
  175SAPI  C21919914   3.408   3.937   8.045 -0.2440 -0.0973 -0.1468
  175SAPI  H19R19915   3.421   3.988   7.947 -0.6231 -0.5111 -0.4126
  175SAPI  H19S19916   3.421   3.832   8.011 -1.0749 -0.1536 -0.3074
  175SAPI  C22019917   3.513   3.956   8.148  0.2337  0.6100  0.7137
  175SAPI  H20R19918   3.482   3.901   8.240 -0.0297  0.2591  0.4205
  175SAPI  H20S19919   3.522   4.062   8.179 -1.4757  0.4307  2.0411
  175SAPI  H20T19920   3.611   3.915   8.117 -0.3685 -1.9897  1.8935
  175SAPI   C3319921   4.059   4.664   6.929  0.2577  0.4132 -0.3887
  175SAPI   H3X19922   4.155   4.712   6.902  0.3755 -0.2253 -1.1233
  175SAPI   H3Y19923   4.085   4.557   6.918  1.0431  0.4633  0.7729
  175SAPI   C3419924   4.005   4.685   7.068 -0.3001 -0.0346  0.0313
  175SAPI   H4X19925   3.921   4.615   7.087 -1.1021  0.6249 -0.9615
  175SAPI   H4Y19926   3.957   4.786   7.073 -2.3434 -1.0199  1.6874
  175SAPI   C3519927   4.112   4.687   7.182 -0.1175  0.2010  0.7546
  175SAPI   H5X19928   4.192   4.762   7.167  0.3765  0.0159  2.2925
  175SAPI   H5Y19929   4.154   4.585   7.180 -2.5485 -0.8950  1.7031
  175SAPI   C3619930   4.044   4.699   7.318 -0.3153  0.2037 -0.9211
  175SAPI   H6X19931   3.974   4.614   7.332  0.3111  0.0329  1.9034
  175SAPI   H6Y19932   4.004   4.802   7.332 -1.3648 -0.3630  0.5091
  175SAPI   C3719933   4.155   4.672   7.420 -0.3677 -0.1689  0.2788
  175SAPI   H7X19934   4.240   4.739   7.397 -0.4536  0.4403  1.6480
  175SAPI   H7Y19935   4.194   4.569   7.414  1.4097  0.4888 -0.0154
  175SAPI   C3819936   4.113   4.692   7.565 -0.0136  0.1253  1.0257
  175SAPI   H8X19937   4.018   4.636   7.575 -0.2868  0.7018  1.7987
  175SAPI   H8Y19938   4.090   4.799   7.584 -1.9090  0.4122 -2.2400
  175SAPI   C3919939   4.223   4.652   7.659 -0.1232 -0.2827  0.2565
  175SAPI   H9X19940   4.299   4.733   7.661  1.2535 -1.5545  0.5197
  175SAPI   H9Y19941   4.266   4.559   7.616  2.6860  1.6600 -1.5174
  175SAPI  C31019942   4.170   4.623   7.797  0.3157 -0.2339 -0.2160
  175SAPI  H10X19943   4.071   4.571   7.792  0.0357 -0.3675  3.5860
  175SAPI  H10Y19944   4.149   4.724   7.839  0.8090  0.9828 -2.7219
  175SAPI  C31119945   4.273   4.549   7.878 -0.0023  0.5747 -0.9885
  175SAPI  H11X19946   4.373   4.595   7.889  0.8136 -0.7581 -2.5234
  175SAPI  H11Y19947   4.303   4.457   7.823 -0.3505  0.3466 -0.8037
  175SAPI  C31219948   4.223   4.506   8.020 -0.1168  0.4321  0.3755
  175SAPI  H12X19949   4.307   4.446   8.060  0.5827 -1.2717 -3.2931
  175SAPI  H12Y19950   4.132   4.444   8.008  0.5046 -0.5016  0.4304
  175SAPI  C31319951   4.187   4.623   8.114 -0.3256 -0.2459  0.4976
  175SAPI  H13X19952   4.128   4.574   8.195 -0.6907 -1.3300 -0.3956
  175SAPI  H13Y19953   4.111   4.684   8.061 -1.8002 -3.7790 -1.8409
  175SAPI  C31419954   4.314   4.698   8.165 -0.0496  0.2232  0.1148
  175SAPI  H14X19955   4.373   4.732   8.077  1.0874 -0.7416  0.4855
  175SAPI  H14Y19956   4.384   4.633   8.222  0.4542  1.1325  0.5512
  175SAPI  C31519957   4.273   4.818   8.254  0.2341  0.5468  0.5659
  175SAPI  H15X19958   4.209   4.779   8.335 -0.5132  0.2666 -0.1447
  175SAPI  H15Y19959   4.214   4.896   8.201 -0.6251 -1.0256 -0.9148
  175SAPI  C31619960   4.387   4.898   8.314 -0.4618  0.0849 -0.8825
  175SAPI  H16X19961   4.419   4.977   8.243 -1.5043  1.6084  0.2936
  175SAPI  H16Y19962   4.470   4.830   8.344 -0.4336  0.1307 -0.8583
  175SAPI  C31719963   4.339   4.967   8.442 -0.1062  0.4181 -0.4049
  175SAPI  H17X19964   4.307   4.900   8.525 -0.4982  3.5454  2.1436
  175SAPI  H17Y19965   4.249   5.029   8.421  0.3111  1.2219  0.1232
  175SAPI  C31819966   4.444   5.052   8.506 -0.0187 -0.2103  0.0327
  175SAPI  H18X19967   4.536   4.991   8.520 -0.4141 -0.5568  1.3118
  175SAPI  H18Y19968   4.411   5.102   8.600 -1.6833 -0.5524 -0.3418
  175SAPI  H18Z19969   4.451   5.141   8.440 -1.3717  0.7784  1.1520
  176SAPI   C1219970   2.764   0.494   6.458 -0.8420 -0.1255  0.0146
  176SAPI    H219971   2.713   0.441   6.541  0.8266 -0.1924  1.0319
  176SAPI    O219972   2.690   0.608   6.421  0.7300  0.2744  0.5267
  176SAPI   HO219973   2.623   0.579   6.358  1.5163  1.1470 -0.7650
  176SAPI   C1319974   2.896   0.537   6.520 -0.3584 -0.5083  0.5253
  176SAPI    H319975   2.946   0.442   6.552 -0.5919 -1.0311 -0.6171
  176SAPI    O319976   2.876   0.617   6.634 -0.0316 -0.7097 -0.8139
  176SAPI   HO319977   2.822   0.690   6.604 -1.1526 -1.4289 -0.5908
  176SAPI   C1419978   2.991   0.605   6.415 -0.5396  0.9126  0.1059
  176SAPI    H419979   2.943   0.696   6.375 -2.6962  0.2974  1.1492
  176SAPI    O419980   3.107   0.649   6.485  0.7202  0.3235  0.0695
  176SAPI   HO419981   3.071   0.700   6.558 -0.2228 -1.6376  1.0577
  176SAPI   C1519982   3.013   0.510   6.304 -0.3573  0.3726 -0.2099
  176SAPI    H519983   3.052   0.413   6.341 -1.8374 -0.3454 -0.5002
  176SAPI    O519984   3.111   0.563   6.214 -0.2282  0.1641  0.3562
  176SAPI   HO519985   3.091   0.656   6.198  0.3212  0.5168  1.5883
  176SAPI   C1619986   2.882   0.462   6.237  0.5670 -0.6493 -0.4071
  176SAPI    H619987   2.828   0.547   6.190  0.3100  0.1268  1.2439
  176SAPI    O619988   2.906   0.366   6.132 -0.1746  0.7134  0.5516
  176SAPI   HO619989   2.970   0.300   6.160  0.0453  0.5973 -0.1955
  176SAPI   C1119990   2.785   0.401   6.337 -0.8398  0.7420  0.1685
  176SAPI    H119991   2.837   0.316   6.387  0.4190  0.1575 -1.9742
  176SAPI     P19992   2.639   0.185   6.273 -0.6620  0.3209 -0.0527
  176SAPI   O1319993   2.766   0.107   6.273 -0.5019 -0.6423 -0.6095
  176SAPI   O1419994   2.545   0.160   6.160 -0.1825 -0.2740 -0.4706
  176SAPI   O1219995   2.666   0.352   6.283  0.4280  0.1917 -0.2615
  176SAPI   O1119996   2.562   0.161   6.410 -0.0683 -0.5656 -0.1935
  176SAPI    C119997   2.431   0.224   6.426  0.5424 -0.6472  0.2539
  176SAPI    HA19998   2.383   0.267   6.336 -2.7254 -1.2987  1.5428
  176SAPI    HB19999   2.361   0.147   6.466 -0.1987  0.8794  2.0400
  176SAPI    C220000   2.425   0.337   6.522  0.2542  0.4411 -0.2125
  176SAPI    HS20001   2.494   0.413   6.481 -0.7544  0.8103 -1.2936
  176SAPI   O2120002   2.467   0.286   6.650 -0.0251  0.1662 -0.1134
  176SAPI   C2120003   2.501   0.385   6.727 -0.0639  0.3520  0.5351
  176SAPI   O2220004   2.514   0.502   6.695  0.4069 -0.0693 -0.3741
  176SAPI   C2220005   2.521   0.332   6.862  0.5827  0.3532 -0.1877
  176SAPI   H2R20006   2.427   0.281   6.893 -0.1634 -1.2910 -4.4415
  176SAPI   H2S20007   2.597   0.252   6.866  1.1552  0.8352 -1.0770
  176SAPI    C320008   2.279   0.400   6.519 -0.0775  0.2494  0.1304
  176SAPI    HX20009   2.207   0.315   6.516  0.6270 -0.3552 -2.8916
  176SAPI    HY20010   2.273   0.443   6.417  0.6975 -0.4170 -0.2055
  176SAPI   O3120011   2.244   0.488   6.626  0.5848  0.1821 -0.1790
  176SAPI   C3120012   2.140   0.564   6.605  0.5634 -0.3516 -0.1086
  176SAPI   O3220013   2.084   0.576   6.498 -0.0103 -0.1519 -0.7908
  176SAPI   C3220014   2.117   0.657   6.723 -0.1719  0.1170 -0.2624
  176SAPI   H2X20015   2.018   0.706   6.715  0.4004  1.1494 -1.3114
  176SAPI   H2Y20016   2.194   0.736   6.707  0.5734 -0.3554  0.9059
  176SAPI   C2320017   2.548   0.444   6.965 -0.4851  0.1075 -0.3285
  176SAPI   H3R20018   2.479   0.530   6.946 -0.6631 -0.3188 -1.7087
  176SAPI   H3S20019   2.653   0.477   6.954 -0.6149 -0.1162 -2.6813
  176SAPI   C2420020   2.522   0.396   7.115 -0.4032 -0.0857 -0.2734
  176SAPI   H4R20021   2.414   0.399   7.140 -0.5445 -1.1844 -0.7209
  176SAPI   H4S20022   2.566   0.475   7.179 -0.0835 -0.3199 -0.2048
  176SAPI   C2520023   2.583   0.261   7.153  0.5618 -0.9222  0.1695
  176SAPI   H5R20024   2.663   0.233   7.083  0.2571 -2.0473  0.2637
  176SAPI   C2620025   2.540   0.183   7.253  0.6210  0.7379  0.2537
  176SAPI   H6R20026   2.600   0.092   7.270  0.0897  0.3444  0.0315
  176SAPI   C2720027   2.427   0.228   7.356 -0.0281  0.2008  0.1777
  176SAPI   H7R20028   2.333   0.203   7.301 -0.1859  1.6063 -0.2283
  176SAPI   H7S20029   2.429   0.339   7.357  0.6546  0.1855  0.6092
  176SAPI   C2820030   2.425   0.167   7.492 -0.2872 -0.0202  0.0504
  176SAPI   H8R20031   2.348   0.093   7.517  0.8041 -0.3373  2.8911
  176SAPI   C2920032   2.508   0.194   7.597 -0.1680 -0.0908 -0.0178
  176SAPI   H9R20033   2.491   0.148   7.695 -0.3027 -1.0010 -0.4636
  176SAPI  C21020034   2.620   0.292   7.581 -0.5318 -0.4883 -0.1952
  176SAPI  H10R20035   2.672   0.278   7.484  2.0999 -0.6423  1.1435
  176SAPI  H10S20036   2.705   0.258   7.644 -0.0017 -1.5827 -1.4466
  176SAPI  C21120037   2.597   0.439   7.606  0.3009  1.0666  0.4346
  176SAPI  H11R20038   2.621   0.508   7.523 -0.4170 -1.6391 -2.2254
  176SAPI  C21220039   2.578   0.486   7.732  0.0461  0.0974  0.2447
  176SAPI  H12R20040   2.564   0.594   7.749  1.7103  0.6924 -1.6818
  176SAPI  C21320041   2.574   0.401   7.858  0.5673  0.2925  0.3986
  176SAPI  H13R20042   2.554   0.296   7.827  3.0514  0.5640 -2.7059
  176SAPI  H13S20043   2.491   0.444   7.918  0.5656  0.1158  0.5203
  176SAPI  C21420044   2.702   0.407   7.929 -0.1190  0.1849 -0.1087
  176SAPI  H14R20045   2.788   0.396   7.860 -0.6844 -1.1549 -0.6310
  176SAPI  C21520046   2.726   0.401   8.062 -0.0904 -0.5735 -0.1753
  176SAPI  H15R20047   2.825   0.423   8.104  0.9393 -2.7255 -1.3545
  176SAPI  C21620048   2.619   0.419   8.168 -0.3165 -0.4435 -0.4180
  176SAPI  H16R20049   2.521   0.389   8.126 -0.3262  0.5682 -1.1692
  176SAPI  H16S20050   2.612   0.529   8.184 -2.8333 -0.3995 -1.3183
  176SAPI  C21720051   2.647   0.348   8.297 -0.4854  0.4023 -0.4880
  176SAPI  H17R20052   2.734   0.407   8.333 -0.8813  0.5923  0.1675
  176SAPI  H17S20053   2.673   0.244   8.268  0.1244  0.6621 -0.8944
  176SAPI  C21820054   2.528   0.362   8.396 -0.5487  0.3790 -0.0759
  176SAPI  H18R20055   2.551   0.309   8.491  0.8847 -0.1005 -0.6676
  176SAPI  H18S20056   2.445   0.318   8.337  0.6535  0.6528 -2.0771
  176SAPI  C21920057   2.501   0.508   8.424 -0.4078 -0.5792 -0.1642
  176SAPI  H19R20058   2.573   0.577   8.375 -1.8001  0.5715 -0.6659
  176SAPI  H19S20059   2.514   0.528   8.533  0.2552 -1.3971 -0.0871
  176SAPI  C22020060   2.357   0.556   8.395  0.0461  0.5396  0.0308
  176SAPI  H20R20061   2.289   0.523   8.477 -0.1005  1.0284  0.1108
  176SAPI  H20S20062   2.325   0.514   8.298  1.4689  2.1586 -1.2101
  176SAPI  H20T20063   2.348   0.667   8.395 -2.2182  0.4055  0.9637
  176SAPI   C3320064   2.137   0.590   6.863  0.4366  0.3770  0.6178
  176SAPI   H3X20065   2.233   0.536   6.877 -0.3597 -0.8677  1.4289
  176SAPI   H3Y20066   2.065   0.511   6.891  0.8043  0.0419  0.6405
  176SAPI   C3420067   2.122   0.688   6.984  0.3436 -1.0396 -0.0290
  176SAPI   H4X20068   2.037   0.757   6.963  0.7877  0.9670  3.8793
  176SAPI   H4Y20069   2.206   0.760   6.983 -0.7374  0.2569 -1.2429
  176SAPI   C3520070   2.113   0.621   7.118 -0.6471  0.0842  1.2533
  176SAPI   H5X20071   2.182   0.534   7.122 -0.5496  0.1813  1.7694
  176SAPI   H5Y20072   2.011   0.579   7.133 -0.7610  0.4000  1.3616
  176SAPI   C3620073   2.146   0.723   7.221  0.1183  0.1374  0.3827
  176SAPI   H6X20074   2.058   0.791   7.232 -0.0605  0.1600 -1.0843
  176SAPI   H6Y20075   2.229   0.791   7.192 -0.5504  0.6759 -0.3081
  176SAPI   C3720076   2.152   0.674   7.365 -0.1180  0.0809 -0.1393
  176SAPI   H7X20077   2.241   0.608   7.374 -0.6288 -0.7341 -0.9284
  176SAPI   H7Y20078   2.055   0.629   7.396 -0.2847  1.5780  1.6537
  176SAPI   C3820079   2.160   0.795   7.466 -0.1476  0.3060  0.2402
  176SAPI   H8X20080   2.073   0.864   7.456  0.5860  1.0216 -1.5079
  176SAPI   H8Y20081   2.250   0.858   7.452  0.4925 -0.0222  2.4605
  176SAPI   C3920082   2.173   0.743   7.601  0.3215 -0.7399  0.1148
  176SAPI   H9X20083   2.272   0.693   7.599  0.5359 -0.4272  1.5916
  176SAPI   H9Y20084   2.088   0.675   7.619  0.6948 -1.2281  0.0529
  176SAPI  C31020085   2.169   0.846   7.720 -0.4008 -0.5387  0.0889
  176SAPI  H10X20086   2.082   0.915   7.710  0.9073  1.3779  1.2527
  176SAPI  H10Y20087   2.257   0.912   7.703 -0.8721 -0.0261 -0.4088
  176SAPI  C31120088   2.163   0.781   7.854 -0.1935  0.0016  0.2000
  176SAPI  H11X20089   2.071   0.719   7.866 -1.3942  1.9321  1.6034
  176SAPI  H11Y20090   2.148   0.868   7.921 -0.9313  1.3975 -1.7018
  176SAPI  C31220091   2.283   0.697   7.899 -0.0707  1.1025 -0.6615
  176SAPI  H12X20092   2.307   0.632   7.812 -1.2334 -0.7456  0.3210
  176SAPI  H12Y20093   2.256   0.627   7.981  2.0279  2.3202  1.1915
  176SAPI  C31320094   2.406   0.786   7.924 -0.2165  0.3576 -0.0853
  176SAPI  H13X20095   2.437   0.843   7.834  1.4468  2.1988  1.5704
  176SAPI  H13Y20096   2.494   0.723   7.949 -0.3587 -0.0395 -0.5766
  176SAPI  C31420097   2.396   0.882   8.046 -0.4630 -0.7813 -0.5213
  176SAPI  H14X20098   2.370   0.817   8.132 -2.4726 -1.1165 -1.3257
  176SAPI  H14Y20099   2.315   0.957   8.036 -0.3773 -0.7378 -0.9020
  176SAPI  C31520100   2.525   0.969   8.072  0.1717  0.1325  0.2915
  176SAPI  H15X20101   2.546   1.019   7.975 -0.6244 -0.3794 -0.1545
  176SAPI  H15Y20102   2.601   0.890   8.092  0.0111  0.2297  1.3591
  176SAPI  C31620103   2.502   1.069   8.188  0.9495 -0.3389 -0.0738
  176SAPI  H16X20104   2.505   1.019   8.287  2.1384 -0.6143 -0.2276
  176SAPI  H16Y20105   2.400   1.110   8.179  1.5830  0.9099 -2.6693
  176SAPI  C31720106   2.608   1.180   8.192 -0.2695  0.2402  0.7670
  176SAPI  H17X20107   2.624   1.215   8.088  2.1325 -2.9592 -0.0915
  176SAPI  H17Y20108   2.700   1.123   8.219  1.4211  1.3386 -2.2156
  176SAPI  C31820109   2.576   1.301   8.278 -0.0303 -0.8096  0.1208
  176SAPI  H18X20110   2.668   1.362   8.286  0.2178 -1.0539 -0.7561
  176SAPI  H18Y20111   2.566   1.275   8.386  1.0499 -0.5660  0.2943
  176SAPI  H18Z20112   2.495   1.368   8.241 -0.0458 -0.4488  0.7819
  177SLPC     N20113   2.282   3.166  11.289 -0.3406  0.5050 -0.1310
  177SLPC   C1320114   2.239   3.063  11.387 -0.1627 -0.1842 -0.4188
  177SLPC  H13A20115   2.321   3.011  11.433  0.9899  2.4464  0.6735
  177SLPC  H13B20116   2.173   3.106  11.462 -1.3787  2.0326 -2.6228
  177SLPC  H13C20117   2.180   2.993  11.330 -0.9336 -0.4644  0.6688
  177SLPC   C1420118   2.394   3.250  11.352 -0.6350  0.2111 -0.6004
  177SLPC  H14A20119   2.425   3.323  11.279  1.2406 -0.5283 -0.5950
  177SLPC  H14B20120   2.359   3.285  11.448 -0.1053 -1.4346  0.2337
  177SLPC  H14C20121   2.480   3.186  11.367 -0.7914  0.2324  0.4676
  177SLPC   C1520122   2.160   3.253  11.263 -0.1472  0.3451  0.7209
  177SLPC  H15A20123   2.076   3.188  11.247  0.6213 -0.6082  0.4477
  177SLPC  H15B20124   2.144   3.324  11.343  1.3992  2.0820 -0.4245
  177SLPC  H15C20125   2.187   3.325  11.188 -0.3551  0.1173  0.4275
  177SLPC   C1220126   2.326   3.099  11.166  0.0718  0.1639  0.3799
  177SLPC  H12A20127   2.240   3.051  11.122 -0.2483 -0.3877  1.5545
  177SLPC  H12B20128   2.393   3.020  11.198 -0.1100 -0.4436 -0.6922
  177SLPC   C1120129   2.390   3.175  11.053 -0.1997 -0.7668  0.4660
  177SLPC  H11A20130   2.436   3.106  10.979 -0.1104  0.2702 -0.4740
  177SLPC  H11B20131   2.479   3.220  11.102 -0.7846 -1.1994  1.9843
  177SLPC     P20132   2.178   3.210  10.900 -0.1818 -0.1313  0.1619
  177SLPC   O1320133   2.122   3.086  10.956  0.3927  0.1664  0.0256
  177SLPC   O1420134   2.074   3.321  10.890  0.5974  0.4692  0.1496
  177SLPC   O1220135   2.291   3.266  11.004 -0.2756  0.2258 -0.3267
  177SLPC   O1120136   2.252   3.172  10.765 -0.2120  0.3451 -0.5707
  177SLPC    C120137   2.367   3.241  10.721  0.7001 -0.0284  0.0802
  177SLPC    HA20138   2.399   3.322  10.790  0.0947 -1.0814  1.6687
  177SLPC    HB20139   2.442   3.159  10.715  0.7781 -0.0215  0.8000
  177SLPC    C220140   2.332   3.314  10.589  0.3434 -0.1783 -0.8330
  177SLPC    HS20141   2.247   3.384  10.606  1.2704  0.6894  0.4274
  177SLPC   O2120142   2.290   3.213  10.495 -0.5572  0.4435  0.6443
  177SLPC   C2120143   2.159   3.186  10.490  0.1826 -1.0795  0.3223
  177SLPC   O2220144   2.072   3.224  10.569 -1.1618  0.3489  0.0390
  177SLPC   C2220145   2.127   3.117  10.359 -0.3340  0.5692  0.3677
  177SLPC   H2R20146   2.139   3.193  10.279  0.8909  0.1098  0.0927
  177SLPC   H2S20147   2.201   3.038  10.335  0.5092  1.3468  0.3972
  177SLPC    C320148   2.454   3.392  10.540 -0.1984  0.0733 -0.1322
  177SLPC    HX20149   2.546   3.329  10.533  1.6735  2.5222  0.8293
  177SLPC    HY20150   2.474   3.471  10.616  1.5808 -0.1551 -0.3092
  177SLPC   O3120151   2.418   3.449  10.413  0.7363  0.2724  0.6290
  177SLPC   C3120152   2.511   3.525  10.351 -0.1775 -0.1490  0.5522
  177SLPC   O3220153   2.624   3.544  10.387 -0.1227 -0.4544  0.1681
  177SLPC   C3220154   2.458   3.570  10.214 -0.7502 -0.3762 -0.0904
  177SLPC   H2X20155   2.424   3.671  10.243  0.9209  0.1289  0.2105
  177SLPC   H2Y20156   2.389   3.490  10.179  1.2254 -2.1809 -0.0755
  177SLPC   C2320157   1.980   3.056  10.358 -0.4843 -0.0656 -0.7367
  177SLPC   H3R20158   1.906   3.138  10.364 -0.4908 -0.0931 -0.3919
  177SLPC   H3S20159   1.960   2.996  10.450  1.3049  0.5579  0.1110
  177SLPC   C2420160   1.954   2.978  10.224  0.3009  0.0090  0.4169
  177SLPC   H4R20161   1.847   2.948  10.220 -0.2664  2.0735 -1.1616
  177SLPC   H4S20162   2.006   2.880  10.235  0.7541  0.4681  3.3876
  177SLPC   C2520163   1.986   3.059  10.094  0.2573  0.3323 -0.0791
  177SLPC   H5R20164   2.092   3.091  10.102  0.8727 -1.0463 -2.0681
  177SLPC   H5S20165   1.920   3.149  10.100 -1.6199 -0.8804 -1.5967
  177SLPC   C2620166   1.948   2.991   9.967 -0.1295 -0.1605  0.2193
  177SLPC   H6R20167   1.838   2.974   9.965 -0.0043 -1.0537  0.2950
  177SLPC   H6S20168   1.995   2.891   9.959  0.1709 -0.1984  2.0008
  177SLPC   C2720169   1.969   3.086   9.841 -0.0660 -0.4823 -0.1856
  177SLPC   H7R20170   2.070   3.131   9.836 -0.5360  0.5657 -0.6288
  177SLPC   H7S20171   1.898   3.172   9.846 -0.3758 -0.7084 -0.6303
  177SLPC   C2820172   1.945   3.009   9.708 -0.1243  0.0858 -0.1917
  177SLPC   H8R20173   1.843   2.968   9.721 -0.2611  0.0773 -1.2480
  177SLPC   H8S20174   2.014   2.922   9.703 -1.4326 -0.8984 -3.5120
  177SLPC   C2920175   1.955   3.100   9.589 -0.4879  0.1579  0.1211
  177SLPC   H9R20176   2.053   3.095   9.540 -0.8422  2.0686 -0.9046
  177SLPC  C21020177   1.863   3.170   9.529 -0.0424  0.3227 -0.1155
  177SLPC  H10R20178   1.877   3.196   9.423 -0.9597 -1.2519 -0.6559
  177SLPC  C21120179   1.717   3.170   9.566  0.3758  0.0766 -0.5406
  177SLPC  H11R20180   1.698   3.118   9.662  1.3446 -0.5863 -0.7031
  177SLPC  H11S20181   1.687   3.273   9.596 -1.6173 -0.0672 -1.8016
  177SLPC  C21220182   1.629   3.112   9.467 -0.3505  0.1601  0.1326
  177SLPC  H12R20183   1.598   3.007   9.482 -0.4715  0.0728 -0.6636
  177SLPC  C21320184   1.584   3.178   9.365  0.1087 -1.4023  0.0545
  177SLPC  H13R20185   1.523   3.124   9.290 -0.1751 -1.9966  0.7014
  177SLPC  C21420186   1.616   3.322   9.321 -0.4114 -0.1122 -0.4872
  177SLPC  H14R20187   1.660   3.368   9.412 -2.1240 -0.1313  0.3859
  177SLPC  H14S20188   1.527   3.386   9.306 -0.3000  0.1942  0.1399
  177SLPC  C21520189   1.704   3.336   9.195 -0.0354 -0.0809 -0.1728
  177SLPC  H15R20190   1.805   3.316   9.236  0.3689  2.1925  0.0913
  177SLPC  H15S20191   1.711   3.442   9.162  0.3451  0.0785  0.4001
  177SLPC  C21620192   1.661   3.245   9.078 -0.0462  0.1276  0.2922
  177SLPC  H16R20193   1.668   3.140   9.112  0.1591  0.4311  1.2269
  177SLPC  H16S20194   1.719   3.268   8.987  0.3033 -2.1253 -0.0886
  177SLPC  C21720195   1.511   3.277   9.051  1.0177  1.0733  0.1372
  177SLPC  H17R20196   1.493   3.374   8.999 -1.1535  1.0627  0.8007
  177SLPC  H17S20197   1.450   3.269   9.143 -2.6888 -2.6989 -2.3061
  177SLPC  C21820198   1.446   3.167   8.963  0.5081 -0.4193 -0.1892
  177SLPC  H18R20199   1.335   3.178   8.961  0.5450 -0.0576 -0.1933
  177SLPC  H18S20200   1.441   3.068   9.014  0.0511 -1.0222 -1.3494
  177SLPC  H18T20201   1.487   3.152   8.861  0.0120 -3.0867 -0.0862
  177SLPC   C3320202   2.562   3.581  10.099 -0.6978  0.0558  0.3163
  177SLPC   H3X20203   2.593   3.478  10.072  1.1658 -0.1365  2.8001
  177SLPC   H3Y20204   2.647   3.642  10.136  1.9581 -1.9778 -2.0581
  177SLPC   C3420205   2.497   3.661   9.984  0.8629  0.0331  0.0481
  177SLPC   H4X20206   2.475   3.762  10.024  4.4968  1.2490 -0.5796
  177SLPC   H4Y20207   2.411   3.600   9.949  2.1990 -1.2373 -1.2286
  177SLPC   C3520208   2.593   3.681   9.863  0.2567 -0.4376 -0.0286
  177SLPC   H5X20209   2.613   3.576   9.833  2.3962 -0.2939  0.7608
  177SLPC   H5Y20210   2.690   3.728   9.889  0.0175  0.4183 -0.6182
  177SLPC   C3620211   2.519   3.759   9.745 -1.3793 -0.4129  0.0840
  177SLPC   H6X20212   2.597   3.802   9.678 -1.3320 -2.4742 -1.2848
  177SLPC   H6Y20213   2.468   3.843   9.797  1.1083  1.6434 -0.5939
  177SLPC   C3720214   2.412   3.677   9.669 -0.6246  0.3828 -0.2911
  177SLPC   H7X20215   2.345   3.743   9.609  1.1889  0.2926 -2.5797
  177SLPC   H7Y20216   2.346   3.628   9.744 -0.6966  0.8261 -0.0599
  177SLPC   C3820217   2.474   3.578   9.577 -0.4676  0.1679  0.7966
  177SLPC   H8X20218   2.395   3.512   9.536  2.2680 -3.0752  0.2606
  177SLPC   H8Y20219   2.550   3.516   9.629 -1.9945 -0.8871  1.8576
  177SLPC   C3920220   2.553   3.634   9.452  0.5188 -0.1972 -0.4013
  177SLPC   H9X20221   2.615   3.549   9.415 -0.3558 -1.3047  0.5679
  177SLPC   H9Y20222   2.619   3.714   9.490 -1.0970  1.3187 -0.6750
  177SLPC  C31020223   2.461   3.693   9.344  0.0791  0.2166  0.3322
  177SLPC  H10X20224   2.428   3.792   9.381  0.4365  0.7858 -0.8128
  177SLPC  H10Y20225   2.374   3.629   9.318 -0.0368  0.4323  0.1827
  177SLPC  C31120226   2.555   3.725   9.220  0.7948  0.0255 -0.0350
  177SLPC  H11X20227   2.551   3.632   9.158 -1.7210 -1.5829  2.2940
  177SLPC  H11Y20228   2.660   3.750   9.244 -0.0074  2.4254  1.2626
  177SLPC  C31220229   2.487   3.830   9.131  0.2385 -0.0790  0.8554
  177SLPC  H12X20230   2.474   3.921   9.193  1.0126  1.0236 -0.5256
  177SLPC  H12Y20231   2.387   3.790   9.106 -0.6442  1.2157  2.1547
  177SLPC  C31320232   2.573   3.868   9.018  0.1705 -0.2665  0.3305
  177SLPC  H13X20233   2.594   3.779   8.955 -3.1441 -0.9499 -0.0117
  177SLPC  H13Y20234   2.671   3.913   9.046  0.0127  1.3903 -1.5572
  177SLPC  C31420235   2.512   3.987   8.939 -0.0318  0.5990  0.0269
  177SLPC  H14X20236   2.466   4.057   9.013 -2.9328  0.0459 -1.1009
  177SLPC  H14Y20237   2.422   3.966   8.878  0.5533  0.5176 -0.8172
  177SLPC  C31520238   2.600   4.051   8.829 -0.0874 -0.6809 -0.0787
  177SLPC  H15X20239   2.660   3.978   8.770  0.5848  1.8484 -2.7526
  177SLPC  H15Y20240   2.674   4.115   8.883 -0.7428  2.0333 -2.1891
  177SLPC  C31620241   2.513   4.138   8.747 -0.1739  0.1236  0.0160
  177SLPC  H16X20242   2.431   4.191   8.800 -0.0723 -1.0481  1.3805
  177SLPC  H16Y20243   2.463   4.074   8.672  3.1851 -1.0444 -1.4259
  177SLPC  C31720244   2.597   4.231   8.662 -0.1387  0.5010  0.4530
  177SLPC  H17X20245   2.646   4.305   8.729 -0.7982  1.7655 -0.4408
  177SLPC  H17Y20246   2.537   4.290   8.589  0.3152  0.5579  0.1188
  177SLPC  C31820247   2.702   4.160   8.569  0.3964  0.5073  0.5925
  177SLPC  H18X20248   2.652   4.084   8.504 -1.2158  1.4558  0.6531
  177SLPC  H18Y20249   2.772   4.101   8.631 -0.3081 -2.8486 -1.5359
  177SLPC  H18Z20250   2.756   4.220   8.493 -0.5026  1.4673  0.6910
  178SLPC     N20251   4.305   3.200  10.868  0.6556 -0.3509  0.2968
  178SLPC   C1320252   4.296   3.111  10.746 -0.4202 -0.4971  0.2472
  178SLPC  H13A20253   4.226   3.031  10.764 -2.3092  1.0886  0.1874
  178SLPC  H13B20254   4.259   3.162  10.659  0.8731 -0.6624 -0.4389
  178SLPC  H13C20255   4.398   3.083  10.721 -0.4629  1.1921 -2.1075
  178SLPC   C1420256   4.359   3.130  10.973 -1.1284  0.8368 -0.8263
  178SLPC  H14A20257   4.365   3.192  11.062  0.5068  0.1941 -0.4619
  178SLPC  H14B20258   4.304   3.042  11.005  0.1142  0.7309  1.2321
  178SLPC  H14C20259   4.460   3.108  10.945 -1.0835  3.9568 -3.7199
  178SLPC   C1520260   4.165   3.238  10.898 -0.2995  0.5643  0.1307
  178SLPC  H15A20261   4.169   3.308  10.980 -0.0233  0.0728  0.5389
  178SLPC  H15B20262   4.117   3.281  10.811 -0.4931 -0.1497 -0.1217
  178SLPC  H15C20263   4.108   3.154  10.934 -0.2515 -0.5378 -2.1688
  178SLPC   C1220264   4.386   3.323  10.840 -0.5676 -0.2211  0.2140
  178SLPC  H12A20265   4.333   3.409  10.801 -0.6443 -0.6072 -0.5474
  178SLPC  H12B20266   4.474   3.313  10.778 -1.0825 -1.8410 -0.3035
  178SLPC   C1120267   4.450   3.394  10.967 -0.4747  0.1688 -0.8699
  178SLPC  H11A20268   4.498   3.491  10.941 -0.4744  0.1178 -1.0598
  178SLPC  H11B20269   4.535   3.332  11.002 -0.2920  0.5272 -0.6698
  178SLPC     P20270   4.260   3.533  11.091 -0.0447  0.1397  0.0859
  178SLPC   O1320271   4.120   3.482  11.122  0.6935  0.0346 -0.1569
  178SLPC   O1420272   4.322   3.640  11.173 -1.1732 -0.4903 -0.1770
  178SLPC   O1220273   4.359   3.407  11.080  0.4654  0.0751 -0.3677
  178SLPC   O1120274   4.255   3.573  10.940  0.2129 -0.3553  0.1917
  178SLPC    C120275   4.229   3.713  10.907 -0.9627  0.7509  0.6455
  178SLPC    HA20276   4.133   3.748  10.951 -3.0992 -0.6691 -2.5318
  178SLPC    HB20277   4.318   3.763  10.951  1.0714 -3.1047  1.3497
  178SLPC    C220278   4.226   3.736  10.756  0.4081 -0.0752  0.4358
  178SLPC    HS20279   4.182   3.837  10.745 -1.1230 -0.7956 -0.3901
  178SLPC   O2120280   4.146   3.626  10.702 -0.1526 -0.1774  0.0588
  178SLPC   C2120281   4.018   3.624  10.725 -0.0749  0.3800 -0.6986
  178SLPC   O2220282   3.959   3.704  10.791 -0.6750  0.0424 -0.0520
  178SLPC   C2220283   3.958   3.501  10.662 -0.0748  0.2248 -0.4487
  178SLPC   H2R20284   4.038   3.435  10.621 -0.4901  0.5092 -1.7631
  178SLPC   H2S20285   3.901   3.451  10.743 -2.3886  1.7136 -1.0452
  178SLPC    C320286   4.360   3.743  10.684  0.2190 -0.3482 -0.1920
  178SLPC    HX20287   4.417   3.648  10.690  0.3529 -0.2030  1.2148
  178SLPC    HY20288   4.419   3.828  10.723 -3.2009  1.0470  2.5268
  178SLPC   O3120289   4.328   3.775  10.547 -0.3963 -0.3632  0.1287
  178SLPC   C3120290   4.435   3.757  10.460  0.0360  1.4224  0.0006
  178SLPC   O3220291   4.540   3.711  10.499  0.4562 -0.4663 -0.0428
  178SLPC   C3220292   4.401   3.808  10.315  0.1462 -1.0630  0.6540
  178SLPC   H2X20293   4.407   3.918  10.320 -0.0661 -0.6635 -3.5972
  178SLPC   H2Y20294   4.298   3.773  10.291  0.1060 -0.1651 -0.5574
  178SLPC   C2320295   3.860   3.534  10.548  0.0072 -0.5456 -0.3043
  178SLPC   H3R20296   3.785   3.612  10.573  0.7212  0.6263 -1.7049
  178SLPC   H3S20297   3.795   3.446  10.530  0.5106 -0.7436 -1.2036
  178SLPC   C2420298   3.936   3.560  10.412 -0.4628  0.2757 -0.1794
  178SLPC   H4R20299   3.996   3.467  10.405  0.5588  0.7696  1.5496
  178SLPC   H4S20300   4.003   3.648  10.416  2.9324 -1.9427 -2.7118
  178SLPC   C2520301   3.850   3.582  10.291 -0.2248  0.5274  0.6348
  178SLPC   H5R20302   3.804   3.682  10.276 -1.0764 -0.2139 -2.4833
  178SLPC   H5S20303   3.767   3.507  10.281  1.7130 -1.6539 -0.0785
  178SLPC   C2620304   3.929   3.560  10.165  0.0430 -0.1913  0.3617
  178SLPC   H6R20305   3.959   3.453  10.164  0.0572 -0.2645 -2.9970
  178SLPC   H6S20306   4.020   3.623  10.165 -0.3108  0.3334 -0.7032
  178SLPC   C2720307   3.851   3.604  10.039  0.7504  0.4200 -0.4233
  178SLPC   H7R20308   3.823   3.710  10.055  0.4615  0.1476  0.9663
  178SLPC   H7S20309   3.754   3.550  10.040  0.4931  0.8774  0.9490
  178SLPC   C2820310   3.916   3.565   9.902 -0.4533 -0.1446  0.4359
  178SLPC   H8R20311   3.841   3.582   9.822  0.1018  0.3502  0.0111
  178SLPC   H8S20312   3.935   3.456   9.894  0.5331  0.1321 -1.3821
  178SLPC   C2920313   4.058   3.629   9.877  0.5638 -0.4073 -0.3664
  178SLPC   H9R20314   4.114   3.664   9.965  0.8259  0.9634 -1.0488
  178SLPC  C21020315   4.106   3.660   9.752 -0.0908 -0.7065  0.6537
  178SLPC  H10R20316   4.213   3.686   9.749  0.6472 -3.3648  1.3060
  178SLPC  C21120317   4.026   3.632   9.623 -0.1530 -1.0475 -0.5862
  178SLPC  H11R20318   3.956   3.716   9.610  0.6311 -0.1005  0.9818
  178SLPC  H11S20319   3.959   3.543   9.632 -2.9939  0.7764 -2.1877
  178SLPC  C21220320   4.117   3.610   9.501 -0.6520  0.4602 -0.4538
  178SLPC  H12R20321   4.179   3.520   9.501 -0.2215  0.7528 -0.7688
  178SLPC  C21320322   4.131   3.706   9.402  0.4350  0.8350 -0.0018
  178SLPC  H13R20323   4.186   3.672   9.313 -2.4891 -2.9038 -0.6544
  178SLPC  C21420324   4.071   3.836   9.391  0.0531 -0.7790  0.5319
  178SLPC  H14R20325   4.155   3.906   9.415  0.0184  0.4564 -2.4831
  178SLPC  H14S20326   3.991   3.865   9.462 -0.3517  0.3253 -0.3293
  178SLPC  C21520327   4.019   3.873   9.246 -0.2421  0.0482 -0.3098
  178SLPC  H15R20328   3.988   3.980   9.255  1.0762  0.2876  5.1926
  178SLPC  H15S20329   3.938   3.807   9.210 -0.6485  0.3198  0.0918
  178SLPC  C21620330   4.131   3.878   9.139 -0.6090 -0.1316 -0.0799
  178SLPC  H16R20331   4.185   3.781   9.130  3.5485  2.1303 -2.0887
  178SLPC  H16S20332   4.214   3.940   9.178  0.0761 -1.2999  0.3562
  178SLPC  C21720333   4.076   3.932   9.009 -0.1435  0.5808 -0.4355
  178SLPC  H17R20334   4.160   3.946   8.938  1.9005  1.5816  2.0021
  178SLPC  H17S20335   4.037   4.036   9.023  2.0776  1.6313 -1.5472
  178SLPC  C21820336   3.972   3.845   8.937  0.2905  0.6583 -0.2675
  178SLPC  H18R20337   3.920   3.904   8.858  1.0385 -0.6435 -1.7872
  178SLPC  H18S20338   3.886   3.812   9.000  1.3368  0.8162  1.3071
  178SLPC  H18T20339   4.018   3.760   8.882  0.8265  0.1817  0.8831
  178SLPC   C3320340   4.490   3.756  10.206  0.3016  0.2157  0.8165
  178SLPC   H3X20341   4.509   3.649  10.229  0.5601  0.1011  0.1284
  178SLPC   H3Y20342   4.588   3.808  10.204  0.5960 -0.3177 -0.9447
  178SLPC   C3420343   4.428   3.773  10.067 -0.6250  0.2824 -0.6012
  178SLPC   H4X20344   4.347   3.699  10.050 -2.5530  1.6375  1.9552
  178SLPC   H4Y20345   4.502   3.748   9.988  0.5108  1.7037 -0.0252
  178SLPC   C3520346   4.368   3.905  10.039  0.2774 -0.5803 -0.1180
  178SLPC   H5X20347   4.444   3.983  10.059  0.4139 -1.1762  1.8671
  178SLPC   H5Y20348   4.272   3.916  10.092 -1.3375  0.7721 -3.0823
  178SLPC   C3620349   4.333   3.924   9.895 -0.4416  0.5739  0.4385
  178SLPC   H6X20350   4.268   4.011   9.873  2.3511  2.8400  0.5725
  178SLPC   H6Y20351   4.285   3.829   9.862  0.6079  1.4355 -4.3779
  178SLPC   C3720352   4.458   3.949   9.805 -0.1409  0.1066 -0.7096
  178SLPC   H7X20353   4.527   3.862   9.800 -0.5459 -0.3332  0.9045
  178SLPC   H7Y20354   4.516   4.030   9.853  2.4474 -2.6007  1.0665
  178SLPC   C3820355   4.411   3.997   9.660 -0.7186 -0.0892  0.1675
  178SLPC   H8X20356   4.362   4.096   9.663  1.8435  1.5553 -3.8160
  178SLPC   H8Y20357   4.339   3.920   9.627  0.0467 -0.2504 -1.1994
  178SLPC   C3920358   4.526   3.994   9.559  0.0804 -1.1232  0.1372
  178SLPC   H9X20359   4.587   3.902   9.571  3.5104  0.4467 -3.1353
  178SLPC   H9Y20360   4.597   4.079   9.571 -0.5864 -0.5137 -0.1482
  178SLPC  C31020361   4.474   3.996   9.416  0.0896 -0.5131  0.3107
  178SLPC  H10X20362   4.415   4.090   9.404  1.4964  0.8159  2.8539
  178SLPC  H10Y20363   4.403   3.912   9.399 -0.6777  0.1327  0.2547
  178SLPC  C31120364   4.576   3.991   9.298  0.6683  0.1582  0.0891
  178SLPC  H11X20365   4.662   3.931   9.336  0.8829  0.8481  0.7092
  178SLPC  H11Y20366   4.609   4.095   9.284 -1.1675  0.8663  0.6929
  178SLPC  C31220367   4.514   3.922   9.172  0.0841 -0.3706 -0.1975
  178SLPC  H12X20368   4.431   3.987   9.135  0.8187  1.5074  1.2664
  178SLPC  H12Y20369   4.475   3.826   9.213  0.1581  0.2179  1.3107
  178SLPC  C31320370   4.610   3.914   9.050  0.3162  0.4665  0.0172
  178SLPC  H13X20371   4.588   3.836   8.973 -2.4666 -0.6371  1.7389
  178SLPC  H13Y20372   4.706   3.881   9.096 -0.7013  1.0703  2.8118
  178SLPC  C31420373   4.633   4.037   8.972 -0.2993  0.0009  0.1532
  178SLPC  H14X20374   4.670   4.119   9.038  0.6912  0.1940 -0.6162
  178SLPC  H14Y20375   4.539   4.069   8.922  0.1848  1.8849  0.3702
  178SLPC  C31520376   4.750   4.021   8.876  0.2365 -0.1547 -0.2770
  178SLPC  H15X20377   4.823   3.947   8.914 -1.6477 -1.9163  0.0606
  178SLPC  H15Y20378   4.707   3.980   8.782  1.2377 -2.4263  0.2169
  178SLPC  C31620379   4.834   4.157   8.850  0.1870 -0.1737  0.0450
  178SLPC  H16X20380   4.928   4.119   8.805  1.7889  2.5584  0.8641
  178SLPC  H16Y20381   4.867   4.203   8.945  3.2585 -0.7624 -0.6512
  178SLPC  C31720382   4.766   4.250   8.751 -0.3177  0.0293  0.4965
  178SLPC  H17X20383   4.823   4.345   8.754  2.1911 -1.3749  0.1132
  178SLPC  H17Y20384   4.659   4.265   8.775 -0.8300 -0.5953 -1.2071
  178SLPC  C31820385   4.779   4.207   8.605 -0.1589 -0.2216  0.5306
  178SLPC  H18X20386   4.698   4.245   8.539  0.1628 -1.4079 -0.5978
  178SLPC  H18Y20387   4.772   4.098   8.585 -2.4740  0.2020 -1.3685
  178SLPC  H18Z20388   4.882   4.228   8.568 -0.1521 -3.2997 -1.5934
  179SLPC     N20389   6.135   0.710  10.698  0.1491  0.4059 -0.0472
  179SLPC   C1320390   6.053   0.700  10.818  0.2857  0.1051 -0.1198
  179SLPC  H13A20391   6.086   0.776  10.887  0.8840 -0.6686  0.4675
  179SLPC  H13B20392   5.948   0.722  10.800  1.1384  2.4264 -3.0432
  179SLPC  H13C20393   6.060   0.604  10.868  0.5331 -0.2271 -0.7796
  179SLPC   C1420394   6.276   0.662  10.731 -0.4967  0.0296 -0.8509
  179SLPC  H14A20395   6.309   0.725  10.812  1.6441 -1.1757 -0.7057
  179SLPC  H14B20396   6.288   0.557  10.751  2.2036  0.5427  0.7232
  179SLPC  H14C20397   6.339   0.688  10.646  1.1378 -0.6076  0.1227
  179SLPC   C1520398   6.149   0.857  10.672 -0.0156 -0.2547 -0.4682
  179SLPC  H15A20399   6.056   0.908  10.648 -0.6017 -0.5115  1.1402
  179SLPC  H15B20400   6.191   0.904  10.760  0.1612  2.0405 -1.6961
  179SLPC  H15C20401   6.216   0.871  10.588  2.0767 -1.7767  0.8793
  179SLPC   C1220402   6.072   0.637  10.584  0.0717 -0.0520  0.0039
  179SLPC  H12A20403   6.072   0.531  10.605 -2.8804  0.0594  1.1208
  179SLPC  H12B20404   6.130   0.657  10.495 -0.6601 -0.6368 -0.6187
  179SLPC   C1120405   5.924   0.673  10.544 -0.2296 -0.0419 -0.1984
  179SLPC  H11A20406   5.870   0.651  10.638 -1.8193 -0.5991 -1.2109
  179SLPC  H11B20407   5.891   0.615  10.456  1.1802  1.4989 -1.8315
  179SLPC     P20408   5.964   0.876  10.368  0.4065  0.0856  0.1233
  179SLPC   O1320409   5.946   1.024  10.354  0.3289  0.1009 -0.5522
  179SLPC   O1420410   6.095   0.812  10.333  0.8952 -0.4503 -0.0571
  179SLPC   O1220411   5.904   0.812  10.507 -0.2074  0.1059  0.0340
  179SLPC   O1120412   5.848   0.815  10.273 -0.0078 -0.6781  0.0341
  179SLPC    C120413   5.863   0.828  10.132  0.0097  0.4369  0.1436
  179SLPC    HA20414   5.786   0.896  10.089  1.4029  0.8849 -1.7802
  179SLPC    HB20415   5.960   0.873  10.102  0.6638 -0.2284  1.2369
  179SLPC    C220416   5.864   0.696  10.065 -0.4721 -0.2637 -0.0439
  179SLPC    HS20417   5.943   0.634  10.114 -0.0621  1.2993  1.3641
  179SLPC   O2120418   5.878   0.700   9.921  0.1303  0.2996 -0.9021
  179SLPC   C2120419   5.996   0.691   9.864 -0.4201 -0.4170 -0.6716
  179SLPC   O2220420   6.106   0.695   9.923 -0.4179  0.0213 -0.5820
  179SLPC   C2220421   5.979   0.663   9.713 -0.2310 -0.2298  0.0655
  179SLPC   H2R20422   5.950   0.755   9.658  1.5992  0.2214 -0.2007
  179SLPC   H2S20423   6.079   0.619   9.689 -1.0544 -2.2486  0.0847
  179SLPC    C320424   5.745   0.598  10.099  0.6401  0.3349 -0.1471
  179SLPC    HX20425   5.663   0.670  10.075 -0.7110 -0.5530  1.5817
  179SLPC    HY20426   5.744   0.571  10.207  1.7355 -2.7479 -0.8238
  179SLPC   O3120427   5.749   0.489  10.010  0.0098 -0.2751  0.1037
  179SLPC   C3120428   5.631   0.446   9.976  0.1636  0.4687  0.0898
  179SLPC   O3220429   5.524   0.495  10.008  0.2817  0.5479  0.0484
  179SLPC   C3220430   5.651   0.303   9.920 -0.2308 -0.7980 -0.2058
  179SLPC   H2X20431   5.686   0.232   9.998  0.2928 -0.0606  0.2405
  179SLPC   H2Y20432   5.738   0.311   9.852 -0.3073  0.0843 -0.2053
  179SLPC   C2320433   5.876   0.554   9.692  0.7927  0.0007 -0.3379
  179SLPC   H3R20434   5.778   0.599   9.716  0.8290  0.4967 -1.0642
  179SLPC   H3S20435   5.897   0.474   9.765 -1.4724 -0.4436 -0.1161
  179SLPC   C2420436   5.885   0.490   9.550 -0.0771 -0.6654  0.1565
  179SLPC   H4R20437   5.973   0.422   9.548  0.6410  0.2158  0.6611
  179SLPC   H4S20438   5.916   0.572   9.482  1.3331 -0.7758  0.6341
  179SLPC   C2520439   5.754   0.429   9.508 -0.7942 -0.0532  0.5674
  179SLPC   H5R20440   5.673   0.503   9.492 -2.8378 -1.7837  2.2699
  179SLPC   H5S20441   5.715   0.362   9.588 -2.0129  0.7500  0.6661
  179SLPC   C2620442   5.755   0.347   9.378  0.6779  0.3751 -0.3673
  179SLPC   H6R20443   5.651   0.310   9.362  0.9631 -0.1312 -1.1375
  179SLPC   H6S20444   5.816   0.257   9.403  1.7018  1.5659  1.7097
  179SLPC   C2720445   5.807   0.422   9.255  0.6746  0.1285  0.0605
  179SLPC   H7R20446   5.910   0.461   9.270  1.0524 -0.3441 -1.1511
  179SLPC   H7S20447   5.744   0.511   9.234  0.9410  0.2178 -0.3672
  179SLPC   C2820448   5.817   0.333   9.121  0.8650 -0.1096  0.9486
  179SLPC   H8R20449   5.861   0.239   9.162 -0.7902 -1.3591 -0.0083
  179SLPC   H8S20450   5.897   0.378   9.059 -0.6743  1.1158 -0.2077
  179SLPC   C2920451   5.693   0.303   9.042  0.6965  0.6168 -0.2883
  179SLPC   H9R20452   5.603   0.267   9.094 -0.0004  0.6977 -1.4015
  179SLPC  C21020453   5.679   0.316   8.909 -0.4119  0.0712  0.5735
  179SLPC  H10R20454   5.594   0.262   8.866  1.1551 -1.7955 -0.3213
  179SLPC  C21120455   5.782   0.364   8.809 -0.4774  0.6154 -0.7271
  179SLPC  H11R20456   5.857   0.430   8.857  0.1157 -0.4594 -0.1473
  179SLPC  H11S20457   5.719   0.420   8.736  0.1180  0.8928 -1.0417
  179SLPC  C21220458   5.857   0.249   8.738 -0.3819 -0.0900  0.6945
  179SLPC  H12R20459   5.837   0.145   8.765 -0.8792 -0.1926 -0.0505
  179SLPC  C21320460   5.947   0.280   8.641  0.2486 -0.6840  1.1557
  179SLPC  H13R20461   5.993   0.201   8.580  0.7627 -1.6317  2.7005
  179SLPC  C21420462   5.970   0.420   8.593  0.3108 -0.3901  1.0242
  179SLPC  H14R20463   5.891   0.495   8.616  0.1160  0.2829 -1.5137
  179SLPC  H14S20464   5.980   0.433   8.483 -0.6279 -1.9003  0.7298
  179SLPC  C21520465   6.093   0.475   8.678  0.0874 -0.3826 -0.4447
  179SLPC  H15R20466   6.078   0.461   8.787  0.4277  0.6673 -0.2496
  179SLPC  H15S20467   6.107   0.584   8.659 -0.2371 -0.4385 -1.0191
  179SLPC  C21620468   6.233   0.410   8.645 -0.4275 -0.3147  0.6254
  179SLPC  H16R20469   6.249   0.447   8.542 -1.6709  0.1537  0.5829
  179SLPC  H16S20470   6.220   0.300   8.644 -3.9506  0.0064 -0.6720
  179SLPC  C21720471   6.353   0.455   8.723  0.5134 -0.3688  0.4262
  179SLPC  H17R20472   6.373   0.564   8.711 -0.8531 -0.3155 -1.9061
  179SLPC  H17S20473   6.446   0.403   8.692 -0.0545 -2.4954  2.0350
  179SLPC  C21820474   6.347   0.424   8.879  0.0590  0.5330  0.0076
  179SLPC  H18R20475   6.438   0.466   8.927  1.1794 -2.1323  0.3755
  179SLPC  H18S20476   6.335   0.314   8.894 -3.8029  0.3457 -2.8644
  179SLPC  H18T20477   6.259   0.474   8.925 -0.0982  0.0039  0.2921
  179SLPC   C3320478   5.516   0.240   9.871 -0.6541  0.9110 -0.3425
  179SLPC   H3X20479   5.426   0.261   9.932 -0.0714  0.0270  0.8388
  179SLPC   H3Y20480   5.523   0.130   9.879  1.3875  1.0751  0.7833
  179SLPC   C3420481   5.473   0.274   9.726 -0.0276 -0.3081 -0.3653
  179SLPC   H4X20482   5.562   0.246   9.666 -0.4519 -0.1083 -1.1039
  179SLPC   H4Y20483   5.429   0.375   9.717 -1.6591 -1.0422 -1.0469
  179SLPC   C3520484   5.351   0.189   9.682  0.1249 -0.2346  0.7171
  179SLPC   H5X20485   5.273   0.191   9.762 -1.6982 -2.7965 -0.8575
  179SLPC   H5Y20486   5.388   0.086   9.666  0.6372  0.0669 -0.0923
  179SLPC   C3620487   5.272   0.240   9.560 -0.2980 -0.3126 -0.4290
  179SLPC   H6X20488   5.222   0.337   9.580  0.4443 -0.1464  0.7041
  179SLPC   H6Y20489   5.189   0.170   9.536 -1.6306  1.2386 -0.5563
  179SLPC   C3720490   5.358   0.248   9.438 -0.2325  0.1756 -0.3744
  179SLPC   H7X20491   5.415   0.154   9.427 -0.6224 -0.1330  0.2196
  179SLPC   H7Y20492   5.422   0.339   9.432  1.7649 -0.8656  2.5840
  179SLPC   C3820493   5.264   0.251   9.316 -0.6650 -0.1537  1.8875
  179SLPC   H8X20494   5.202   0.343   9.324  2.4049  2.1353  1.4007
  179SLPC   H8Y20495   5.200   0.161   9.321  0.3521 -0.9579  0.8307
  179SLPC   C3920496   5.344   0.247   9.184 -0.0060  0.3544 -0.1491
  179SLPC   H9X20497   5.419   0.167   9.203  1.1288  1.4646  0.1958
  179SLPC   H9Y20498   5.403   0.340   9.171  1.2588  0.1760  3.4024
  179SLPC  C31020499   5.252   0.216   9.068  0.0818  0.1804  0.5691
  179SLPC  H10X20500   5.163   0.284   9.066  0.5689  0.8256  0.2651
  179SLPC  H10Y20501   5.203   0.119   9.088 -3.5782  1.3023 -1.7036
  179SLPC  C31120502   5.332   0.214   8.931 -0.7264 -0.5581  0.3640
  179SLPC  H11X20503   5.425   0.159   8.954  1.4575  2.6908 -0.1238
  179SLPC  H11Y20504   5.369   0.317   8.910  1.1659 -0.7917  2.3127
  179SLPC  C31220505   5.255   0.154   8.804 -1.1586  1.1240 -0.1286
  179SLPC  H12X20506   5.169   0.224   8.793  0.1769  2.9458  0.6242
  179SLPC  H12Y20507   5.224   0.051   8.832  2.4371 -0.7622 -2.3413
  179SLPC  C31320508   5.344   0.139   8.672 -0.2427  0.3480 -0.3176
  179SLPC  H13X20509   5.428   0.066   8.673  0.0429  0.6469 -1.3849
  179SLPC  H13Y20510   5.386   0.241   8.657 -1.8560  0.9934 -0.5933
  179SLPC  C31420511   5.250   0.098   8.557 -0.8231  1.0508  0.5389
  179SLPC  H14X20512   5.312   0.106   8.465  0.8614 -0.7564  1.4440
  179SLPC  H14Y20513   5.158   0.160   8.547 -2.3939 -1.1221  0.7705
  179SLPC  C31520514   5.210  -0.046   8.557 -0.3551  0.1199 -0.1117
  179SLPC  H15X20515   5.153  -0.060   8.651 -1.0722  1.4453 -0.3196
  179SLPC  H15Y20516   5.298  -0.113   8.555  0.3810  0.9743  1.6588
  179SLPC  C31620517   5.129  -0.079   8.433  0.5932 -0.2976 -0.3837
  179SLPC  H16X20518   5.191  -0.062   8.342  0.6641  0.9008 -0.1300
  179SLPC  H16Y20519   5.049  -0.003   8.436  0.8687  0.0097  2.4916
  179SLPC  C31720520   5.080  -0.230   8.421 -0.4752  0.1584 -0.4981
  179SLPC  H17X20521   5.046  -0.255   8.524  1.0433 -3.5653 -0.7470
  179SLPC  H17Y20522   5.166  -0.298   8.405 -0.6825 -0.1948 -0.1315
  179SLPC  C31820523   4.979  -0.267   8.311 -0.5602 -0.3257 -0.2547
  179SLPC  H18X20524   4.886  -0.210   8.332 -0.9469  0.2185 -2.9699
  179SLPC  H18Y20525   4.955  -0.375   8.313 -0.0430 -0.4411  2.0151
  179SLPC  H18Z20526   5.014  -0.241   8.208  0.6407 -1.8013 -0.2490
  180SLPC     N20527   4.460   0.557  10.823  0.1171 -0.0314  0.3405
  180SLPC   C1320528   4.408   0.640  10.713  0.2065  0.8333 -0.4046
  180SLPC  H13A20529   4.489   0.704  10.680  1.1669 -0.1770 -0.0524
  180SLPC  H13B20530   4.392   0.575  10.628  2.6533 -2.5375  1.4841
  180SLPC  H13C20531   4.315   0.692  10.728  0.1689  0.2165  1.8877
  180SLPC   C1420532   4.344   0.475  10.865  0.1588 -0.2835 -0.2096
  180SLPC  H14A20533   4.364   0.400  10.940 -3.4200 -2.6516 -1.4014
  180SLPC  H14B20534   4.260   0.536  10.895 -0.2237 -0.3813 -1.0596
  180SLPC  H14C20535   4.316   0.409  10.784  0.6496  1.0493 -1.5193
  180SLPC   C1520536   4.498   0.647  10.936 -0.2346 -0.4709  0.4766
  180SLPC  H15A20537   4.557   0.610  11.019 -0.6565 -0.7515  0.6579
  180SLPC  H15B20538   4.559   0.722  10.889 -1.7644 -1.5084 -3.5542
  180SLPC  H15C20539   4.411   0.701  10.971  0.8944  1.2019  0.8051
  180SLPC   C1220540   4.576   0.472  10.782 -1.0445  0.5085  0.7683
  180SLPC  H12A20541   4.555   0.416  10.691  1.3869  0.4702  0.1686
  180SLPC  H12B20542   4.593   0.398  10.858  1.7406 -0.3904 -0.6170
  180SLPC   C1120543   4.713   0.537  10.754  1.1328  0.1244 -0.4864
  180SLPC  H11A20544   4.795   0.463  10.756  0.4394 -0.6502  1.6646
  180SLPC  H11B20545   4.738   0.604  10.839 -0.3879  1.4426 -1.0105
  180SLPC     P20546   4.739   0.546  10.492  0.1185  0.0392 -0.5160
  180SLPC   O1320547   4.868   0.478  10.505 -0.6942  0.2401 -0.2299
  180SLPC   O1420548   4.616   0.467  10.472  0.5580 -0.0430 -0.4313
  180SLPC   O1220549   4.711   0.616  10.632 -0.0000  0.6304 -0.1967
  180SLPC   O1120550   4.757   0.664  10.387 -0.1698 -0.1564 -0.0604
  180SLPC    C120551   4.654   0.763  10.361 -0.4449 -0.0379 -0.1746
  180SLPC    HA20552   4.598   0.781  10.455 -1.8470 -1.2898 -0.7261
  180SLPC    HB20553   4.706   0.860  10.345  0.0082 -0.1745  0.4602
  180SLPC    C220554   4.566   0.713  10.248  0.6919  0.0907  0.7154
  180SLPC    HS20555   4.543   0.609  10.277  0.1100 -0.3340 -1.1569
  180SLPC   O2120556   4.631   0.714  10.119 -0.4291 -0.7657  0.0937
  180SLPC   C2120557   4.604   0.622  10.029 -0.3323  0.1865  0.0747
  180SLPC   O2220558   4.536   0.522  10.042 -0.5809  0.6984 -0.0212
  180SLPC   C2220559   4.670   0.656   9.896 -0.1767  0.6444  0.3667
  180SLPC   H2R20560   4.743   0.736   9.922  1.4394 -0.3283 -0.9786
  180SLPC   H2S20561   4.717   0.563   9.857  0.4801  1.3193 -0.4923
  180SLPC    C320562   4.429   0.781  10.255 -0.6663 -0.3596  0.1892
  180SLPC    HX20563   4.439   0.892  10.256 -0.2444 -0.3943  0.0311
  180SLPC    HY20564   4.368   0.766  10.347 -0.6891  0.4476  0.3180
  180SLPC   O3120565   4.354   0.759  10.134  0.6149  0.0672 -0.1930
  180SLPC   C3120566   4.263   0.659  10.144 -0.9645 -0.4993  0.0668
  180SLPC   O3220567   4.257   0.575  10.232 -0.4682 -0.1167 -0.5304
  180SLPC   C3220568   4.164   0.660  10.022 -0.1346 -0.7812 -0.8605
  180SLPC   H2X20569   4.084   0.733  10.046  1.1326  0.5889 -0.6645
  180SLPC   H2Y20570   4.120   0.558  10.012  3.6093 -2.6082 -0.4424
  180SLPC   C2320571   4.573   0.699   9.778  0.5244  0.9425  0.0271
  180SLPC   H3R20572   4.515   0.782   9.824 -0.7629  0.0755  0.0051
  180SLPC   H3S20573   4.504   0.614   9.760 -0.0720  1.1776  1.1265
  180SLPC   C2420574   4.634   0.753   9.648 -0.0887  0.0384 -0.3661
  180SLPC   H4R20575   4.712   0.677   9.626 -0.1946  0.2868 -1.6289
  180SLPC   H4S20576   4.676   0.851   9.676  0.3511 -0.4117  0.6111
  180SLPC   C2520577   4.537   0.764   9.532  0.1006 -0.7717  0.1972
  180SLPC   H5R20578   4.446   0.820   9.562  0.9059  0.3572  0.5727
  180SLPC   H5S20579   4.496   0.668   9.494 -2.6501  0.6810 -0.7642
  180SLPC   C2620580   4.612   0.844   9.422  0.2785  0.0550  0.0852
  180SLPC   H6R20581   4.708   0.794   9.397 -0.6150 -0.5146 -2.4752
  180SLPC   H6S20582   4.643   0.939   9.470 -0.4888 -0.7970  2.4317
  180SLPC   C2720583   4.535   0.868   9.291 -0.0621 -0.6010  0.2491
  180SLPC   H7R20584   4.602   0.910   9.212  0.4447 -0.1654  0.9012
  180SLPC   H7S20585   4.475   0.958   9.317  1.1167  0.1299  0.5431
  180SLPC   C2820586   4.464   0.749   9.237  0.3105  1.2334  0.4263
  180SLPC   H8R20587   4.397   0.702   9.311  0.5191 -2.3030 -1.4229
  180SLPC   H8S20588   4.543   0.678   9.205  0.6119  1.9111 -0.3570
  180SLPC   C2920589   4.371   0.781   9.128  0.2395 -0.0919  0.4113
  180SLPC   H9R20590   4.273   0.809   9.170  0.9303  0.8933  1.4530
  180SLPC  C21020591   4.398   0.771   9.002 -0.3829 -0.1965  0.4534
  180SLPC  H10R20592   4.319   0.797   8.930 -0.3825 -1.7354 -0.1194
  180SLPC  C21120593   4.527   0.728   8.934  0.0194  0.7286  0.0927
  180SLPC  H11R20594   4.612   0.781   8.983 -0.5604  0.2710  1.6868
  180SLPC  H11S20595   4.518   0.759   8.828  1.8324  0.9080 -0.0398
  180SLPC  C21220596   4.540   0.578   8.948  0.1500  0.2326  0.4987
  180SLPC  H12R20597   4.464   0.521   9.004 -0.9795  1.9700  0.7829
  180SLPC  C21320598   4.633   0.508   8.881  0.3372  0.1165 -0.3182
  180SLPC  H13R20599   4.637   0.401   8.907  2.3465 -0.0368 -1.0621
  180SLPC  C21420600   4.735   0.558   8.791 -0.3374 -0.5634 -0.6331
  180SLPC  H14R20601   4.763   0.662   8.817 -0.6889 -0.8081  0.8316
  180SLPC  H14S20602   4.696   0.568   8.688  2.6047  2.7049 -1.6473
  180SLPC  C21520603   4.865   0.478   8.777 -0.1329 -0.4141  0.5322
  180SLPC  H15R20604   4.846   0.384   8.721  4.7623 -0.6078 -1.3232
  180SLPC  H15S20605   4.904   0.453   8.878 -0.3950  1.4207  1.1168
  180SLPC  C21620606   4.971   0.552   8.704  0.3151  0.2548  0.0259
  180SLPC  H16R20607   5.015   0.639   8.758  0.2327  1.0091 -1.0654
  180SLPC  H16S20608   4.929   0.607   8.617 -1.0795 -2.1942 -0.9229
  180SLPC  C21720609   5.080   0.466   8.637  0.8959 -0.0079  0.1383
  180SLPC  H17R20610   5.033   0.376   8.593  2.9862 -0.9649 -0.2734
  180SLPC  H17S20611   5.141   0.431   8.723  0.7032 -0.1098  0.2326
  180SLPC  C21820612   5.167   0.522   8.519  0.1010 -0.4184  0.5286
  180SLPC  H18R20613   5.206   0.618   8.559 -0.9851 -0.1302  0.9439
  180SLPC  H18S20614   5.108   0.536   8.426 -0.0963  0.6172  0.7946
  180SLPC  H18T20615   5.252   0.456   8.492  0.6747  1.2948 -2.3189
  180SLPC   C3320616   4.240   0.687   9.888 -0.6426 -0.4257  0.2386
  180SLPC   H3X20617   4.303   0.601   9.856  3.0730  2.3817 -0.7083
  180SLPC   H3Y20618   4.312   0.771   9.899 -0.1189 -0.8448  0.0700
  180SLPC   C3420619   4.135   0.720   9.789 -0.2430 -0.0893  0.2344
  180SLPC   H4X20620   4.087   0.820   9.781 -3.3102 -1.3357  1.2819
  180SLPC   H4Y20621   4.045   0.666   9.827 -3.0579  2.5690 -2.1055
  180SLPC   C3520622   4.174   0.668   9.654  0.0643 -0.1256  0.0051
  180SLPC   H5X20623   4.216   0.566   9.664 -2.2315 -1.5473 -3.0659
  180SLPC   H5Y20624   4.253   0.720   9.597  0.8289 -0.2812  0.8854
  180SLPC   C3620625   4.047   0.662   9.559  0.3739 -0.3815  0.3722
  180SLPC   H6X20626   4.021   0.766   9.532  1.3902 -0.4987 -1.1668
  180SLPC   H6Y20627   3.975   0.598   9.615  1.3670 -2.3196 -0.4799
  180SLPC   C3720628   4.079   0.589   9.428  0.5930 -0.4990 -0.3996
  180SLPC   H7X20629   4.124   0.488   9.440  2.9688  0.6952  1.9501
  180SLPC   H7Y20630   4.144   0.661   9.373  0.7676 -0.3891 -0.0528
  180SLPC   C3820631   3.962   0.575   9.337  0.4765  0.0457 -0.0168
  180SLPC   H8X20632   3.929   0.673   9.297 -1.2166 -0.6308 -0.3518
  180SLPC   H8Y20633   3.870   0.542   9.391 -0.1508  1.5671 -0.1080
  180SLPC   C3920634   3.970   0.475   9.216 -0.2975 -0.5493  0.7309
  180SLPC   H9X20635   3.876   0.424   9.186 -0.5288 -0.2212  0.8892
  180SLPC   H9Y20636   4.045   0.401   9.251  0.2545 -0.9103 -1.0780
  180SLPC  C31020637   4.042   0.521   9.087 -0.2772  0.0264 -0.0557
  180SLPC  H10X20638   4.149   0.521   9.117 -0.3793 -0.2867  0.3144
  180SLPC  H10Y20639   4.016   0.628   9.074  0.7303  0.2381 -0.4366
  180SLPC  C31120640   4.021   0.437   8.965  0.3702 -0.0374  0.6091
  180SLPC  H11X20641   3.917   0.444   8.928  0.5530  0.9792  0.2627
  180SLPC  H11Y20642   4.059   0.337   8.996 -0.7291 -0.9357 -0.8090
  180SLPC  C31220643   4.122   0.471   8.852  0.1574  0.3815  0.1636
  180SLPC  H12X20644   4.226   0.456   8.887  0.3120 -0.9112 -0.8090
  180SLPC  H12Y20645   4.117   0.580   8.830 -0.0752  0.2563 -0.4011
  180SLPC  C31320646   4.097   0.400   8.722 -0.2323 -0.4418  0.0432
  180SLPC  H13X20647   4.005   0.433   8.669  1.2015  2.6833 -0.7389
  180SLPC  H13Y20648   4.086   0.291   8.739 -0.4261 -0.1469  1.9807
  180SLPC  C31420649   4.207   0.415   8.618 -0.1246  0.5070  0.0963
  180SLPC  H14X20650   4.213   0.334   8.542 -0.8004  2.0267 -1.6638
  180SLPC  H14Y20651   4.305   0.409   8.670 -1.4499 -1.1811  2.6191
  180SLPC  C31520652   4.198   0.542   8.530  0.9941  0.3661 -0.3611
  180SLPC  H15X20653   4.131   0.621   8.572 -0.9147 -0.2641 -2.0800
  180SLPC  H15Y20654   4.162   0.522   8.427 -1.3663  3.6617 -0.3524
  180SLPC  C31620655   4.342   0.604   8.529  0.2050  0.4479 -0.3714
  180SLPC  H16X20656   4.425   0.549   8.479  0.9617 -0.1351  1.4452
  180SLPC  H16Y20657   4.373   0.619   8.634  1.1658 -1.6510 -0.3059
  180SLPC  C31720658   4.326   0.737   8.454  0.2595 -0.4182  0.0904
  180SLPC  H17X20659   4.232   0.783   8.492 -0.5518 -2.3948  0.5768
  180SLPC  H17Y20660   4.295   0.698   8.355 -0.7602  0.0315  0.2219
  180SLPC  C31820661   4.449   0.828   8.442 -0.2223  0.3729  0.5768
  180SLPC  H18X20662   4.421   0.929   8.404  0.0200  0.2141 -0.0246
  180SLPC  H18Y20663   4.524   0.789   8.371 -1.2756  0.4043 -0.5913
  180SLPC  H18Z20664   4.503   0.843   8.538 -1.2791  2.1313  0.9592
  181SLPC     N20665   2.631   2.292  11.016 -0.7632  0.3119  0.0563
  181SLPC   C1320666   2.605   2.374  10.891 -0.5738  0.5853  0.1911
  181SLPC  H13A20667   2.506   2.360  10.851  0.3300 -0.4061 -1.8759
  181SLPC  H13B20668   2.611   2.480  10.909  2.4134  0.2336  1.8756
  181SLPC  H13C20669   2.668   2.340  10.810 -0.1801  0.0961  0.6892
  181SLPC   C1420670   2.654   2.149  10.988 -0.2648 -0.1228 -0.0010
  181SLPC  H14A20671   2.728   2.130  10.912  0.5243 -0.5195  0.8481
  181SLPC  H14B20672   2.696   2.102  11.076  1.2012  1.4794  0.2048
  181SLPC  H14C20673   2.570   2.096  10.947 -0.8242  0.7329  0.0188
  181SLPC   C1520674   2.514   2.309  11.103 -0.7767 -0.1720  0.1617
  181SLPC  H15A20675   2.499   2.415  11.122  0.4075 -0.0179  0.2791
  181SLPC  H15B20676   2.429   2.267  11.052  1.4650  0.8812 -5.0769
  181SLPC  H15C20677   2.525   2.263  11.201 -0.1861 -0.3405  0.0201
  181SLPC   C1220678   2.764   2.358  11.075  0.5728 -0.0565  0.4935
  181SLPC  H12A20679   2.850   2.329  11.016  1.4203  0.9992  1.1910
  181SLPC  H12B20680   2.776   2.307  11.169 -0.3223 -0.8926  0.1798
  181SLPC   C1120681   2.756   2.515  11.096  0.1226  0.0369  0.2835
  181SLPC  H11A20682   2.846   2.539  11.157  0.1243 -1.2677  0.8395
  181SLPC  H11B20683   2.669   2.538  11.162  0.0202  0.7042 -0.0802
  181SLPC     P20684   2.884   2.591  10.877  0.2236  0.3201 -0.0116
  181SLPC   O1320685   2.994   2.505  10.926  0.2485 -0.3113  0.0525
  181SLPC   O1420686   2.843   2.572  10.737  0.1572 -0.3589 -0.1264
  181SLPC   O1220687   2.759   2.588  10.977 -0.1584 -0.3479  0.0539
  181SLPC   O1120688   2.942   2.735  10.901 -0.0844  0.4148  0.0964
  181SLPC    C120689   2.858   2.850  10.891 -0.8692 -0.2448 -0.2971
  181SLPC    HA20690   2.770   2.860  10.957 -0.1337  3.2253  0.3609
  181SLPC    HB20691   2.922   2.935  10.922  1.2919 -2.5570  2.1290
  181SLPC    C220692   2.819   2.881  10.741 -0.8159 -0.5032 -0.0830
  181SLPC    HS20693   2.767   2.803  10.682  0.6694  1.2484 -4.0258
  181SLPC   O2120694   2.952   2.908  10.675  0.8594  1.0269 -0.7594
  181SLPC   C2120695   2.960   2.846  10.549  0.1184 -0.4715 -0.4878
  181SLPC   O2220696   2.873   2.789  10.493  0.8173  0.0731  0.5254
  181SLPC   C2220697   3.090   2.874  10.481 -0.3922  0.2159 -0.0985
  181SLPC   H2R20698   3.171   2.811  10.522  1.4761  2.3329 -0.3385
  181SLPC   H2S20699   3.074   2.839  10.377 -0.9755 -1.0886  0.4129
  181SLPC    C320700   2.741   3.014  10.724 -0.5024 -0.0965  0.2341
  181SLPC    HX20701   2.814   3.077  10.778 -0.7880  0.3941  0.0492
  181SLPC    HY20702   2.644   3.020  10.778 -0.2877  1.1640  0.4961
  181SLPC   O3120703   2.729   3.055  10.587 -0.7285 -0.6304 -0.0175
  181SLPC   C3120704   2.641   2.984  10.520  0.5414  0.5086  0.0691
  181SLPC   O3220705   2.578   2.888  10.565 -0.1014 -0.0649  0.0103
  181SLPC   C3220706   2.638   3.014  10.370  0.5821  0.3319  0.1731
  181SLPC   H2X20707   2.704   2.954  10.304 -0.2936  1.9919 -2.3780
  181SLPC   H2Y20708   2.665   3.121  10.351  2.7982 -0.6636 -3.3135
  181SLPC   C2320709   3.133   3.021  10.489 -0.1238 -0.4677  0.0697
  181SLPC   H3R20710   3.231   3.021  10.435 -0.3709  0.0465 -0.3888
  181SLPC   H3S20711   3.143   3.053  10.595 -1.2317  1.2948 -0.3125
  181SLPC   C2420712   3.052   3.118  10.404  0.3347 -0.1912  0.0528
  181SLPC   H4R20713   3.117   3.206  10.384  0.8289 -0.4893  0.3329
  181SLPC   H4S20714   2.956   3.141  10.455 -0.1298 -0.5533 -0.6485
  181SLPC   C2520715   3.014   3.057  10.266  0.2845  0.2986 -0.4285
  181SLPC   H5R20716   2.933   2.993  10.308  0.3671 -0.1289 -0.9201
  181SLPC   H5S20717   3.095   2.997  10.219 -1.4441 -2.4909 -0.0658
  181SLPC   C2620718   2.942   3.158  10.176  0.0238  0.6185  0.1421
  181SLPC   H6R20719   3.019   3.230  10.143  2.7365 -1.5799  1.2407
  181SLPC   H6S20720   2.859   3.200  10.238 -2.5526  0.4004 -2.8739
  181SLPC   C2720721   2.894   3.076  10.056  1.1172 -0.0692  0.1339
  181SLPC   H7R20722   2.785   3.059  10.072  0.5217  1.7420 -1.6000
  181SLPC   H7S20723   2.930   2.972  10.066  2.1762  0.2213 -0.5351
  181SLPC   C2820724   2.927   3.134   9.918  0.0749  0.4007  0.4791
  181SLPC   H8R20725   3.033   3.166   9.917  0.6649 -1.3728  1.1914
  181SLPC   H8S20726   2.855   3.213   9.888  1.1445  1.4657  0.6571
  181SLPC   C2920727   2.925   3.029   9.806  0.4498 -0.0700  0.3823
  181SLPC   H9R20728   2.898   2.926   9.834 -1.8044  0.6789  1.2237
  181SLPC  C21020729   2.927   3.052   9.669 -0.2116  0.6254  0.1143
  181SLPC  H10R20730   2.904   2.964   9.607 -1.5955 -0.1236  1.6132
  181SLPC  C21120731   2.946   3.185   9.598 -0.4630 -0.1345 -0.1349
  181SLPC  H11R20732   3.044   3.185   9.545  0.4844 -0.4935  1.5440
  181SLPC  H11S20733   2.946   3.274   9.665  1.8536 -0.4275  0.3583
  181SLPC  C21220734   2.837   3.201   9.497  0.9368  0.1110 -0.0554
  181SLPC  H12R20735   2.742   3.230   9.545  0.9845 -0.7826  0.6040
  181SLPC  C21320736   2.835   3.184   9.364  0.3643  0.7866 -0.0018
  181SLPC  H13R20737   2.737   3.192   9.315  0.5858  0.9587 -0.4211
  181SLPC  C21420738   2.954   3.147   9.273  0.6892  0.0924 -0.1976
  181SLPC  H14R20739   2.917   3.054   9.226  1.2717 -0.6540  0.7823
  181SLPC  H14S20740   3.039   3.127   9.343 -1.0572 -0.5754  1.8497
  181SLPC  C21520741   3.006   3.260   9.173 -0.0226 -0.1794  0.2062
  181SLPC  H15R20742   3.017   3.355   9.230  1.7774 -1.3390  1.9000
  181SLPC  H15S20743   2.930   3.288   9.097 -0.2511  1.0421  0.8493
  181SLPC  C21620744   3.146   3.243   9.118  0.0538  0.3953  0.3051
  181SLPC  H16R20745   3.156   3.145   9.066 -2.3332  1.4659 -2.4644
  181SLPC  H16S20746   3.221   3.232   9.199  0.4825  1.7090  0.1174
  181SLPC  C21720747   3.192   3.359   9.025 -0.1689 -0.3871 -0.7579
  181SLPC  H17R20748   3.211   3.431   9.107  0.5086 -0.6301 -0.6975
  181SLPC  H17S20749   3.112   3.402   8.960  1.2133  2.2543 -0.8220
  181SLPC  C21820750   3.324   3.327   8.951 -1.0770 -1.1751  0.1202
  181SLPC  H18R20751   3.341   3.413   8.882 -2.4888  0.6489  1.9356
  181SLPC  H18S20752   3.308   3.245   8.877  1.8365  0.9214 -3.1586
  181SLPC  H18T20753   3.409   3.303   9.017 -0.6669 -1.7143 -0.5815
  181SLPC   C3320754   2.492   2.997  10.314 -0.0470  0.3621 -1.0588
  181SLPC   H3X20755   2.423   3.055  10.378 -0.5123 -0.6674 -0.5949
  181SLPC   H3Y20756   2.471   2.888  10.320 -0.5620  0.5547  1.9729
  181SLPC   C3420757   2.463   3.040  10.175  0.6300 -0.2265  0.5750
  181SLPC   H4X20758   2.372   2.985  10.142  1.2211 -1.0092  0.2174
  181SLPC   H4Y20759   2.539   3.011  10.099  0.1298 -0.1717  0.0515
  181SLPC   C3520760   2.449   3.193  10.157 -0.4127 -0.4056  0.0421
  181SLPC   H5X20761   2.548   3.243  10.150 -0.3686 -0.5008 -0.0245
  181SLPC   H5Y20762   2.388   3.242  10.236 -0.2783  0.0290 -0.1210
  181SLPC   C3620763   2.374   3.228  10.027 -0.0458 -0.6807 -0.1052
  181SLPC   H6X20764   2.341   3.334  10.029  1.5167 -0.1808  0.5401
  181SLPC   H6Y20765   2.281   3.170  10.014  0.1882 -1.1801  0.4063
  181SLPC   C3720766   2.461   3.195   9.900  0.7418 -1.3039  0.0868
  181SLPC   H7X20767   2.514   3.098   9.914  0.0138 -1.6266  0.7280
  181SLPC   H7Y20768   2.549   3.263   9.900  0.2477 -0.6523  0.6441
  181SLPC   C3820769   2.381   3.206   9.770  0.2363 -0.2232  0.0321
  181SLPC   H8X20770   2.374   3.316   9.761 -1.2036 -0.0987  2.1535
  181SLPC   H8Y20771   2.279   3.163   9.781  1.4600 -3.8741 -1.3493
  181SLPC   C3920772   2.437   3.143   9.639 -0.3911  0.0891  0.0560
  181SLPC   H9X20773   2.433   3.034   9.659 -0.2090 -0.1082 -0.9218
  181SLPC   H9Y20774   2.543   3.172   9.652 -0.3268 -0.6123  1.2239
  181SLPC  C31020775   2.356   3.190   9.520 -0.2385 -0.3200 -0.1007
  181SLPC  H10X20776   2.405   3.280   9.479  2.0260 -1.0349  0.8635
  181SLPC  H10Y20777   2.254   3.216   9.557 -0.1230 -0.0394  0.0175
  181SLPC  C31120778   2.349   3.080   9.409 -0.3531 -0.2197 -0.3345
  181SLPC  H11X20779   2.266   3.014   9.442  0.8830 -1.1788  1.0009
  181SLPC  H11Y20780   2.439   3.014   9.413 -0.6625 -0.6084  0.4600
  181SLPC  C31220781   2.333   3.143   9.271  0.3291 -0.6092  0.0143
  181SLPC  H12X20782   2.323   3.062   9.197  1.3947 -0.4667 -0.2978
  181SLPC  H12Y20783   2.428   3.186   9.234  0.2563 -1.5336 -1.2791
  181SLPC  C31320784   2.224   3.247   9.255  0.8330  0.0294 -0.1551
  181SLPC  H13X20785   2.216   3.332   9.326  0.2773  0.5306 -0.8103
  181SLPC  H13Y20786   2.129   3.191   9.258  0.6209  0.2796 -1.6914
  181SLPC  C31420787   2.213   3.313   9.110 -0.1398  0.2076  0.0965
  181SLPC  H14X20788   2.109   3.346   9.090 -0.0100 -0.5010 -2.0176
  181SLPC  H14Y20789   2.236   3.232   9.038  0.0268  0.6781 -0.3858
  181SLPC  C31520790   2.313   3.430   9.091  0.2303 -0.1564 -0.6582
  181SLPC  H15X20791   2.412   3.396   9.129  0.9356  2.6268  0.2377
  181SLPC  H15Y20792   2.284   3.518   9.154  0.7714  0.3441 -1.0975
  181SLPC  C31620793   2.327   3.483   8.951  0.2137  0.0983  0.5629
  181SLPC  H16X20794   2.381   3.580   8.962  1.0591 -0.1389 -1.1003
  181SLPC  H16Y20795   2.224   3.510   8.919 -0.5483 -1.8404  1.2263
  181SLPC  C31720796   2.406   3.399   8.855 -0.6753  0.5278  0.5157
  181SLPC  H17X20797   2.340   3.352   8.779  0.2015  0.9302 -0.5235
  181SLPC  H17Y20798   2.462   3.320   8.908  3.1309  1.2747 -1.9574
  181SLPC  C31820799   2.508   3.484   8.780 -0.4980  0.1590  0.6774
  181SLPC  H18X20800   2.568   3.549   8.848 -1.8556  0.8428  1.2617
  181SLPC  H18Y20801   2.446   3.551   8.716 -1.3240 -2.4756 -1.4672
  181SLPC  H18Z20802   2.573   3.424   8.712 -1.9610  0.2209 -0.8428
  182SLPC     N20803   0.583   4.977  10.858 -0.4995 -0.4648 -0.2275
  182SLPC   C1320804   0.535   5.115  10.812  1.0092  0.5957 -0.0477
  182SLPC  H13A20805   0.446   5.104  10.753  1.9570 -2.3613 -1.1493
  182SLPC  H13B20806   0.516   5.176  10.898  2.8568  1.2868 -0.0736
  182SLPC  H13C20807   0.611   5.167  10.755 -1.3605  1.7318 -2.3590
  182SLPC   C1420808   0.479   4.924  10.942  0.3297 -0.1566  0.0428
  182SLPC  H14A20809   0.378   4.938  10.905 -0.7386 -0.4645  2.6227
  182SLPC  H14B20810   0.486   4.816  10.953 -1.5443 -0.5603 -1.9357
  182SLPC  H14C20811   0.483   4.979  11.035 -1.1487  0.5433 -0.2670
  182SLPC   C1520812   0.713   4.993  10.942  0.7245 -0.0809 -0.0466
  182SLPC  H15A20813   0.740   4.894  10.976 -3.4033 -1.1637  0.5122
  182SLPC  H15B20814   0.791   5.038  10.882 -0.4849  0.6982 -1.0664
  182SLPC  H15C20815   0.707   5.062  11.026 -1.1346  2.2858 -1.9876
  182SLPC   C1220816   0.612   4.886  10.735 -0.2694  0.3125  0.3415
  182SLPC  H12A20817   0.520   4.870  10.682 -0.0568 -1.5647  0.4447
  182SLPC  H12B20818   0.644   4.792  10.779 -0.5082 -0.6795 -1.4923
  182SLPC   C1120819   0.740   4.922  10.645  0.9847 -0.2311  0.1390
  182SLPC  H11A20820   0.732   5.025  10.603  3.3547 -0.0959 -0.1329
  182SLPC  H11B20821   0.728   4.853  10.559 -2.4035  0.0632  0.2645
  182SLPC     P20822   0.922   4.775  10.764 -0.6291 -0.2011  0.0327
  182SLPC   O1320823   1.026   4.801  10.860 -0.1936 -0.4803  0.1181
  182SLPC   O1420824   0.818   4.675  10.799  0.5932  1.0193 -0.2751
  182SLPC   O1220825   0.858   4.911  10.722 -0.2531 -0.5097  0.2537
  182SLPC   O1120826   0.996   4.722  10.635  0.2228  0.2468  0.2473
  182SLPC    C120827   1.119   4.785  10.590 -0.3410 -0.6270 -0.4797
  182SLPC    HA20828   1.120   4.892  10.621  0.0583 -1.2032  1.6604
  182SLPC    HB20829   1.207   4.741  10.641 -0.5196  1.3979  1.7992
  182SLPC    C220830   1.137   4.768  10.435  0.1064  0.0172 -0.3260
  182SLPC    HS20831   1.234   4.818  10.413 -0.3559  1.3600  0.5940
  182SLPC   O2120832   1.031   4.830  10.369  0.1219  0.2070 -0.0240
  182SLPC   C2120833   1.010   4.958  10.376  1.1141  0.3208  0.3755
  182SLPC   O2220834   1.087   5.040  10.427  0.6180  0.1816 -0.0612
  182SLPC   C2220835   0.876   4.995  10.303  0.0129  0.6700 -0.6564
  182SLPC   H2R20836   0.800   5.006  10.383 -0.4735  0.2653 -1.0601
  182SLPC   H2S20837   0.899   5.089  10.249  0.1490 -0.4355 -2.6169
  182SLPC    C320838   1.152   4.619  10.400  0.4387  0.8066 -0.0655
  182SLPC    HX20839   1.066   4.551  10.420 -0.7022  1.9912 -0.8087
  182SLPC    HY20840   1.235   4.575  10.460  0.5596 -2.4911 -2.3411
  182SLPC   O3120841   1.195   4.608  10.261  0.1547 -0.3355 -0.2165
  182SLPC   C3120842   1.096   4.591  10.176 -0.1371 -0.2853  0.1354
  182SLPC   O3220843   0.983   4.556  10.202 -0.2533 -0.3684  0.0790
  182SLPC   C3220844   1.140   4.616  10.030  0.1685 -0.0787  0.5499
  182SLPC   H2X20845   1.096   4.716  10.007  0.3304 -0.5567 -2.1569
  182SLPC   H2Y20846   1.087   4.547   9.960 -0.4695  1.8513 -0.9757
  182SLPC   C2320847   0.818   4.888  10.206 -0.3871 -0.6573  0.1215
  182SLPC   H3R20848   0.708   4.900  10.221  0.2191  2.9334  3.2519
  182SLPC   H3S20849   0.862   4.786  10.208 -0.6275 -0.8421 -2.1373
  182SLPC   C2420850   0.868   4.931  10.061  0.1728  0.2659 -0.5164
  182SLPC   H4R20851   0.970   4.888  10.052 -0.2345 -0.5582 -1.5406
  182SLPC   H4S20852   0.876   5.041  10.049  0.3135  0.2597 -0.4786
  182SLPC   C2520853   0.776   4.876   9.946  0.0002  0.1126 -1.1721
  182SLPC   H5R20854   0.672   4.905   9.968  0.1233  1.2720 -1.9920
  182SLPC   H5S20855   0.781   4.765   9.948 -1.6570  0.0242 -1.2419
  182SLPC   C2620856   0.795   4.913   9.798  0.0647  0.3829 -0.6496
  182SLPC   H6R20857   0.809   5.023   9.794 -2.3021  0.9025  2.1785
  182SLPC   H6S20858   0.696   4.912   9.747  0.7238  0.7651 -2.0057
  182SLPC   C2720859   0.906   4.826   9.737 -0.0028 -0.3793 -0.6699
  182SLPC   H7R20860   0.860   4.725   9.730 -2.7521  0.6872  0.4133
  182SLPC   H7S20861   0.999   4.823   9.798 -0.5900  0.2617  0.2790
  182SLPC   C2820862   0.956   4.866   9.597  0.1585 -0.4391  0.3644
  182SLPC   H8R20863   1.022   4.787   9.555  0.1532 -0.7102  0.8547
  182SLPC   H8S20864   1.019   4.957   9.611  2.5894 -2.2317  1.8664
  182SLPC   C2920865   0.846   4.903   9.493  0.6394  0.5071  0.3178
  182SLPC   H9R20866   0.741   4.904   9.528  0.9309  2.1853  1.2400
  182SLPC  C21020867   0.872   4.941   9.373 -0.3157 -0.2713  0.3210
  182SLPC  H10R20868   0.790   4.949   9.300  1.0697  0.6364 -1.2095
  182SLPC  C21120869   1.008   4.943   9.307 -0.1763 -0.1684  0.1708
  182SLPC  H11R20870   1.013   4.857   9.238  0.1671  0.6088 -0.7994
  182SLPC  H11S20871   1.087   4.929   9.384 -0.3030  1.0440  0.5493
  182SLPC  C21220872   1.036   5.074   9.239 -0.0188 -0.4675 -0.4348
  182SLPC  H12R20873   1.089   5.139   9.310  1.1239 -2.6201  0.7842
  182SLPC  C21320874   1.037   5.100   9.109 -0.2463  0.4609  0.1406
  182SLPC  H13R20875   1.042   5.208   9.088  3.5569  0.3512 -0.2052
  182SLPC  C21420876   0.999   5.012   8.989  0.5021  0.0831 -0.6063
  182SLPC  H14R20877   0.992   4.907   9.025 -0.3675  0.4629  0.3725
  182SLPC  H14S20878   1.077   5.002   8.911  0.1021 -1.6954 -0.8175
  182SLPC  C21520879   0.856   5.037   8.934 -0.2014 -0.5835  0.5608
  182SLPC  H15R20880   0.840   5.141   8.898 -0.3351 -0.4198  1.0805
  182SLPC  H15S20881   0.785   5.018   9.018 -1.8768  1.5476 -0.2867
  182SLPC  C21620882   0.818   4.945   8.820  0.3404  0.7241  0.1017
  182SLPC  H16R20883   0.823   4.837   8.848 -0.8458  0.4954 -0.5161
  182SLPC  H16S20884   0.890   4.959   8.736  1.5257  0.8160  1.1017
  182SLPC  C21720885   0.672   4.963   8.764  0.1658  0.4002 -0.0385
  182SLPC  H17R20886   0.652   4.914   8.667 -0.4173  0.9683 -0.2085
  182SLPC  H17S20887   0.662   5.072   8.745 -3.2927  0.2769  0.4580
  182SLPC  C21820888   0.568   4.910   8.862 -0.0838  0.1332  0.2817
  182SLPC  H18R20889   0.469   4.936   8.818 -0.7184  0.4311  1.8228
  182SLPC  H18S20890   0.583   4.961   8.960  1.0331  0.5627 -0.1016
  182SLPC  H18T20891   0.573   4.799   8.873 -0.7483  0.0633 -0.0614
  182SLPC   C3320892   1.293   4.620  10.002 -0.4637  1.0590 -0.4106
  182SLPC   H3X20893   1.344   4.523  10.021 -2.9467  0.1949  2.6318
  182SLPC   H3Y20894   1.342   4.691  10.071 -0.9966  0.3955  0.6817
  182SLPC   C3420895   1.321   4.683   9.860 -0.4265 -0.3655  0.2841
  182SLPC   H4X20896   1.427   4.702   9.836 -0.8403 -1.3849 -2.7988
  182SLPC   H4Y20897   1.274   4.783   9.847  1.0724  0.0909 -2.2026
  182SLPC   C3520898   1.293   4.589   9.741 -0.3018  0.6770  0.1775
  182SLPC   H5X20899   1.192   4.548   9.766  0.7866 -0.9034  2.4526
  182SLPC   H5Y20900   1.342   4.490   9.749 -1.2078  0.2902  1.4319
  182SLPC   C3620901   1.306   4.663   9.602  0.1534  0.2527 -0.1733
  182SLPC   H6X20902   1.414   4.690   9.598  0.7116 -1.3009  2.3569
  182SLPC   H6Y20903   1.249   4.759   9.604  0.8569  0.7140 -1.3305
  182SLPC   C3720904   1.258   4.580   9.483 -0.3777  0.0688 -0.0927
  182SLPC   H7X20905   1.151   4.554   9.493 -1.2408  2.4234 -1.9574
  182SLPC   H7Y20906   1.312   4.484   9.468 -0.8769 -0.2369  0.0490
  182SLPC   C3820907   1.268   4.665   9.352 -0.6964  0.2266 -0.9563
  182SLPC   H8X20908   1.376   4.692   9.352 -0.6125 -0.0837 -1.4818
  182SLPC   H8Y20909   1.223   4.765   9.366  1.2025  1.0940 -0.6570
  182SLPC   C3920910   1.210   4.595   9.236  0.1225 -0.6929  0.9573
  182SLPC   H9X20911   1.103   4.576   9.261  0.4081 -2.2654  1.0978
  182SLPC   H9Y20912   1.262   4.497   9.238  0.1219 -0.7985 -1.5172
  182SLPC  C31020913   1.227   4.672   9.105  0.3185 -0.6949 -0.2357
  182SLPC  H10X20914   1.335   4.661   9.079  0.1928  0.0344 -1.1166
  182SLPC  H10Y20915   1.199   4.779   9.119 -0.5360 -1.0148  0.5953
  182SLPC  C31120916   1.141   4.609   8.994  0.4095  0.8250  0.3492
  182SLPC  H11X20917   1.032   4.614   9.010  0.0233 -1.6946 -1.0586
  182SLPC  H11Y20918   1.149   4.499   8.985  0.1080  0.9174 -1.7029
  182SLPC  C31220919   1.167   4.675   8.850 -0.2594  0.2693 -0.0574
  182SLPC  H12X20920   1.158   4.785   8.862  1.6775  0.6753 -1.7357
  182SLPC  H12Y20921   1.078   4.653   8.788  0.5613  2.2844 -2.0938
  182SLPC  C31320922   1.296   4.628   8.790 -0.3702  0.5550  0.7776
  182SLPC  H13X20923   1.294   4.517   8.782 -2.4350  0.6886 -1.9116
  182SLPC  H13Y20924   1.379   4.656   8.859  0.1015 -0.7822  0.7768
  182SLPC  C31420925   1.321   4.691   8.647  0.5380  0.8247  0.5891
  182SLPC  H14X20926   1.425   4.664   8.618  0.1275 -0.2232  0.0309
  182SLPC  H14Y20927   1.304   4.800   8.640  0.1102  0.7364  0.1786
  182SLPC  C31520928   1.243   4.622   8.535  0.6723 -0.3091 -0.1375
  182SLPC  H15X20929   1.145   4.674   8.527  1.5852  1.3864 -0.5627
  182SLPC  H15Y20930   1.216   4.516   8.556  0.8697 -0.2969  0.1879
  182SLPC  C31620931   1.304   4.643   8.393  0.0877  0.0582  0.6605
  182SLPC  H16X20932   1.415   4.636   8.399  0.2812  2.2684  0.5329
  182SLPC  H16Y20933   1.278   4.746   8.361  1.8901  0.3253 -0.0807
  182SLPC  C31720934   1.256   4.533   8.294 -0.9757 -0.1967  0.3700
  182SLPC  H17X20935   1.290   4.432   8.327 -0.7845 -0.7358 -1.4079
  182SLPC  H17Y20936   1.303   4.557   8.196 -1.5486 -3.4864 -0.8222
  182SLPC  C31820937   1.101   4.538   8.282 -0.3937 -0.1748 -0.3358
  182SLPC  H18X20938   1.052   4.500   8.374  2.1662  1.4085  1.8268
  182SLPC  H18Y20939   1.071   4.477   8.194  2.7473 -0.1775 -1.5363
  182SLPC  H18Z20940   1.060   4.640   8.270 -2.2077 -0.4995  2.2584
  183SLPC     N20941   2.355   4.096  11.251 -0.3069  0.2015  0.1444
  183SLPC   C1320942   2.425   3.967  11.280  0.6723  0.4631  0.4569
  183SLPC  H13A20943   2.391   3.876  11.234  1.7541  0.4421 -0.3502
  183SLPC  H13B20944   2.527   3.967  11.243 -0.3749 -1.2736 -2.7516
  183SLPC  H13C20945   2.428   3.942  11.385 -0.2859 -3.4201 -0.2856
  183SLPC   C1420946   2.448   4.214  11.260  0.1304  0.6645  0.2840
  183SLPC  H14A20947   2.485   4.219  11.361  1.4188 -0.2845 -0.1058
  183SLPC  H14B20948   2.531   4.203  11.192  0.4219  1.3664  0.5141
  183SLPC  H14C20949   2.389   4.304  11.249 -1.2709  0.4362  4.3946
  183SLPC   C1520950   2.244   4.119  11.350  0.4182  0.1893  0.1990
  183SLPC  H15A20951   2.289   4.136  11.446 -0.0119 -0.5812  0.5445
  183SLPC  H15B20952   2.182   4.202  11.319 -0.1440 -0.3543 -0.1719
  183SLPC  H15C20953   2.174   4.037  11.359  0.2258  0.3458  0.1493
  183SLPC   C1220954   2.294   4.087  11.111 -0.5511 -0.0748 -0.1958
  183SLPC  H12A20955   2.270   4.188  11.080  1.2655  0.3436 -0.3144
  183SLPC  H12B20956   2.199   4.036  11.103  0.3068 -1.7020 -0.5252
  183SLPC   C1120957   2.378   4.019  10.999  0.2294 -0.7715  0.0175
  183SLPC  H11A20958   2.481   4.060  11.003 -0.0492  0.2630 -2.1547
  183SLPC  H11B20959   2.338   4.059  10.904  0.8679 -0.3734 -0.0895
  183SLPC     P20960   2.264   3.793  10.946 -0.2638  0.3121 -0.2215
  183SLPC   O1320961   2.316   3.654  10.944  0.1608  0.1810 -0.0400
  183SLPC   O1420962   2.141   3.823  11.026 -0.5003  0.3093 -0.0960
  183SLPC   O1220963   2.382   3.878  11.003 -0.3337 -0.3644 -0.4903
  183SLPC   O1120964   2.244   3.839  10.788  0.1409  0.6751  0.3490
  183SLPC    C120965   2.341   3.803  10.690  0.0430  0.3244 -0.1174
  183SLPC    HA20966   2.443   3.777  10.728 -0.7069 -2.4838  0.1825
  183SLPC    HB20967   2.312   3.708  10.641 -1.0617  1.1584 -1.1292
  183SLPC    C220968   2.357   3.910  10.583 -0.0994  0.5797 -0.1417
  183SLPC    HS20969   2.376   4.008  10.632  1.0288 -0.9748  2.7397
  183SLPC   O2120970   2.241   3.933  10.505 -0.3871  0.4074 -0.6927
  183SLPC   C2120971   2.200   3.836  10.434 -0.0190 -0.1233  0.9310
  183SLPC   O2220972   2.244   3.723  10.420  0.2343 -0.3572 -0.5909
  183SLPC   C2220973   2.088   3.882  10.331  0.4640 -0.2232  0.4746
  183SLPC   H2R20974   2.004   3.810  10.330 -0.3020  0.6449 -0.2467
  183SLPC   H2S20975   2.060   3.988  10.351 -0.6530 -0.8885  2.7150
  183SLPC    C320976   2.486   3.878  10.502  0.0944 -0.3073  0.3932
  183SLPC    HX20977   2.480   3.773  10.466 -4.8920 -1.2680  3.0520
  183SLPC    HY20978   2.576   3.886  10.567 -0.3967  2.7251  0.8489
  183SLPC   O3120979   2.501   3.972  10.394 -0.0931 -0.5931 -0.2993
  183SLPC   C3120980   2.595   3.932  10.312 -0.2497  0.7337 -0.3234
  183SLPC   O3220981   2.662   3.828  10.321  0.2378 -0.3662 -0.0914
  183SLPC   C3220982   2.595   4.029  10.194 -0.4361 -0.3816 -0.0568
  183SLPC   H2X20983   2.567   4.130  10.231  0.0301  0.3408 -1.5796
  183SLPC   H2Y20984   2.526   4.000  10.111  0.0595  0.2889 -0.7168
  183SLPC   C2320985   2.146   3.880  10.185  0.1438  0.5965  0.4823
  183SLPC   H3R20986   2.166   3.773  10.164  1.4229  0.8845  0.1404
  183SLPC   H3S20987   2.245   3.929  10.172  0.3231 -0.2224 -1.7937
  183SLPC   C2420988   2.050   3.925  10.075  0.5263  0.0612 -0.2224
  183SLPC   H4R20989   2.018   4.027  10.106  0.8928 -0.0604  0.5951
  183SLPC   H4S20990   1.964   3.855  10.078  1.9105 -1.7275  2.8157
  183SLPC   C2520991   2.103   3.939   9.933  0.0764 -0.6755 -0.2197
  183SLPC   H5R20992   2.154   3.847   9.896 -0.5923 -1.2639  0.2686
  183SLPC   H5S20993   2.181   4.017   9.922  0.2591 -0.6821  0.9630
  183SLPC   C2620994   2.001   3.974   9.821  0.3177  0.4441 -0.4678
  183SLPC   H6R20995   1.940   4.061   9.853 -1.4732  0.4918 -3.6615
  183SLPC   H6S20996   1.930   3.890   9.805 -0.4280  1.0046 -0.1324
  183SLPC   C2720997   2.068   3.988   9.683  0.0704 -0.5089 -0.8587
  183SLPC   H7R20998   2.111   3.894   9.642 -0.0171  0.3105 -3.0015
  183SLPC   H7S20999   2.136   4.076   9.689  0.7822 -0.9087 -2.4311
  183SLPC   C2821000   1.969   4.028   9.565  0.4827 -0.2123  0.4792
  183SLPC   H8R21001   2.038   4.025   9.478  0.5436 -0.7774  0.5409
  183SLPC   H8S21002   1.936   4.132   9.583  0.6775  0.2018 -1.3403
  183SLPC   C2921003   1.852   3.942   9.547  0.3265  0.0500  0.4868
  183SLPC   H9R21004   1.769   3.967   9.615 -1.5872  2.6128 -2.5136
  183SLPC  C21021005   1.829   3.836   9.465  0.4298 -0.6886 -0.0776
  183SLPC  H10R21006   1.727   3.794   9.466  0.4303 -0.6870  0.1760
  183SLPC  C21121007   1.931   3.791   9.365  0.0558  0.1740  0.0907
  183SLPC  H11R21008   2.036   3.813   9.393  0.6983  0.3047 -2.1728
  183SLPC  H11S21009   1.924   3.842   9.266  0.3858 -1.8620 -1.0495
  183SLPC  C21221010   1.913   3.642   9.337  0.4071 -1.2753 -0.4985
  183SLPC  H12R21011   1.857   3.626   9.244  1.9046  0.7131 -1.8617
  183SLPC  C21321012   1.959   3.537   9.403 -0.3661  0.1690 -0.6261
  183SLPC  H13R21013   1.930   3.436   9.370  0.9077 -0.0908 -1.0115
  183SLPC  C21421014   2.051   3.554   9.525  0.1212 -0.3311 -0.2441
  183SLPC  H14R21015   2.081   3.659   9.542  1.6253 -0.6647 -0.6531
  183SLPC  H14S21016   2.150   3.507   9.507  1.0168  1.4805 -0.2716
  183SLPC  C21521017   1.979   3.501   9.646  0.0242  0.2563 -0.3916
  183SLPC  H15R21018   1.961   3.392   9.633  1.1617  0.2011 -1.6955
  183SLPC  H15S21019   1.885   3.558   9.660  0.7362  1.3719 -0.0426
  183SLPC  C21621020   2.063   3.521   9.775  0.6833 -0.0932 -0.0093
  183SLPC  H16R21021   2.092   3.627   9.788 -1.3127  0.4525  0.2694
  183SLPC  H16S21022   2.158   3.464   9.764  1.6822  1.0412  2.1562
  183SLPC  C21721023   1.982   3.483   9.902  0.2649 -0.7716 -0.0366
  183SLPC  H17R21024   1.972   3.372   9.901 -1.1445 -0.6744  1.0532
  183SLPC  H17S21025   1.880   3.526   9.899  0.5452  0.0957  1.6905
  183SLPC  C21821026   2.057   3.516  10.036  0.1592  0.3074 -0.2265
  183SLPC  H18R21027   2.108   3.423  10.072 -3.6276 -1.5332  0.8617
  183SLPC  H18S21028   1.986   3.550  10.114  1.6598 -1.8435  2.2567
  183SLPC  H18T21029   2.131   3.596  10.012  0.4428  0.2047  0.2876
  183SLPC   C3321030   2.736   4.042  10.134  0.2711  0.2148 -0.4098
  183SLPC   H3X21031   2.765   3.957  10.070 -1.4510 -0.2840 -0.5841
  183SLPC   H3Y21032   2.812   4.056  10.214 -0.6890 -1.8477  0.9693
  183SLPC   C3421033   2.746   4.165  10.045  0.2167 -0.2752 -0.6714
  183SLPC   H4X21034   2.846   4.202  10.077  0.1382  0.0130 -0.7526
  183SLPC   H4Y21035   2.678   4.250  10.068 -0.2653 -0.6465 -0.7195
  183SLPC   C3521036   2.725   4.142   9.894 -0.2791 -0.1895 -0.1393
  183SLPC   H5X21037   2.797   4.063   9.865 -0.4301  0.4942 -2.5928
  183SLPC   H5Y21038   2.764   4.234   9.845  2.2279 -1.4043 -0.5805
  183SLPC   C3621039   2.584   4.122   9.847  0.3047 -0.4651 -1.2608
  183SLPC   H6X21040   2.526   4.208   9.886  2.1293  0.3351 -0.1841
  183SLPC   H6Y21041   2.550   4.031   9.902  0.8833  0.7092  1.2144
  183SLPC   C3721042   2.571   4.102   9.690  0.0355 -0.1833 -0.0874
  183SLPC   H7X21043   2.624   4.011   9.656  0.7591  0.2176 -0.0638
  183SLPC   H7Y21044   2.618   4.184   9.632  0.3040 -0.0747  0.2831
  183SLPC   C3821045   2.424   4.097   9.650 -0.0211 -0.6357 -0.5685
  183SLPC   H8X21046   2.364   4.038   9.723  0.7195  0.2864  0.8476
  183SLPC   H8Y21047   2.404   4.043   9.556 -0.7519 -1.6575  0.1557
  183SLPC   C3921048   2.370   4.241   9.630  0.5368  0.1875  0.0669
  183SLPC   H9X21049   2.412   4.304   9.712  0.3807 -2.9096  2.7104
  183SLPC   H9Y21050   2.260   4.227   9.629  0.6119 -0.5337  0.9812
  183SLPC  C31021051   2.400   4.312   9.498  0.1400  0.3657  0.8143
  183SLPC  H10X21052   2.510   4.304   9.482  0.3454 -0.2652  2.3482
  183SLPC  H10Y21053   2.376   4.421   9.501 -0.9996  0.1374  0.5377
  183SLPC  C31121054   2.313   4.259   9.380 -0.3741  0.1555  0.2607
  183SLPC  H11X21055   2.334   4.150   9.385 -0.7155  0.1483  2.4316
  183SLPC  H11Y21056   2.348   4.311   9.288  0.4565  0.6988  0.8735
  183SLPC  C31221057   2.167   4.287   9.389  0.8980 -0.2504  0.1240
  183SLPC  H12X21058   2.148   4.385   9.437 -0.5976  0.3493 -1.5933
  183SLPC  H12Y21059   2.133   4.211   9.463  1.7510  0.4633  1.2801
  183SLPC  C31321060   2.099   4.286   9.255  0.2532 -0.4183  0.3240
  183SLPC  H13X21061   2.134   4.372   9.193  0.6196  0.9119  2.2821
  183SLPC  H13Y21062   1.989   4.302   9.255  0.3702  1.1107 -2.8323
  183SLPC  C31421063   2.127   4.155   9.174  0.6785  0.1868 -0.2088
  183SLPC  H14X21064   2.106   4.067   9.239  0.8886 -0.7977 -1.4482
  183SLPC  H14Y21065   2.234   4.154   9.145  0.2245  1.3800 -2.1047
  183SLPC  C31521066   2.049   4.167   9.048  0.4915 -0.3141 -0.5801
  183SLPC  H15X21067   2.069   4.264   8.998  1.0548 -0.3893 -0.5052
  183SLPC  H15Y21068   1.939   4.169   9.065  0.6905  0.8949  0.7820
  183SLPC  C31621069   2.065   4.050   8.951 -0.4667 -0.4229  0.7916
  183SLPC  H16X21070   2.170   4.028   8.924 -1.1213 -1.5437 -1.0409
  183SLPC  H16Y21071   2.022   4.080   8.853  0.7531 -0.7441  0.1340
  183SLPC  C31721072   1.994   3.917   8.993  0.1968  0.0102  0.0929
  183SLPC  H17X21073   1.885   3.922   9.014  0.1585 -0.9324  0.1781
  183SLPC  H17Y21074   2.049   3.876   9.080  0.4570  0.5745  0.1965
  183SLPC  C31821075   2.007   3.803   8.884  0.2382 -0.2875  0.3058
  183SLPC  H18X21076   1.973   3.847   8.788  0.0075 -0.8892  0.1036
  183SLPC  H18Y21077   1.936   3.720   8.906  0.7422 -1.0263 -0.7438
  183SLPC  H18Z21078   2.109   3.757   8.888 -0.4119 -1.6943  2.4697
  184SLPC     N21079   5.093   1.807  10.939  0.1895 -0.1708  0.7914
  184SLPC   C1321080   4.990   1.883  11.029 -0.5479  0.5790 -0.3309
  184SLPC  H13A21081   4.960   1.975  10.981 -1.2928  0.2248 -0.5592
  184SLPC  H13B21082   4.904   1.819  11.043  1.3760 -1.8918  1.3566
  184SLPC  H13C21083   5.026   1.903  11.129  1.8802 -0.4334 -0.9108
  184SLPC   C1421084   5.050   1.819  10.792 -0.0069  0.7104 -0.4786
  184SLPC  H14A21085   5.104   1.770  10.713 -0.7965  0.9501 -1.1842
  184SLPC  H14B21086   4.945   1.796  10.777  0.1439 -0.7734  0.4956
  184SLPC  H14C21087   5.050   1.921  10.757  0.4851  0.1692 -2.1228
  184SLPC   C1521088   5.093   1.665  10.977  0.0754  0.2466  0.0374
  184SLPC  H15A21089   5.106   1.660  11.084 -0.8515  1.9209  0.2614
  184SLPC  H15B21090   4.998   1.614  10.964 -0.7134  1.0565  2.1838
  184SLPC  H15C21091   5.168   1.605  10.927 -0.7020 -0.7070 -0.0247
  184SLPC   C1221092   5.229   1.874  10.950 -0.3774 -0.4416  0.3566
  184SLPC  H12A21093   5.307   1.809  10.912  1.1471  1.2969  0.3508
  184SLPC  H12B21094   5.245   1.877  11.056 -3.1099 -0.3584  0.8306
  184SLPC   C1121095   5.251   2.007  10.875  0.0249 -1.0368  0.1134
  184SLPC  H11A21096   5.355   2.040  10.897  1.0333 -3.4775 -0.6376
  184SLPC  H11B21097   5.192   2.093  10.912  3.1905  1.4068 -0.0416
  184SLPC     P21098   5.354   1.971  10.635  0.1310 -0.1749 -0.2109
  184SLPC   O1321099   5.426   2.095  10.606  0.4584 -0.5501  0.0291
  184SLPC   O1421100   5.436   1.855  10.690 -0.0717 -0.0483  0.3766
  184SLPC   O1221101   5.230   1.998  10.730  0.3208  0.0021 -0.1180
  184SLPC   O1121102   5.288   1.909  10.501 -0.6494 -0.4730 -0.3158
  184SLPC    C121103   5.196   1.994  10.429 -0.4179  0.4114 -0.5896
  184SLPC    HA21104   5.184   2.101  10.457  0.4180 -0.4443  3.7391
  184SLPC    HB21105   5.209   1.986  10.319  2.9282  0.5712 -0.3206
  184SLPC    C221106   5.049   1.943  10.440 -0.5888  0.0054 -0.8613
  184SLPC    HS21107   5.021   1.921  10.545 -0.7944 -0.9259 -1.1013
  184SLPC   O2121108   5.042   1.817  10.362 -0.2787 -0.7073 -0.3248
  184SLPC   C2121109   4.932   1.748  10.389  0.3078  0.9754  1.1976
  184SLPC   O2221110   4.845   1.776  10.476 -0.0407 -0.7415  0.7025
  184SLPC   C2221111   4.950   1.616  10.312 -0.1182 -0.1221  0.5006
  184SLPC   H2R21112   5.022   1.547  10.361  0.1573 -0.8569 -0.9030
  184SLPC   H2S21113   4.851   1.567  10.302  0.6825 -1.4982 -1.2370
  184SLPC    C321114   4.956   2.050  10.380  0.0497  0.0946 -0.2591
  184SLPC    HX21115   4.979   2.151  10.421 -0.1330  0.6628 -1.5136
  184SLPC    HY21116   4.851   2.024  10.404 -0.0201  1.4746  1.1452
  184SLPC   O3121117   4.987   2.072  10.241  0.0727 -1.0684 -0.3679
  184SLPC   C3121118   4.897   2.029  10.147 -0.3715 -0.2191  0.1685
  184SLPC   O3221119   4.791   1.982  10.175 -0.2115  0.8130  0.7300
  184SLPC   C3221120   4.951   2.064  10.009 -0.1162  0.0954 -0.1278
  184SLPC   H2X21121   5.052   2.019   9.997  1.4391  2.1025  3.6279
  184SLPC   H2Y21122   4.965   2.174  10.000  0.8492 -0.1709 -2.4905
  184SLPC   C2321123   5.008   1.631  10.166  0.2376  0.8720  0.3873
  184SLPC   H3R21124   5.066   1.540  10.143 -1.2467 -0.1580  0.5802
  184SLPC   H3S21125   5.075   1.720  10.156  0.5881  0.6899  1.0034
  184SLPC   C2421126   4.896   1.624  10.062 -0.1483  0.0218  0.3853
  184SLPC   H4R21127   4.822   1.704  10.083 -2.0634 -1.4879 -0.3073
  184SLPC   H4S21128   4.845   1.526  10.067 -1.3979  0.6821  1.0577
  184SLPC   C2521129   4.946   1.638   9.922 -0.0453  0.5716  0.6900
  184SLPC   H5R21130   5.025   1.564   9.898  0.5395  1.8866 -1.7295
  184SLPC   H5S21131   5.008   1.728   9.900 -0.0245  0.3684 -0.0889
  184SLPC   C2621132   4.836   1.612   9.819  1.1339  0.2477  1.0969
  184SLPC   H6R21133   4.766   1.699   9.821  0.6423 -0.1233  0.5444
  184SLPC   H6S21134   4.775   1.526   9.853  0.1767  0.6072  0.3491
  184SLPC   C2721135   4.889   1.596   9.668  0.1952  0.0826  0.5830
  184SLPC   H7R21136   4.937   1.496   9.659 -0.3456 -0.0596 -0.9559
  184SLPC   H7S21137   4.965   1.673   9.644  1.6679 -0.7484  2.2804
  184SLPC   C2821138   4.783   1.615   9.567  0.8854  0.9318  0.9955
  184SLPC   H8R21139   4.836   1.593   9.472 -0.2320  1.6337  0.1837
  184SLPC   H8S21140   4.747   1.720   9.559 -0.8031  0.2927 -0.5041
  184SLPC   C2921141   4.666   1.514   9.564 -0.6665  0.9073 -0.4393
  184SLPC   H9R21142   4.646   1.460   9.658 -1.0771 -0.1428 -1.1094
  184SLPC  C21021143   4.594   1.474   9.459  0.0226  0.2484 -0.0757
  184SLPC  H10R21144   4.524   1.391   9.476  0.5229 -0.5430 -1.6753
  184SLPC  C21121145   4.609   1.524   9.316 -0.3643 -0.5850  0.2411
  184SLPC  H11R21146   4.672   1.456   9.256  0.9854  2.1687 -1.6408
  184SLPC  H11S21147   4.672   1.615   9.312 -0.0192 -0.8287  0.0612
  184SLPC  C21221148   4.486   1.561   9.244  0.7393 -0.3872 -0.4571
  184SLPC  H12R21149   4.445   1.649   9.295 -1.3439 -3.0047  2.8364
  184SLPC  C21321150   4.427   1.499   9.144 -1.2474  0.3500 -0.0261
  184SLPC  H13R21151   4.338   1.550   9.104  0.9163  3.7236 -1.0193
  184SLPC  C21421152   4.483   1.374   9.071 -0.5174 -0.0742 -0.5612
  184SLPC  H14R21153   4.588   1.357   9.103 -1.1990 -0.2544  1.7189
  184SLPC  H14S21154   4.475   1.401   8.963 -0.7759 -1.9152 -1.0506
  184SLPC  C21521155   4.408   1.242   9.100  0.5641 -1.0996  0.4504
  184SLPC  H15R21156   4.305   1.281   9.112  0.7158 -0.0526 -1.1930
  184SLPC  H15S21157   4.440   1.191   9.193  0.4109 -1.8321  0.1062
  184SLPC  C21621158   4.435   1.130   8.991 -0.4529 -0.5267 -0.0316
  184SLPC  H16R21159   4.370   1.043   9.015  1.8055 -1.4919  3.4851
  184SLPC  H16S21160   4.538   1.091   9.002 -0.3617 -0.1486  0.5177
  184SLPC  C21721161   4.402   1.172   8.845 -0.6876 -0.1394  0.2355
  184SLPC  H17R21162   4.482   1.240   8.809 -0.0078 -1.2770 -0.4484
  184SLPC  H17S21163   4.306   1.229   8.839 -0.0668  1.2897  2.5571
  184SLPC  C21821164   4.387   1.068   8.744  0.3040  0.6296  0.3739
  184SLPC  H18R21165   4.381   1.112   8.642 -0.7228 -1.9075 -0.7450
  184SLPC  H18S21166   4.296   1.005   8.755  1.1824 -0.6663  0.5653
  184SLPC  H18T21167   4.473   1.000   8.725  0.2917  1.0277 -1.3052
  184SLPC   C3321168   4.862   2.024   9.894  0.6475 -0.2147 -0.4403
  184SLPC   H3X21169   4.786   2.104   9.886  1.0236  0.0375 -2.0351
  184SLPC   H3Y21170   4.812   1.926   9.909  2.5536 -1.2392 -0.4532
  184SLPC   C3421171   4.938   2.021   9.762  0.0611 -0.0837 -0.0301
  184SLPC   H4X21172   5.007   1.934   9.760  1.4750  1.0123 -1.1119
  184SLPC   H4Y21173   4.980   2.120   9.736 -3.3656  1.0055 -2.0482
  184SLPC   C3521174   4.835   1.991   9.648 -0.1840  0.6717 -0.6544
  184SLPC   H5X21175   4.759   2.072   9.655  1.0804  1.7924  1.2561
  184SLPC   H5Y21176   4.779   1.899   9.678  0.5182  0.5599  0.3970
  184SLPC   C3621177   4.903   1.977   9.519 -0.4666 -0.2147  0.1264
  184SLPC   H6X21178   4.978   1.896   9.527 -1.6149 -1.5145 -1.4560
  184SLPC   H6Y21179   4.959   2.069   9.491  1.4316 -0.6260  2.2946
  184SLPC   C3721180   4.819   1.948   9.394  0.1116 -0.5917  0.1865
  184SLPC   H7X21181   4.734   2.018   9.382  0.6863  0.0157 -0.4732
  184SLPC   H7Y21182   4.779   1.845   9.402 -0.4095 -0.4051  0.0117
  184SLPC   C3821183   4.905   1.947   9.268  0.5561 -0.1714  0.5008
  184SLPC   H8X21184   4.989   1.874   9.277 -0.9863 -2.2060 -0.8610
  184SLPC   H8Y21185   4.939   2.051   9.248 -1.3045  0.7322  1.8129
  184SLPC   C3921186   4.814   1.918   9.145  0.4394  0.0060 -0.7525
  184SLPC   H9X21187   4.736   1.997   9.138 -0.0709 -0.2609  1.2280
  184SLPC   H9Y21188   4.765   1.819   9.155  0.0715  0.3763  2.1410
  184SLPC  C31021189   4.917   1.903   9.038  0.8985 -0.8699  0.2443
  184SLPC  H10X21190   4.990   1.819   9.043  0.3566 -1.5786 -2.2300
  184SLPC  H10Y21191   4.985   1.991   9.032  0.7219 -0.7166  0.4604
  184SLPC  C31121192   4.844   1.889   8.903 -0.9517 -0.1487 -0.2523
  184SLPC  H11X21193   4.923   1.891   8.824 -0.5303 -0.1754  0.1621
  184SLPC  H11Y21194   4.787   1.982   8.883  0.2931  1.1064  1.6744
  184SLPC  C31221195   4.766   1.763   8.887  0.1963  0.3019 -0.3404
  184SLPC  H12X21196   4.667   1.752   8.938  1.5688 -0.4769  2.3474
  184SLPC  H12Y21197   4.822   1.680   8.934 -1.6648 -0.0233  1.5133
  184SLPC  C31321198   4.754   1.724   8.740 -0.0491  0.7150  0.8286
  184SLPC  H13X21199   4.855   1.739   8.696 -0.5298 -0.1562 -0.6391
  184SLPC  H13Y21200   4.695   1.795   8.680  1.8208 -0.0813 -2.2048
  184SLPC  C31421201   4.716   1.577   8.724 -0.4697 -0.3472 -0.6955
  184SLPC  H14X21202   4.622   1.557   8.779 -0.2262  0.6727  0.1053
  184SLPC  H14Y21203   4.781   1.500   8.770  0.3754 -0.6644 -2.3436
  184SLPC  C31521204   4.700   1.538   8.575 -0.0871  0.7097 -0.3288
  184SLPC  H15X21205   4.797   1.567   8.530 -0.2403  1.7363 -0.0174
  184SLPC  H15Y21206   4.626   1.604   8.525  0.0962  1.7096  0.6882
  184SLPC  C31621207   4.665   1.389   8.557 -0.0219  0.6825 -0.4796
  184SLPC  H16X21208   4.601   1.354   8.640  0.1619  1.1465 -0.1374
  184SLPC  H16Y21209   4.761   1.333   8.562 -0.7834 -0.5562  0.6233
  184SLPC  C31721210   4.593   1.355   8.430 -0.3395 -0.2149  0.1454
  184SLPC  H17X21211   4.624   1.417   8.344 -3.0578 -0.1276 -0.8756
  184SLPC  H17Y21212   4.486   1.382   8.444 -0.3756 -1.2404  2.4386
  184SLPC  C31821213   4.606   1.208   8.379 -0.2387  0.0497  0.0642
  184SLPC  H18X21214   4.543   1.141   8.440 -1.4694  0.2729 -0.9255
  184SLPC  H18Y21215   4.710   1.169   8.385  0.2208  1.2542  0.2626
  184SLPC  H18Z21216   4.575   1.202   8.272  1.8766  2.3814 -0.8148
  185SLPC     N21217   5.041   0.318   6.161  0.1745  0.2430  0.1800
  185SLPC   C1321218   5.000   0.190   6.220 -0.0696  0.0764  0.0703
  185SLPC  H13A21219   5.003   0.118   6.140  3.5331 -0.0394  0.1529
  185SLPC  H13B21220   5.082   0.170   6.288  2.4231  3.0982 -1.7468
  185SLPC  H13C21221   4.911   0.190   6.282 -0.6914  0.8577 -0.7909
  185SLPC   C1421222   4.923   0.367   6.091  0.1328 -0.7186  0.9077
  185SLPC  H14A21223   4.927   0.418   5.996 -1.0255  0.9937  1.7288
  185SLPC  H14B21224   4.846   0.296   6.066 -1.5121  1.1827  0.4019
  185SLPC  H14C21225   4.869   0.434   6.155 -4.4423  0.3815 -3.4932
  185SLPC   C1521226   5.143   0.277   6.062 -0.3891  0.0992  0.9936
  185SLPC  H15A21227   5.112   0.196   5.999  2.6823 -1.0059  0.7253
  185SLPC  H15B21228   5.173   0.362   6.002 -0.5682 -0.4529  0.1165
  185SLPC  H15C21229   5.234   0.239   6.107 -0.8343 -1.1169  0.8858
  185SLPC   C1221230   5.104   0.417   6.263  0.0155  0.4677 -0.0348
  185SLPC  H12A21231   5.132   0.507   6.211 -0.7546  0.1077 -1.0952
  185SLPC  H12B21232   5.192   0.374   6.308 -0.7603 -0.5193  0.5974
  185SLPC   C1121233   5.020   0.461   6.391 -0.3131  0.0542 -0.3343
  185SLPC  H11A21234   5.089   0.516   6.459  1.0777 -2.0462  0.0537
  185SLPC  H11B21235   4.981   0.378   6.454  0.4832 -1.2356 -1.4980
  185SLPC     P21236   4.914   0.691   6.334 -0.2864  0.2648 -0.1384
  185SLPC   O1321237   5.045   0.736   6.274 -0.2788 -0.0169  0.4624
  185SLPC   O1421238   4.791   0.725   6.261 -0.4048  0.3359  0.0752
  185SLPC   O1221239   4.908   0.535   6.349 -0.8149 -0.3584 -0.2729
  185SLPC   O1121240   4.892   0.738   6.484 -0.0612 -0.0218  0.0467
  185SLPC    C121241   4.966   0.840   6.540  0.1817 -0.2001 -0.3233
  185SLPC    HA21242   5.058   0.789   6.578 -0.6871 -1.7357 -0.2202
  185SLPC    HB21243   5.000   0.920   6.470  0.4848  0.6696  0.7771
  185SLPC    C221244   4.886   0.914   6.651  0.2997  0.1561  0.2088
  185SLPC    HS21245   4.932   1.012   6.677 -0.3155  0.8067 -1.0297
  185SLPC   O2121246   4.873   0.837   6.770 -0.0868  0.1218 -0.1011
  185SLPC   C2121247   4.983   0.806   6.831 -0.9386  0.0856  0.7545
  185SLPC   O2221248   5.092   0.858   6.813 -0.0820  0.0086  0.3615
  185SLPC   C2221249   4.959   0.702   6.942 -0.6419 -0.1663 -0.1539
  185SLPC   H2R21250   4.861   0.651   6.930 -0.8235 -0.2648  1.5112
  185SLPC   H2S21251   5.029   0.617   6.936 -0.9605 -0.5055  0.7836
  185SLPC    C321252   4.751   0.960   6.591  0.0865 -0.2976 -0.4329
  185SLPC    HX21253   4.683   0.874   6.570 -2.3202  1.0166  1.4990
  185SLPC    HY21254   4.764   1.013   6.494 -1.0085 -1.2219 -1.1091
  185SLPC   O3121255   4.671   1.042   6.677  0.1995  0.3140 -0.4295
  185SLPC   C3121256   4.717   1.172   6.697 -0.2544 -0.0220  0.6082
  185SLPC   O3221257   4.816   1.226   6.641  0.0061  0.7222  0.4891
  185SLPC   C3221258   4.624   1.243   6.802  0.7785 -0.6155 -0.2342
  185SLPC   H2X21259   4.518   1.247   6.770  0.5414  1.3278  0.6802
  185SLPC   H2Y21260   4.650   1.349   6.820 -1.2312  0.0930 -1.2381
  185SLPC   C2321261   4.986   0.761   7.086 -0.0962  0.6602  0.5282
  185SLPC   H3R21262   4.906   0.835   7.106 -0.6385  0.2997 -0.2226
  185SLPC   H3S21263   5.091   0.796   7.086 -0.1351  0.7747  1.1684
  185SLPC   C2421264   4.976   0.649   7.192  0.2249 -0.1159  0.0831
  185SLPC   H4R21265   5.053   0.570   7.177 -0.6045 -1.0807  0.7637
  185SLPC   H4S21266   4.878   0.597   7.182  1.0038 -1.7582  0.6617
  185SLPC   C2521267   4.990   0.701   7.344 -0.4496 -0.4543  0.4791
  185SLPC   H5R21268   4.906   0.768   7.370 -1.4190 -1.8375  1.0199
  185SLPC   H5S21269   5.080   0.766   7.357 -0.2870 -0.3860 -0.8613
  185SLPC   C2621270   4.993   0.585   7.445  0.0059  0.2746  0.0242
  185SLPC   H6R21271   5.080   0.522   7.419 -2.1617 -1.9197 -2.3900
  185SLPC   H6S21272   4.900   0.525   7.437 -0.0240  0.5057 -1.6433
  185SLPC   C2721273   5.019   0.631   7.588  0.5953 -0.2011 -0.4327
  185SLPC   H7R21274   5.108   0.698   7.579  0.5156 -0.1292 -0.6707
  185SLPC   H7S21275   5.057   0.546   7.650 -0.5258 -0.2758  0.1818
  185SLPC   C2821276   4.915   0.718   7.660  0.3259  0.6307 -0.2254
  185SLPC   H8R21277   4.898   0.816   7.610 -0.8201  0.0652 -0.9957
  185SLPC   H8S21278   4.968   0.726   7.757 -3.8648 -3.1503  2.8365
  185SLPC   C2921279   4.789   0.634   7.675 -0.0236  0.6008 -0.7348
  185SLPC   H9R21280   4.737   0.618   7.579  0.7702 -0.1346 -1.0653
  185SLPC  C21021281   4.747   0.558   7.783 -0.0240 -0.9325 -0.7056
  185SLPC  H10R21282   4.658   0.493   7.783 -0.0198 -0.9393 -0.8587
  185SLPC  C21121283   4.830   0.539   7.908  0.3259 -0.3748  0.2687
  185SLPC  H11R21284   4.891   0.631   7.922 -0.2004  0.1673 -0.8905
  185SLPC  H11S21285   4.892   0.448   7.895  0.3273 -0.3041 -0.2305
  185SLPC  C21221286   4.752   0.497   8.033 -0.6699 -0.8316 -0.3186
  185SLPC  H12R21287   4.659   0.448   8.002 -1.4488 -0.0157  0.6633
  185SLPC  C21321288   4.765   0.516   8.157 -0.3103 -1.1754 -0.1404
  185SLPC  H13R21289   4.695   0.485   8.236  0.3689  0.2263  1.0689
  185SLPC  C21421290   4.883   0.594   8.209  0.1795 -0.4341 -0.4105
  185SLPC  H14R21291   4.960   0.633   8.139 -1.0193 -0.3136 -1.6872
  185SLPC  H14S21292   4.942   0.524   8.274  3.6356  1.7035 -0.9938
  185SLPC  C21521293   4.842   0.712   8.290 -0.6274 -0.0189 -0.3138
  185SLPC  H15R21294   4.784   0.691   8.382  1.1162  0.2073  0.8830
  185SLPC  H15S21295   4.781   0.779   8.225 -2.0405 -0.6043  0.3570
  185SLPC  C21621296   4.959   0.794   8.346  0.2421  0.2800 -0.1528
  185SLPC  H16R21297   5.031   0.807   8.263  0.8503 -1.6623  0.0131
  185SLPC  H16S21298   5.019   0.730   8.415  0.4354 -0.9223 -1.3761
  185SLPC  C21721299   4.915   0.927   8.412 -0.0563  0.1603  0.0424
  185SLPC  H17R21300   4.841   0.969   8.341  0.2419 -0.4255 -0.6352
  185SLPC  H17S21301   5.000   0.998   8.424  0.3911 -0.4047  0.3034
  185SLPC  C21821302   4.829   0.919   8.540  0.2498  0.1021 -0.3539
  185SLPC  H18R21303   4.792   1.019   8.572 -1.8434 -0.0357 -2.0841
  185SLPC  H18S21304   4.893   0.866   8.614 -1.0384 -1.7398 -0.4896
  185SLPC  H18T21305   4.742   0.853   8.519  1.6346 -1.3307 -1.8688
  185SLPC   C3321306   4.622   1.165   6.938  0.5098 -0.2921  0.0270
  185SLPC   H3X21307   4.619   1.058   6.909 -0.9615  0.5358 -3.2326
  185SLPC   H3Y21308   4.533   1.181   7.003 -0.0555 -2.3805 -0.1366
  185SLPC   C3421309   4.740   1.185   7.029  0.2239  0.5713 -0.0099
  185SLPC   H4X21310   4.754   1.292   7.055 -1.8756  0.9446 -0.2724
  185SLPC   H4Y21311   4.831   1.141   6.981 -1.8746 -1.3755 -2.5392
  185SLPC   C3521312   4.726   1.111   7.162 -0.2235  0.5059  0.5103
  185SLPC   H5X21313   4.755   1.006   7.138  0.3119  0.4691  1.2833
  185SLPC   H5Y21314   4.622   1.115   7.202 -0.5899  0.9334 -0.4418
  185SLPC   C3621315   4.824   1.161   7.268 -0.5663 -0.1132  0.0021
  185SLPC   H6X21316   4.825   1.272   7.258 -0.4921 -0.2014 -1.0843
  185SLPC   H6Y21317   4.931   1.137   7.248 -0.3906 -0.0130  0.8029
  185SLPC   C3721318   4.776   1.113   7.409  0.9940  0.3118 -0.0184
  185SLPC   H7X21319   4.753   1.004   7.409 -2.7512  0.9465 -1.1064
  185SLPC   H7Y21320   4.684   1.170   7.437 -0.7530 -0.7486 -3.1147
  185SLPC   C3821321   4.882   1.141   7.518 -0.0231  0.4636 -0.2688
  185SLPC   H8X21322   4.932   1.239   7.497 -0.2419  1.4070  3.0554
  185SLPC   H8Y21323   4.961   1.064   7.506 -0.2610  0.0852  0.5509
  185SLPC   C3921324   4.830   1.157   7.662  0.1315  0.5521 -0.4957
  185SLPC   H9X21325   4.916   1.148   7.733 -0.7750  0.8234  0.6658
  185SLPC   H9Y21326   4.750   1.085   7.689  3.7398 -4.0772 -0.8720
  185SLPC  C31021327   4.786   1.303   7.695  0.1140 -0.0115  0.0818
  185SLPC  H10X21328   4.696   1.317   7.631  1.9804  3.9175 -2.1332
  185SLPC  H10Y21329   4.861   1.379   7.662 -0.5700  0.2561 -0.9049
  185SLPC  C31121330   4.743   1.323   7.844  0.1973  0.2146  0.6495
  185SLPC  H11X21331   4.818   1.267   7.904  0.5718  0.0367  0.0243
  185SLPC  H11Y21332   4.651   1.262   7.859  0.8384 -0.9309  0.1195
  185SLPC  C31221333   4.715   1.461   7.895 -0.1001 -1.0991  0.2878
  185SLPC  H12X21334   4.646   1.507   7.820  0.1211 -1.9354 -0.4440
  185SLPC  H12Y21335   4.808   1.522   7.891 -0.7569  0.0646  1.7647
  185SLPC  C31321336   4.635   1.471   8.033 -0.0036 -0.6680  0.1580
  185SLPC  H13X21337   4.699   1.428   8.113  2.6611  0.5208 -1.1850
  185SLPC  H13Y21338   4.547   1.403   8.026 -1.1497  0.9435 -2.8412
  185SLPC  C31421339   4.588   1.619   8.052  0.0644 -0.0367  0.0609
  185SLPC  H14X21340   4.495   1.632   7.993  2.1787  1.8398 -3.1953
  185SLPC  H14Y21341   4.660   1.683   7.997 -0.4432  0.5129  0.0221
  185SLPC  C31521342   4.585   1.662   8.195 -0.0210 -0.1958 -0.3216
  185SLPC  H15X21343   4.680   1.637   8.246  1.3283  2.2923 -1.4394
  185SLPC  H15Y21344   4.513   1.604   8.257  1.1564 -1.9178 -0.5052
  185SLPC  C31621345   4.584   1.820   8.219 -0.2964  0.0161 -0.2053
  185SLPC  H16X21346   4.491   1.868   8.181 -1.7711  0.2657  3.3453
  185SLPC  H16Y21347   4.665   1.873   8.165 -1.6592  0.8805 -1.4988
  185SLPC  C31721348   4.595   1.858   8.367 -0.5202  0.5191 -0.2485
  185SLPC  H17X21349   4.693   1.827   8.407  1.0975  3.1283 -1.9030
  185SLPC  H17Y21350   4.526   1.804   8.435  1.9044 -0.1423  1.8485
  185SLPC  C31821351   4.595   2.018   8.379 -0.5578  0.5946 -0.1093
  185SLPC  H18X21352   4.614   2.055   8.482  0.3968  0.3747 -0.2012
  185SLPC  H18Y21353   4.496   2.052   8.342 -1.5759 -1.8291  0.1775
  185SLPC  H18Z21354   4.673   2.062   8.314 -1.0760 -1.1499 -2.0231
  186SLPC     N21355   2.897   4.493   6.122  0.3103 -0.0718 -0.6575
  186SLPC   C1321356   3.033   4.520   6.076  0.8566 -0.2649 -0.1912
  186SLPC  H13A21357   3.045   4.473   5.980 -1.1291 -1.6562  0.1775
  186SLPC  H13B21358   3.052   4.627   6.074 -1.0241  0.2158  2.2736
  186SLPC  H13C21359   3.103   4.473   6.143  0.0895 -3.1879 -1.3153
  186SLPC   C1421360   2.862   4.353   6.073 -0.1578 -0.4032 -0.1815
  186SLPC  H14A21361   2.877   4.354   5.966 -0.8741 -1.6171 -0.3165
  186SLPC  H14B21362   2.937   4.288   6.116 -1.0211  0.2812  2.5333
  186SLPC  H14C21363   2.761   4.325   6.101 -0.9057  0.0881 -2.1748
  186SLPC   C1521364   2.797   4.585   6.064 -0.2325  0.8031 -0.5477
  186SLPC  H15A21365   2.696   4.555   6.087  0.0160 -0.0292 -0.5224
  186SLPC  H15B21366   2.797   4.686   6.101 -2.5612 -0.3581  3.1985
  186SLPC  H15C21367   2.809   4.598   5.957  2.9769 -1.0276 -0.5282
  186SLPC   C1221368   2.890   4.505   6.273  0.9667 -0.1236 -0.3383
  186SLPC  H12A21369   2.942   4.595   6.300  0.1023  0.0262  0.9180
  186SLPC  H12B21370   2.941   4.421   6.317 -0.3528 -0.8566 -0.1530
  186SLPC   C1121371   2.754   4.505   6.349 -0.2423 -0.3834 -0.0355
  186SLPC  H11A21372   2.710   4.606   6.336  3.9111  1.2639 -4.9400
  186SLPC  H11B21373   2.771   4.498   6.459 -1.7957  0.3966  0.2799
  186SLPC     P21374   2.523   4.416   6.259  0.1442  0.2037 -0.1764
  186SLPC   O1321375   2.510   4.502   6.140 -0.2249 -0.0834  0.1011
  186SLPC   O1421376   2.461   4.286   6.241  0.3288 -0.1152 -0.4523
  186SLPC   O1221377   2.675   4.395   6.303 -0.5814 -0.0423 -0.8215
  186SLPC   O1121378   2.451   4.490   6.378 -0.3785 -0.1839  0.4320
  186SLPC    C121379   2.443   4.416   6.496 -0.1097  0.1985 -0.9784
  186SLPC    HA21380   2.365   4.341   6.475  0.3523  0.3752 -3.7175
  186SLPC    HB21381   2.538   4.371   6.533  0.6255  2.5610  0.2417
  186SLPC    C221382   2.418   4.513   6.613  0.3681 -0.1531 -0.3942
  186SLPC    HS21383   2.425   4.445   6.701 -0.4706  0.0278 -0.1773
  186SLPC   O2121384   2.284   4.562   6.618 -0.1733 -0.7299 -0.3255
  186SLPC   C2121385   2.237   4.594   6.736 -0.8986 -0.2736 -0.0560
  186SLPC   O2221386   2.304   4.609   6.840 -0.3323  0.2318  0.3389
  186SLPC   C2221387   2.086   4.597   6.729 -0.2811  0.6186 -0.4094
  186SLPC   H2R21388   2.041   4.691   6.689 -2.1241 -0.9531 -2.2185
  186SLPC   H2S21389   2.049   4.522   6.656 -0.4372  0.8412 -0.5627
  186SLPC    C321390   2.515   4.628   6.617  0.0731 -0.7259  0.2097
  186SLPC    HX21391   2.476   4.701   6.691  2.4736  1.4146 -0.4982
  186SLPC    HY21392   2.522   4.696   6.530  0.0312  1.9217  2.1604
  186SLPC   O3121393   2.646   4.587   6.654 -0.3093  0.2405 -0.7423
  186SLPC   C3121394   2.665   4.555   6.780  0.5894  0.7279  0.3010
  186SLPC   O3221395   2.591   4.574   6.873 -0.2146  0.6446  0.3673
  186SLPC   C3221396   2.793   4.473   6.794 -0.0770  0.1589  0.3234
  186SLPC   H2X21397   2.844   4.491   6.697 -0.2414  1.2330  0.4178
  186SLPC   H2Y21398   2.753   4.370   6.791 -2.2435  0.9082  1.0485
  186SLPC   C2321399   2.021   4.563   6.864 -0.5287 -0.2268 -0.3994
  186SLPC   H3R21400   1.927   4.620   6.876  0.3659  2.0089 -2.9920
  186SLPC   H3S21401   2.078   4.613   6.945 -0.7899  0.5432 -0.6839
  186SLPC   C2421402   2.008   4.413   6.895  0.3692  0.3358  0.1855
  186SLPC   H4R21403   2.106   4.365   6.873  1.5631  3.0699 -0.9013
  186SLPC   H4S21404   1.938   4.373   6.818  1.7712 -3.3216  0.6134
  186SLPC   C2521405   1.966   4.373   7.039  0.1649  0.1310 -0.3641
  186SLPC   H5R21406   1.982   4.263   7.049  1.7952  0.3123 -0.8293
  186SLPC   H5S21407   1.860   4.398   7.060  0.6811  1.3258  0.9388
  186SLPC   C2621408   2.058   4.451   7.136  0.2825 -0.1582  0.3679
  186SLPC   H6R21409   2.019   4.555   7.136 -1.3556 -0.7144 -0.7381
  186SLPC   H6S21410   2.157   4.459   7.087  0.3050  1.1485  0.6043
  186SLPC   C2721411   2.061   4.382   7.273 -0.8031  0.7267 -0.2260
  186SLPC   H7R21412   2.120   4.287   7.269  1.2077  1.9484 -2.8367
  186SLPC   H7S21413   1.958   4.340   7.284 -1.0888  1.2099 -0.9750
  186SLPC   C2821414   2.113   4.474   7.385  0.0965  0.1238 -0.2005
  186SLPC   H8R21415   2.093   4.418   7.478 -0.7494  0.4765 -0.1609
  186SLPC   H8S21416   2.052   4.566   7.391  0.4562  0.4708 -1.5100
  186SLPC   C2921417   2.258   4.515   7.376  0.4382 -0.5707 -0.6132
  186SLPC   H9R21418   2.284   4.582   7.293 -0.7071  1.6537  0.7211
  186SLPC  C21021419   2.350   4.494   7.474  0.5597 -0.0826 -0.0770
  186SLPC  H10R21420   2.457   4.513   7.455  0.7647  0.0006  1.0717
  186SLPC  C21121421   2.319   4.420   7.599  0.0884  0.5004 -0.8645
  186SLPC  H11R21422   2.412   4.366   7.628 -0.4800  0.6419  1.4338
  186SLPC  H11S21423   2.232   4.351   7.594 -1.9961  2.7510  1.4576
  186SLPC  C21221424   2.284   4.524   7.703  0.5502 -0.2277 -0.3937
  186SLPC  H12R21425   2.263   4.628   7.674  0.5545  0.7022  2.6020
  186SLPC  C21321426   2.283   4.494   7.838 -0.5799 -0.5109  0.7746
  186SLPC  H13R21427   2.286   4.579   7.906  0.1830 -0.2176  0.3895
  186SLPC  C21421428   2.324   4.364   7.898  0.0565 -0.9592  0.3891
  186SLPC  H14R21429   2.348   4.291   7.818  3.7707 -1.2778  1.6227
  186SLPC  H14S21430   2.231   4.324   7.943  0.8110 -1.9889  1.0716
  186SLPC  C21521431   2.436   4.362   8.007  0.0381  0.3304  0.3913
  186SLPC  H15R21432   2.533   4.399   7.968  0.6291 -0.2952  1.2697
  186SLPC  H15S21433   2.442   4.259   8.046  0.2760  0.1631 -0.0871
  186SLPC  C21621434   2.400   4.451   8.126  0.1626  0.5283  0.0861
  186SLPC  H16R21435   2.298   4.421   8.160  1.1497 -2.1491  0.9025
  186SLPC  H16S21436   2.401   4.555   8.087 -1.8412  1.1584  1.5427
  186SLPC  C21721437   2.490   4.428   8.255  0.3590  0.2813 -0.3569
  186SLPC  H17R21438   2.595   4.445   8.226  0.5053  1.8409  0.9512
  186SLPC  H17S21439   2.478   4.321   8.284  0.4158  0.6644  1.1757
  186SLPC  C21821440   2.439   4.515   8.373 -1.4346  0.0492  0.1680
  186SLPC  H18R21441   2.432   4.618   8.331 -1.9585  1.1844  2.8804
  186SLPC  H18S21442   2.511   4.510   8.457 -0.2286 -0.6056 -0.8740
  186SLPC  H18T21443   2.339   4.483   8.406 -0.8425 -0.0252  1.9572
  186SLPC   C3321444   2.884   4.504   6.913 -0.0497  0.3381  0.3398
  186SLPC   H3X21445   2.904   4.612   6.893  0.3570  0.5403  1.7102
  186SLPC   H3Y21446   2.973   4.440   6.893 -0.2726  0.7100 -2.1040
  186SLPC   C3421447   2.833   4.492   7.056 -0.1520  0.2168  0.3289
  186SLPC   H4X21448   2.741   4.556   7.061  0.0803  0.6341 -0.5732
  186SLPC   H4Y21449   2.902   4.535   7.132  1.8006 -0.8538 -0.7747
  186SLPC   C3521450   2.792   4.353   7.089  0.3979  0.4153 -0.4658
  186SLPC   H5X21451   2.871   4.276   7.078 -0.4518 -0.3883 -0.9834
  186SLPC   H5Y21452   2.702   4.330   7.030  0.6583 -2.8484  0.2319
  186SLPC   C3621453   2.742   4.338   7.235 -0.8775 -0.0103 -0.4455
  186SLPC   H6X21454   2.688   4.242   7.245  1.6108 -1.5811 -1.0357
  186SLPC   H6Y21455   2.670   4.418   7.262  0.1463  1.0093 -0.6521
  186SLPC   C3721456   2.854   4.331   7.345 -0.0021 -0.0975 -0.6959
  186SLPC   H7X21457   2.911   4.426   7.351  0.3131 -0.2695 -0.9798
  186SLPC   H7Y21458   2.925   4.253   7.310  0.6799  0.7195 -1.1833
  186SLPC   C3821459   2.795   4.302   7.487 -0.5611  0.0796 -0.1335
  186SLPC   H8X21460   2.775   4.192   7.485 -2.2199  0.3350  0.4493
  186SLPC   H8Y21461   2.694   4.345   7.503 -0.9945 -0.2053 -1.9184
  186SLPC   C3921462   2.883   4.360   7.601  0.0115 -0.6816 -0.3674
  186SLPC   H9X21463   2.884   4.471   7.595  1.7165 -0.3708  3.2721
  186SLPC   H9Y21464   2.984   4.315   7.605  0.2663 -0.0756  0.0570
  186SLPC  C31021465   2.818   4.337   7.743 -0.0903  0.0595 -0.3012
  186SLPC  H10X21466   2.820   4.228   7.764  2.0056  0.3919  1.6444
  186SLPC  H10Y21467   2.716   4.376   7.758 -0.0333 -0.7170  2.7810
  186SLPC  C31121468   2.912   4.406   7.849 -0.2359  0.1766  0.0105
  186SLPC  H11X21469   2.894   4.515   7.843 -1.1189  0.0498  0.1987
  186SLPC  H11Y21470   3.013   4.372   7.817 -1.0941 -1.0175 -1.5840
  186SLPC  C31221471   2.874   4.360   7.987  0.4278 -0.2673 -0.1565
  186SLPC  H12X21472   2.925   4.271   8.031  0.4393  0.1309  0.6396
  186SLPC  H12Y21473   2.766   4.334   7.993 -0.5011  2.7167 -1.6725
  186SLPC  C31321474   2.909   4.472   8.090  0.4903  0.1607  0.1485
  186SLPC  H13X21475   2.837   4.556   8.081  1.2935  0.8481 -0.0125
  186SLPC  H13Y21476   3.005   4.521   8.059 -0.1430  1.0466 -0.4735
  186SLPC  C31421477   2.910   4.420   8.232  0.3836  0.1776 -0.1288
  186SLPC  H14X21478   2.973   4.329   8.234 -2.5132 -1.9708  1.4490
  186SLPC  H14Y21479   2.812   4.381   8.267 -0.1716  1.2543 -0.4330
  186SLPC  C31521480   2.966   4.510   8.337  0.3700 -0.7446 -0.7592
  186SLPC  H15X21481   2.917   4.609   8.348 -1.6915 -1.7299 -0.5621
  186SLPC  H15Y21482   3.077   4.515   8.345  0.1931  0.7959  2.9148
  186SLPC  C31621483   2.953   4.447   8.478 -0.2413  0.2892  0.0387
  186SLPC  H16X21484   2.992   4.344   8.481  1.9162  1.0070 -1.2125
  186SLPC  H16Y21485   2.843   4.453   8.496 -0.3851 -1.0606 -0.3194
  186SLPC  C31721486   3.034   4.531   8.583  0.2391  0.0287  0.3440
  186SLPC  H17X21487   3.033   4.639   8.559  1.8159 -0.4001 -1.9551
  186SLPC  H17Y21488   3.140   4.498   8.575  0.0272 -0.9401  1.1921
  186SLPC  C31821489   2.976   4.495   8.719  0.7194  0.1548  0.2205
  186SLPC  H18X21490   2.906   4.575   8.751 -0.0961 -0.4350 -0.0563
  186SLPC  H18Y21491   3.054   4.482   8.797  1.2039  1.6374  0.0064
  186SLPC  H18Z21492   2.913   4.404   8.712 -0.2362  0.9010 -1.7612
  187SLPC     N21493   6.416   0.398   5.905  0.1013  0.1417 -0.2482
  187SLPC   C1321494   6.403   0.254   5.947  0.2066 -0.2609 -0.8236
  187SLPC  H13A21495   6.498   0.225   5.991  0.7414  0.5320 -1.4328
  187SLPC  H13B21496   6.323   0.240   6.017  0.5890 -0.5832 -0.4461
  187SLPC  H13C21497   6.377   0.190   5.864 -0.5445  0.5604 -1.2321
  187SLPC   C1421498   6.293   0.431   5.823  0.2092  0.0709  0.1988
  187SLPC  H14A21499   6.306   0.515   5.756 -0.8335 -0.6753 -0.9771
  187SLPC  H14B21500   6.264   0.352   5.756  1.5366  0.7169 -1.1941
  187SLPC  H14C21501   6.208   0.453   5.886  2.5474  2.7047  2.7442
  187SLPC   C1521502   6.543   0.403   5.820 -0.8273  0.2880 -0.3866
  187SLPC  H15A21503   6.541   0.340   5.731 -2.6770  1.1943 -1.0506
  187SLPC  H15B21504   6.563   0.499   5.774 -1.7696  0.0487 -1.3508
  187SLPC  H15C21505   6.629   0.373   5.877 -0.6516  1.3800 -0.0666
  187SLPC   C1221506   6.426   0.492   6.022 -0.8260 -0.2544  1.1643
  187SLPC  H12A21507   6.417   0.594   5.987  1.8750 -0.5664 -0.6943
  187SLPC  H12B21508   6.519   0.468   6.070 -2.9801 -3.3008  4.3148
  187SLPC   C1121509   6.321   0.464   6.141 -0.1727  0.4482 -0.9439
  187SLPC  H11A21510   6.217   0.463   6.103 -0.4814 -2.2783 -0.2745
  187SLPC  H11B21511   6.327   0.534   6.228  0.0175 -3.3711  2.4444
  187SLPC     P21512   6.466   0.319   6.323  0.2766 -0.4441 -0.0813
  187SLPC   O1321513   6.564   0.213   6.298  0.2841  0.1707  0.3325
  187SLPC   O1421514   6.536   0.446   6.341  0.1290  0.0820  0.3506
  187SLPC   O1221515   6.350   0.341   6.212 -0.3000 -0.1623  0.7827
  187SLPC   O1121516   6.388   0.276   6.459 -0.7067 -0.8192  0.0597
  187SLPC    C121517   6.269   0.348   6.487  0.2466  0.0266 -0.2215
  187SLPC    HA21518   6.213   0.400   6.406 -3.2321  0.4190  2.1743
  187SLPC    HB21519   6.196   0.272   6.522  1.7411 -0.3459  2.3259
  187SLPC    C221520   6.283   0.453   6.602 -0.0851 -0.3831  0.2838
  187SLPC    HS21521   6.363   0.522   6.567 -1.0683  0.4744 -0.3481
  187SLPC   O2121522   6.312   0.398   6.731 -0.2151 -0.2776  0.2720
  187SLPC   C2121523   6.446   0.388   6.750  0.7403  0.3168 -1.0560
  187SLPC   O2221524   6.536   0.440   6.684  0.2494  0.0214  0.1875
  187SLPC   C2221525   6.459   0.333   6.891  0.7640  0.2003  0.0115
  187SLPC   H2R21526   6.383   0.251   6.890 -1.0662  1.7573  2.0440
  187SLPC   H2S21527   6.561   0.292   6.900 -0.9567 -4.7432  0.3203
  187SLPC    C321528   6.155   0.542   6.604 -0.1956 -0.1216  0.1357
  187SLPC    HX21529   6.066   0.484   6.639 -0.6035  1.4812  1.8866
  187SLPC    HY21530   6.134   0.583   6.503 -2.4453 -1.1805  0.0942
  187SLPC   O3121531   6.172   0.653   6.691 -0.3792  0.3478 -0.1352
  187SLPC   C3121532   6.231   0.760   6.634 -0.2122  0.1809 -0.3804
  187SLPC   O3221533   6.281   0.766   6.525 -0.2239 -0.3219 -0.0787
  187SLPC   C3221534   6.245   0.862   6.744  0.4815  0.1064  1.0561
  187SLPC   H2X21535   6.215   0.962   6.706 -0.6016 -0.7485 -0.4133
  187SLPC   H2Y21536   6.355   0.860   6.761  0.9985 -1.7093 -1.8008
  187SLPC   C2321537   6.430   0.425   7.007  0.4260  0.3735 -0.4203
  187SLPC   H3R21538   6.348   0.495   6.980 -0.7372 -1.5707 -2.2292
  187SLPC   H3S21539   6.520   0.489   7.021  1.0184 -0.5769  0.2641
  187SLPC   C2421540   6.393   0.347   7.137  0.0139 -0.9121 -0.1436
  187SLPC   H4R21541   6.459   0.259   7.148  0.4062 -0.6495 -0.3630
  187SLPC   H4S21542   6.285   0.327   7.122 -0.3157  0.3547  0.3729
  187SLPC   C2521543   6.407   0.429   7.274  0.9579  0.2290  0.3112
  187SLPC   H5R21544   6.345   0.521   7.273 -1.5585 -1.3855  1.5508
  187SLPC   H5S21545   6.516   0.451   7.275  0.9844  0.1571  2.7290
  187SLPC   C2621546   6.366   0.356   7.410 -0.4630 -0.5047  0.4673
  187SLPC   H6R21547   6.433   0.270   7.431  0.6671  0.2191 -0.0694
  187SLPC   H6S21548   6.261   0.324   7.394 -0.5238 -0.2338  0.3237
  187SLPC   C2721549   6.381   0.461   7.521  0.4078  0.9374 -0.3694
  187SLPC   H7R21550   6.354   0.561   7.479 -0.5406  0.2477 -1.4349
  187SLPC   H7S21551   6.487   0.462   7.556  0.6511  1.9646 -1.0694
  187SLPC   C2821552   6.299   0.423   7.652  1.2427 -1.1117  0.4930
  187SLPC   H8R21553   6.192   0.419   7.623  0.6059 -1.4160  2.7548
  187SLPC   H8S21554   6.317   0.510   7.719  2.7796 -0.8605 -0.1877
  187SLPC   C2921555   6.338   0.300   7.720 -0.1536  0.2177 -0.3637
  187SLPC   H9R21556   6.420   0.247   7.670  1.9658  0.1455  2.8851
  187SLPC  C21021557   6.303   0.248   7.839 -0.1246  0.3672  0.0760
  187SLPC  H10R21558   6.344   0.151   7.870  2.6461  1.4378  0.0060
  187SLPC  C21121559   6.206   0.306   7.943  0.3769  0.3017 -0.1920
  187SLPC  H11R21560   6.124   0.233   7.960 -1.8676  2.5013 -1.0425
  187SLPC  H11S21561   6.153   0.392   7.898  2.2681  1.1393 -0.9140
  187SLPC  C21221562   6.277   0.341   8.076  0.5391 -0.2241  0.3003
  187SLPC  H12R21563   6.366   0.403   8.056 -0.0233  0.1405 -1.2622
  187SLPC  C21321564   6.245   0.310   8.201 -1.1168 -0.2117  0.7031
  187SLPC  H13R21565   6.321   0.338   8.274 -0.4247  0.6785 -0.3191
  187SLPC  C21421566   6.130   0.222   8.248  0.7980  0.3825 -0.3145
  187SLPC  H14R21567   6.065   0.197   8.162 -1.0169 -0.1038  1.1499
  187SLPC  H14S21568   6.056   0.274   8.312 -0.9433 -2.2751 -0.0154
  187SLPC  C21521569   6.163   0.091   8.323 -0.1878  1.1735  0.1649
  187SLPC  H15R21570   6.219   0.023   8.255  1.3029  0.3840  2.0835
  187SLPC  H15S21571   6.069   0.035   8.345  0.2868  0.7466  1.1798
  187SLPC  C21621572   6.242   0.101   8.453  0.1768  0.4884 -0.2035
  187SLPC  H16R21573   6.168   0.130   8.530  1.8018  0.6260  1.3787
  187SLPC  H16S21574   6.311   0.187   8.442  0.3808  0.1582 -1.7372
  187SLPC  C21721575   6.316  -0.030   8.502 -0.2596 -0.5486  0.2325
  187SLPC  H17R21576   6.375   0.001   8.591 -0.3220  0.2477  0.0063
  187SLPC  H17S21577   6.390  -0.060   8.424  1.3713  0.4211  1.3481
  187SLPC  C21821578   6.227  -0.153   8.518  0.4361 -0.7300 -0.1524
  187SLPC  H18R21579   6.282  -0.249   8.517  0.2195 -0.8553 -0.7305
  187SLPC  H18S21580   6.158  -0.168   8.431  1.2122  1.2981 -1.1926
  187SLPC  H18T21581   6.167  -0.144   8.611  1.4216 -4.1924  0.9623
  187SLPC   C3321582   6.158   0.838   6.868 -0.0075 -0.8831 -0.1204
  187SLPC   H3X21583   6.188   0.745   6.920  0.7581  0.0389  1.1451
  187SLPC   H3Y21584   6.049   0.838   6.848 -0.5071  1.1388  2.2284
  187SLPC   C3421585   6.171   0.959   6.969 -0.3080 -0.4017  0.6729
  187SLPC   H4X21586   6.099   1.030   6.923 -0.7284 -1.0579  0.3067
  187SLPC   H4Y21587   6.273   1.002   6.977 -0.0705 -1.1680  1.9921
  187SLPC   C3521588   6.117   0.944   7.105 -0.2264  0.4959 -0.6146
  187SLPC   H5X21589   6.153   0.848   7.148  0.1619  0.7821 -0.2919
  187SLPC   H5Y21590   6.006   0.939   7.115 -0.0691  0.4373  1.5138
  187SLPC   C3621591   6.164   1.050   7.213 -0.2104  0.2206  0.4634
  187SLPC   H6X21592   6.168   1.156   7.179  0.0130  0.2142  0.4674
  187SLPC   H6Y21593   6.269   1.019   7.228 -0.1506  0.3460  0.3030
  187SLPC   C3721594   6.071   1.033   7.339 -0.3641 -0.8774 -1.0726
  187SLPC   H7X21595   5.967   1.058   7.308 -0.4838  1.9411  1.1909
  187SLPC   H7Y21596   6.084   0.931   7.380  1.2764 -0.1673  0.3198
  187SLPC   C3821597   6.090   1.135   7.450 -0.4198  0.1631 -0.9314
  187SLPC   H8X21598   5.985   1.150   7.483 -0.1800 -1.5282  0.7940
  187SLPC   H8Y21599   6.133   1.228   7.407  1.8537 -0.8425 -0.9568
  187SLPC   C3921600   6.169   1.087   7.577  0.3958  0.0873 -0.2082
  187SLPC   H9X21601   6.120   0.994   7.614  0.8636 -0.2317 -0.3759
  187SLPC   H9Y21602   6.166   1.164   7.656 -1.9563  1.7785 -1.8286
  187SLPC  C31021603   6.310   1.053   7.547  0.3774  0.3001  0.4830
  187SLPC  H10X21604   6.359   1.131   7.484  0.1923 -0.3328 -0.4624
  187SLPC  H10Y21605   6.320   0.953   7.500 -0.0423 -0.0634  1.1550
  187SLPC  C31121606   6.390   1.036   7.676  0.0806  0.3962  0.9952
  187SLPC  H11X21607   6.376   1.137   7.721 -2.3891  1.9806 -2.8272
  187SLPC  H11Y21608   6.495   1.027   7.641 -1.1385 -0.3898 -3.0138
  187SLPC  C31221609   6.358   0.914   7.761 -0.6420  0.4611  0.7002
  187SLPC  H12X21610   6.359   0.824   7.696 -0.6629  1.0917 -0.1977
  187SLPC  H12Y21611   6.259   0.938   7.805 -1.1242  1.0633 -0.6446
  187SLPC  C31321612   6.466   0.895   7.878  0.0396  0.4569  0.2597
  187SLPC  H13X21613   6.571   0.896   7.843 -0.1146 -2.4972 -0.4869
  187SLPC  H13Y21614   6.453   0.794   7.923  3.6463 -0.4487 -0.4556
  187SLPC  C31421615   6.450   0.991   7.991 -0.7446  0.1385 -0.3893
  187SLPC  H14X21616   6.391   0.943   8.072  0.5542 -1.4102 -0.3180
  187SLPC  H14Y21617   6.392   1.080   7.959 -1.0609 -0.1274 -0.5700
  187SLPC  C31521618   6.594   1.023   8.053 -0.1159 -0.1682  0.3720
  187SLPC  H15X21619   6.657   1.049   7.965  0.1425  1.5045  1.0102
  187SLPC  H15Y21620   6.640   0.935   8.103 -0.8025  1.3149  3.9359
  187SLPC  C31621621   6.607   1.141   8.154  0.5232 -0.0163 -0.1166
  187SLPC  H16X21622   6.567   1.228   8.096  1.9301  0.4743 -0.3991
  187SLPC  H16Y21623   6.714   1.150   8.183  0.6162 -0.5880 -0.2669
  187SLPC  C31721624   6.521   1.131   8.274  0.5009  0.7104  0.5486
  187SLPC  H17X21625   6.547   1.033   8.319 -1.6776 -0.4573 -0.5717
  187SLPC  H17Y21626   6.413   1.119   8.249  0.8488  0.9218 -1.1398
  187SLPC  C31821627   6.536   1.242   8.374  0.1779  0.2901  1.0630
  187SLPC  H18X21628   6.644   1.265   8.385  0.3835  0.0749 -0.3276
  187SLPC  H18Y21629   6.485   1.208   8.467 -0.6968 -2.3015 -0.2658
  187SLPC  H18Z21630   6.479   1.330   8.339  1.5992  0.1046 -2.0429
  188SLPC     N21631   3.682   4.114   6.129 -0.5033 -0.1009 -0.0405
  188SLPC   C1321632   3.557   4.190   6.083  0.2399  0.4208 -0.2103
  188SLPC  H13A21633   3.582   4.267   6.012  2.8503 -1.7807 -1.8823
  188SLPC  H13B21634   3.484   4.126   6.037 -1.9846  0.6703  2.6463
  188SLPC  H13C21635   3.503   4.229   6.168 -2.9280 -0.5308 -1.6536
  188SLPC   C1421636   3.740   4.044   6.010  0.2278 -0.5053 -0.8366
  188SLPC  H14A21637   3.669   3.987   5.952 -2.2387  0.4699  1.0920
  188SLPC  H14B21638   3.782   4.122   5.947 -2.3087  0.6859 -1.1881
  188SLPC  H14C21639   3.815   3.973   6.041 -0.2378 -0.2472  0.9713
  188SLPC   C1521640   3.639   4.003   6.220 -0.6284 -0.4361  0.0389
  188SLPC  H15A21641   3.583   3.935   6.158 -0.7309 -0.8494  0.5774
  188SLPC  H15B21642   3.724   3.949   6.260 -0.9076 -0.7770  0.1801
  188SLPC  H15C21643   3.583   4.040   6.304  0.2262  0.1274  0.3769
  188SLPC   C1221644   3.777   4.204   6.201 -0.0215 -0.2548 -0.4917
  188SLPC  H12A21645   3.733   4.238   6.294  1.8097  0.0708  0.3097
  188SLPC  H12B21646   3.794   4.300   6.154 -0.8029  0.2902  0.2998
  188SLPC   C1121647   3.911   4.138   6.237  0.2853 -0.4092 -0.2954
  188SLPC  H11A21648   3.958   4.103   6.142 -1.3220 -0.9580 -0.9323
  188SLPC  H11B21649   3.901   4.048   6.301 -1.2905 -0.0274  0.0441
  188SLPC     P21650   4.132   4.214   6.347  0.0105  0.1800  0.0127
  188SLPC   O1321651   4.177   4.078   6.311 -0.4160 -0.1483  0.3631
  188SLPC   O1421652   4.226   4.314   6.298 -0.9413 -0.7208 -0.2597
  188SLPC   O1221653   3.994   4.247   6.282 -0.3559  0.1770  0.0734
  188SLPC   O1121654   4.101   4.232   6.501  0.7896 -0.4173  0.0112
  188SLPC    C121655   4.177   4.153   6.596  0.2196 -0.0411  0.0062
  188SLPC    HA21656   4.149   4.046   6.606  1.4793 -0.6741 -2.4128
  188SLPC    HB21657   4.285   4.144   6.570  0.0329  0.0331 -0.8159
  188SLPC    C221658   4.203   4.225   6.738 -0.8739 -0.0555  0.2805
  188SLPC    HS21659   4.289   4.168   6.781  0.0067  1.1399  0.1485
  188SLPC   O2121660   4.090   4.234   6.822  0.3355  0.1219  0.1811
  188SLPC   C2121661   4.108   4.220   6.949  0.0249 -0.8875  0.0636
  188SLPC   O2221662   4.215   4.209   7.008 -0.0646 -0.2796  0.2994
  188SLPC   C2221663   3.969   4.215   7.016  0.8021 -0.8994  0.3703
  188SLPC   H2R21664   3.905   4.279   6.952  1.4196 -1.5782 -0.9609
  188SLPC   H2S21665   3.932   4.110   7.019  0.4637 -0.7787  0.4197
  188SLPC    C321666   4.257   4.367   6.718  0.0675 -0.0423  0.6429
  188SLPC    HX21667   4.167   4.432   6.715  0.6783  0.7968 -0.0721
  188SLPC    HY21668   4.319   4.386   6.628  0.5326 -1.5713  0.6088
  188SLPC   O3121669   4.334   4.393   6.839 -0.2266 -0.1110  0.0624
  188SLPC   C3121670   4.371   4.518   6.858 -0.1701  0.5731  0.2633
  188SLPC   O3221671   4.333   4.612   6.790 -0.4481 -0.4394 -0.6679
  188SLPC   C3221672   4.443   4.532   6.989 -0.3640 -0.0590  0.2435
  188SLPC   H2X21673   4.510   4.444   6.994 -0.2660 -0.0527 -0.7612
  188SLPC   H2Y21674   4.376   4.534   7.077  1.0499  0.4899  1.3474
  188SLPC   C2321675   3.981   4.261   7.166 -0.5376 -0.9965  0.2942
  188SLPC   H3R21676   4.024   4.363   7.171 -0.9815 -0.8245  0.6551
  188SLPC   H3S21677   4.044   4.197   7.231  0.1610 -0.1351  0.4800
  188SLPC   C2421678   3.843   4.267   7.237 -0.3831 -0.0831  0.6809
  188SLPC   H4R21679   3.791   4.169   7.244  1.6664 -1.1957  1.1145
  188SLPC   H4S21680   3.776   4.326   7.170 -0.2281  0.0141  0.6094
  188SLPC   C2521681   3.849   4.340   7.374  0.2699  0.1904 -0.2309
  188SLPC   H5R21682   3.746   4.381   7.382 -0.5038 -1.4451 -1.2532
  188SLPC   H5S21683   3.908   4.434   7.360  0.1724  0.2756 -0.0776
  188SLPC   C2621684   3.897   4.267   7.496 -0.1872  0.4410  0.6531
  188SLPC   H6R21685   4.008   4.266   7.495 -0.1879  0.3757  0.6317
  188SLPC   H6S21686   3.854   4.165   7.484 -1.7772  1.2029 -0.5478
  188SLPC   C2721687   3.854   4.331   7.629  0.0518  0.1177  0.2250
  188SLPC   H7R21688   3.744   4.328   7.643  0.1935 -1.7980  1.2476
  188SLPC   H7S21689   3.888   4.437   7.630  1.8254 -0.4241  1.0758
  188SLPC   C2821690   3.926   4.266   7.756  0.2031 -0.7716  0.6863
  188SLPC   H8R21691   3.918   4.337   7.842  0.5799 -1.5168  1.3441
  188SLPC   H8S21692   4.032   4.256   7.727 -0.1518 -1.4545 -0.4079
  188SLPC   C2921693   3.859   4.134   7.798 -0.3814 -0.1162  0.5581
  188SLPC   H9R21694   3.838   4.068   7.713  0.6418 -0.8851  0.8847
  188SLPC  C21021695   3.822   4.103   7.920  0.2361 -0.9954 -0.1501
  188SLPC  H10R21696   3.778   4.002   7.930 -4.7904  0.9454 -0.0266
  188SLPC  C21121697   3.835   4.176   8.050  0.3976 -0.1998  0.2513
  188SLPC  H11R21698   3.746   4.146   8.109  0.0547 -1.6414 -0.9152
  188SLPC  H11S21699   3.829   4.284   8.026  0.9949 -0.3977 -0.8460
  188SLPC  C21221700   3.964   4.138   8.121 -0.2888 -1.2947 -0.1437
  188SLPC  H12R21701   4.057   4.117   8.066 -0.7726 -0.4845 -1.3340
  188SLPC  C21321702   3.963   4.109   8.256 -0.1477 -0.2432  0.4421
  188SLPC  H13R21703   4.057   4.090   8.310 -0.7811  0.0757  1.6865
  188SLPC  C21421704   3.841   4.112   8.343  0.4451 -0.5360  0.5621
  188SLPC  H14R21705   3.750   4.160   8.302  0.5386 -0.1341  0.8249
  188SLPC  H14S21706   3.865   4.179   8.428 -0.5008  1.7937 -0.9063
  188SLPC  C21521707   3.794   3.966   8.368 -0.3887  0.1649 -0.3834
  188SLPC  H15R21708   3.881   3.910   8.408  0.0104 -0.2939 -1.8409
  188SLPC  H15S21709   3.763   3.916   8.274 -1.2438  1.6595 -0.9382
  188SLPC  C21621710   3.681   3.971   8.474  0.3373  0.0800  0.4990
  188SLPC  H16R21711   3.602   4.035   8.429  0.9216 -0.0287 -0.7239
  188SLPC  H16S21712   3.718   4.008   8.572 -0.4033 -0.1884  0.8840
  188SLPC  C21721713   3.625   3.838   8.511  0.3297  0.7979  0.4174
  188SLPC  H17R21714   3.592   3.799   8.412 -0.0596 -1.1105  1.2538
  188SLPC  H17S21715   3.530   3.849   8.566  0.0774  1.0718 -0.0683
  188SLPC  C21821716   3.738   3.758   8.582  0.8058 -0.3675  0.5912
  188SLPC  H18R21717   3.826   3.743   8.516 -0.2215  0.6096 -1.0472
  188SLPC  H18S21718   3.700   3.659   8.612 -0.4583 -0.0531  0.0805
  188SLPC  H18T21719   3.771   3.814   8.673  1.2625 -0.3084  0.3936
  188SLPC   C3321720   4.506   4.676   6.994  0.4561  0.0092 -1.0429
  188SLPC   H3X21721   4.430   4.757   7.002 -0.0901 -0.1476 -3.8029
  188SLPC   H3Y21722   4.564   4.687   6.900  0.5131  2.2375 -0.7959
  188SLPC   C3421723   4.617   4.690   7.101  0.3279 -0.0782  0.1360
  188SLPC   H4X21724   4.653   4.795   7.102 -0.0426  0.0822  2.1485
  188SLPC   H4Y21725   4.700   4.621   7.074  0.4556 -0.6158  1.7737
  188SLPC   C3521726   4.554   4.659   7.242  0.5283  0.1722  0.4316
  188SLPC   H5X21727   4.517   4.555   7.230 -2.8650  1.4469 -1.6216
  188SLPC   H5Y21728   4.466   4.724   7.258 -0.3008 -0.8284 -0.0048
  188SLPC   C3621729   4.655   4.672   7.360 -0.0024  0.0037 -0.0591
  188SLPC   H6X21730   4.710   4.768   7.363 -1.6248  0.9517  0.0564
  188SLPC   H6Y21731   4.720   4.584   7.339  0.2282  0.4889 -1.4819
  188SLPC   C3721732   4.589   4.650   7.496  0.0429 -0.3047 -0.0079
  188SLPC   H7X21733   4.538   4.553   7.510  0.8406 -0.6919  0.2393
  188SLPC   H7Y21734   4.511   4.728   7.507 -0.9463 -1.2180 -0.4034
  188SLPC   C3821735   4.691   4.653   7.607  0.0734 -0.1589 -0.2002
  188SLPC   H8X21736   4.752   4.746   7.606 -0.7123  0.3984  1.0359
  188SLPC   H8Y21737   4.759   4.566   7.593 -0.8356 -1.3308  2.1012
  188SLPC   C3921738   4.620   4.650   7.743 -0.3798  1.0355  0.4909
  188SLPC   H9X21739   4.533   4.580   7.741  1.8039 -1.8541 -0.2318
  188SLPC   H9Y21740   4.598   4.756   7.769 -0.1886  1.0475  0.6028
  188SLPC  C31021741   4.715   4.602   7.854  0.2670  0.4077  0.4847
  188SLPC  H10X21742   4.802   4.670   7.860  2.8247 -2.5283 -0.7846
  188SLPC  H10Y21743   4.747   4.501   7.824 -0.0200  0.7014 -0.8615
  188SLPC  C31121744   4.649   4.579   7.994 -0.0272 -0.8039 -0.0046
  188SLPC  H11X21745   4.554   4.521   7.996 -0.8590  0.5271  1.9852
  188SLPC  H11Y21746   4.619   4.679   8.032 -1.7767 -1.8468  1.5187
  188SLPC  C31221747   4.759   4.526   8.094  0.4499 -0.4087 -0.0733
  188SLPC  H12X21748   4.694   4.491   8.177 -0.8650 -1.1613 -1.3831
  188SLPC  H12Y21749   4.826   4.608   8.130 -0.5475  2.2434 -3.6375
  188SLPC  C31321750   4.845   4.408   8.044  0.0643  0.1523  0.0878
  188SLPC  H13X21751   4.913   4.441   7.963  0.4650 -1.3340 -0.2085
  188SLPC  H13Y21752   4.775   4.325   8.017  1.3792 -1.1861  0.6216
  188SLPC  C31421753   4.941   4.359   8.159  0.5016  0.1216  0.3159
  188SLPC  H14X21754   5.012   4.283   8.119 -1.3910 -1.3151 -0.4696
  188SLPC  H14Y21755   4.889   4.312   8.245 -0.8289  0.3805 -0.3252
  188SLPC  C31521756   5.022   4.471   8.224  0.3443  0.3006  0.3075
  188SLPC  H15X21757   4.946   4.518   8.290 -1.2843  1.0494 -1.9611
  188SLPC  H15Y21758   5.059   4.539   8.144  0.6266  0.6134  0.7015
  188SLPC  C31621759   5.162   4.442   8.289  0.4900  0.1924  0.3955
  188SLPC  H16X21760   5.235   4.451   8.205  0.7098 -2.1793  0.2640
  188SLPC  H16Y21761   5.168   4.335   8.319 -2.6087  0.1526  1.2225
  188SLPC  C31721762   5.201   4.520   8.407 -0.0278 -0.7388 -0.5543
  188SLPC  H17X21763   5.223   4.619   8.362  1.8005 -1.1020 -0.5516
  188SLPC  H17Y21764   5.289   4.474   8.457 -0.9510  0.8410  2.8545
  188SLPC  C31821765   5.087   4.526   8.512  0.2429  0.3234  0.3500
  188SLPC  H18X21766   5.031   4.430   8.522  0.5728 -0.1072 -1.4790
  188SLPC  H18Y21767   5.008   4.603   8.497 -0.8042 -0.5586  1.1660
  188SLPC  H18Z21768   5.134   4.554   8.608  1.6563  0.3227 -0.3060
  189SLPC     N21769   1.605   2.747   6.065 -0.1639 -0.2362 -0.1955
  189SLPC   C1321770   1.711   2.852   6.066 -0.2348  0.0163 -0.2006
  189SLPC  H13A21771   1.807   2.803   6.059 -1.4141 -2.4749 -0.1729
  189SLPC  H13B21772   1.702   2.915   5.979 -3.2799  0.6978  0.4713
  189SLPC  H13C21773   1.707   2.915   6.153  1.8729  0.7823 -0.6054
  189SLPC   C1421774   1.591   2.672   5.942 -0.0285  0.6648 -0.1928
  189SLPC  H14A21775   1.543   2.723   5.860  0.8992  0.7175 -0.7230
  189SLPC  H14B21776   1.686   2.632   5.909  0.6788  1.2109  1.1179
  189SLPC  H14C21777   1.534   2.584   5.967 -0.3638  1.5917  2.6882
  189SLPC   C1521778   1.480   2.830   6.081  0.6415 -0.2165 -0.0197
  189SLPC  H15A21779   1.492   2.888   6.171 -1.7201 -0.4890  0.5381
  189SLPC  H15B21780   1.492   2.903   6.002  0.9160 -1.5735 -1.2757
  189SLPC  H15C21781   1.382   2.789   6.067 -0.5102  2.5746 -0.8623
  189SLPC   C1221782   1.623   2.656   6.183  0.0333 -0.1930 -0.2075
  189SLPC  H12A21783   1.544   2.583   6.192  0.4967 -0.5885  0.6991
  189SLPC  H12B21784   1.619   2.717   6.272 -1.3040  1.5884 -1.4186
  189SLPC   C1121785   1.753   2.575   6.177  0.5366 -0.0408  0.0933
  189SLPC  H11A21786   1.769   2.531   6.076 -0.4890  1.1901 -0.6375
  189SLPC  H11B21787   1.741   2.488   6.245 -1.7137  1.0513  1.2254
  189SLPC     P21788   1.919   2.660   6.371  0.0521 -0.3800  0.1073
  189SLPC   O1321789   1.886   2.533   6.447 -0.6582  0.0581 -0.0976
  189SLPC   O1421790   2.062   2.702   6.377 -0.4668  0.2333  0.0127
  189SLPC   O1221791   1.866   2.651   6.219 -0.4472 -0.3125  0.0602
  189SLPC   O1121792   1.822   2.778   6.419  0.7159  0.6432 -0.3870
  189SLPC    C121793   1.848   2.908   6.376  0.3354  0.1170 -0.9187
  189SLPC    HA21794   1.916   2.919   6.288  0.9896 -0.3141 -0.4809
  189SLPC    HB21795   1.749   2.947   6.344 -0.9441 -0.9003  1.5740
  189SLPC    C221796   1.911   3.001   6.484 -0.8502  0.6385  0.4029
  189SLPC    HS21797   1.953   3.089   6.430 -0.2068 -0.5044 -1.0238
  189SLPC   O2121798   2.016   2.924   6.556  0.4815 -0.6609 -0.2952
  189SLPC   C2121799   2.081   2.988   6.644 -0.6629 -0.3001  0.4419
  189SLPC   O2221800   2.113   3.106   6.636  1.0266  0.0280  0.1392
  189SLPC   C2221801   2.119   2.886   6.751  0.1914  0.2802  0.2956
  189SLPC   H2R21802   2.028   2.825   6.770  0.7370 -0.2822  1.2180
  189SLPC   H2S21803   2.192   2.816   6.704 -1.5410 -1.3930 -0.0539
  189SLPC    C321804   1.798   3.056   6.571 -0.7609 -0.0722 -0.3857
  189SLPC    HX21805   1.732   2.971   6.599 -0.7606 -0.0131 -0.1981
  189SLPC    HY21806   1.724   3.118   6.516 -1.5909 -1.8376 -1.3308
  189SLPC   O3121807   1.840   3.126   6.697 -0.0229  0.2188  0.6283
  189SLPC   C3121808   1.845   3.259   6.689 -0.0718 -0.1955  0.2955
  189SLPC   O3221809   1.827   3.329   6.591 -0.1624  0.5658  0.0892
  189SLPC   C3221810   1.887   3.318   6.820 -0.4500  0.2343  0.2832
  189SLPC   H2X21811   1.996   3.334   6.804 -1.1816  3.7777 -2.7352
  189SLPC   H2Y21812   1.874   3.251   6.908 -0.0415  0.3589  0.4380
  189SLPC   C2321813   2.189   2.953   6.874 -0.3777  0.7774  0.5457
  189SLPC   H3R21814   2.267   3.021   6.835 -0.4786  1.8519  2.1109
  189SLPC   H3S21815   2.239   2.877   6.938 -1.1289 -0.2163 -0.0224
  189SLPC   C2421816   2.071   3.032   6.947 -0.3619  0.0966  0.4429
  189SLPC   H4R21817   1.978   2.978   6.917  0.0275 -0.4371  0.1772
  189SLPC   H4S21818   2.060   3.136   6.910 -0.5363  0.0058  0.2319
  189SLPC   C2521819   2.090   3.021   7.095  0.5933 -0.0250 -0.1905
  189SLPC   H5R21820   2.165   3.095   7.131 -0.5865  0.8434  0.5690
  189SLPC   H5S21821   2.126   2.920   7.126  0.6664  0.5683  1.7773
  189SLPC   C2621822   1.966   3.036   7.187 -0.1793  0.0443  0.3860
  189SLPC   H6R21823   1.896   2.957   7.152 -0.8156  1.0266 -0.6297
  189SLPC   H6S21824   1.910   3.132   7.178  0.6677  0.4886 -0.1824
  189SLPC   C2721825   1.993   3.025   7.335 -0.0329 -1.0650  0.0057
  189SLPC   H7R21826   2.031   3.126   7.363 -1.7731 -0.1731 -0.7151
  189SLPC   H7S21827   2.074   2.954   7.362  0.5233  0.0619  1.4725
  189SLPC   C2821828   1.867   2.992   7.412 -0.1348 -0.4401 -0.6579
  189SLPC   H8R21829   1.848   2.886   7.384  0.3431  0.2668 -4.1712
  189SLPC   H8S21830   1.779   3.047   7.373 -0.3280 -1.2873 -1.4614
  189SLPC   C2921831   1.874   3.032   7.559 -0.3682 -0.4739  0.8233
  189SLPC   H9R21832   1.932   3.123   7.575 -0.4780 -0.3471  0.5210
  189SLPC  C21021833   1.820   2.958   7.654 -1.0040  0.2297 -0.3553
  189SLPC  H10R21834   1.819   2.989   7.760 -2.3614 -1.3232  0.1123
  189SLPC  C21121835   1.756   2.824   7.637  0.9579 -0.0197 -0.1311
  189SLPC  H11R21836   1.766   2.763   7.730 -1.7091 -0.4688 -0.0451
  189SLPC  H11S21837   1.807   2.766   7.557 -0.9439 -1.3846 -0.4201
  189SLPC  C21221838   1.609   2.850   7.600 -0.3805  0.3974  0.2481
  189SLPC  H12R21839   1.595   2.874   7.494 -1.5601 -1.3898 -0.0481
  189SLPC  C21321840   1.502   2.835   7.677 -0.6480  1.0485  0.2652
  189SLPC  H13R21841   1.404   2.865   7.637 -0.5474  0.5119 -0.4123
  189SLPC  C21421842   1.501   2.791   7.821 -0.1731  0.2057 -0.5352
  189SLPC  H14R21843   1.599   2.811   7.870 -0.8148  2.0559  0.0474
  189SLPC  H14S21844   1.470   2.684   7.826  0.5441 -0.0951 -1.9251
  189SLPC  C21521845   1.406   2.875   7.908  1.1540 -0.5343  0.7626
  189SLPC  H15R21846   1.426   2.984   7.910 -2.8786  0.3605  1.1666
  189SLPC  H15S21847   1.408   2.841   8.014 -2.9460 -1.7421  0.6102
  189SLPC  C21621848   1.259   2.850   7.878 -0.6918 -0.0572  0.0493
  189SLPC  H16R21849   1.234   2.745   7.904  1.2567 -0.5550  0.0762
  189SLPC  H16S21850   1.255   2.855   7.767  1.0592 -2.8829 -0.2306
  189SLPC  C21721851   1.171   2.953   7.947 -0.1116  0.0941  0.0186
  189SLPC  H17R21852   1.207   3.058   7.940 -1.6562  0.7114  0.8564
  189SLPC  H17S21853   1.164   2.932   8.056 -2.4233  1.9519  0.3269
  189SLPC  C21821854   1.025   2.953   7.894 -0.3148 -0.1953  0.4484
  189SLPC  H18R21855   0.986   2.849   7.895  0.6015 -0.5424  1.7725
  189SLPC  H18S21856   1.026   2.982   7.786  1.6930 -2.2411 -0.1651
  189SLPC  H18T21857   0.964   3.014   7.964  0.8552  0.2335  1.1137
  189SLPC   C3321858   1.834   3.462   6.861  0.2034 -0.1913 -0.3846
  189SLPC   H3X21859   1.728   3.463   6.895  0.4479  0.4083  0.3873
  189SLPC   H3Y21860   1.835   3.540   6.782  0.8129 -0.8343 -1.0176
  189SLPC   C3421861   1.932   3.507   6.969  0.2447 -0.0484  0.1023
  189SLPC   H4X21862   1.957   3.613   6.948 -2.6577  0.6981  0.0292
  189SLPC   H4Y21863   2.023   3.443   6.967 -0.2696 -0.9951  2.6259
  189SLPC   C3521864   1.874   3.497   7.117 -0.2630 -0.2145  0.1672
  189SLPC   H5X21865   1.832   3.395   7.120  0.2949 -0.7516 -3.9420
  189SLPC   H5Y21866   1.790   3.569   7.112  0.5912  0.8128  0.1022
  189SLPC   C3621867   1.977   3.538   7.224 -0.1283  0.3809  0.4475
  189SLPC   H6X21868   2.015   3.642   7.215  0.5671 -0.0374 -2.1777
  189SLPC   H6Y21869   2.070   3.479   7.205  2.3117  3.9405  0.2547
  189SLPC   C3721870   1.921   3.507   7.361  0.3951 -0.4636 -0.6283
  189SLPC   H7X21871   1.920   3.398   7.382  0.9830 -0.2930  0.3545
  189SLPC   H7Y21872   1.817   3.544   7.366  0.1949 -1.0962  0.1355
  189SLPC   C3821873   2.015   3.565   7.470 -0.2929 -0.1132 -0.5496
  189SLPC   H8X21874   2.022   3.675   7.469  0.6807 -0.1430  0.5246
  189SLPC   H8Y21875   2.122   3.535   7.459 -0.0789 -0.4962  2.0537
  189SLPC   C3921876   1.970   3.526   7.612 -0.0048 -0.2556  0.7196
  189SLPC   H9X21877   1.956   3.416   7.613 -4.8664  0.1515  0.3555
  189SLPC   H9Y21878   1.866   3.562   7.628 -0.3571  1.8435 -4.2942
  189SLPC  C31021879   2.073   3.576   7.717  0.0614 -0.6426 -0.1555
  189SLPC  H10X21880   2.068   3.687   7.725 -0.1788 -0.4086 -2.6884
  189SLPC  H10Y21881   2.178   3.560   7.683  0.7143 -0.0439  1.4854
  189SLPC  C31121882   2.037   3.517   7.857  0.2800  0.4830 -0.2261
  189SLPC  H11X21883   2.066   3.410   7.865 -1.7507 -0.1563 -0.8037
  189SLPC  H11Y21884   1.927   3.527   7.863 -0.2398 -2.0204 -3.1382
  189SLPC  C31221885   2.102   3.605   7.968  0.7998  0.7891 -0.0558
  189SLPC  H12X21886   2.085   3.713   7.951 -0.2172  0.6030 -0.2776
  189SLPC  H12Y21887   2.214   3.602   7.968  0.8162  1.2559  0.4834
  189SLPC  C31321888   2.044   3.563   8.102  0.7237  0.2578 -0.1489
  189SLPC  H13X21889   2.099   3.474   8.139  0.4963  0.3625  0.4580
  189SLPC  H13Y21890   1.941   3.525   8.086  0.1295  2.2769 -1.4341
  189SLPC  C31421891   2.035   3.681   8.203  0.2416 -0.1519  0.5350
  189SLPC  H14X21892   1.975   3.762   8.154  0.1090 -0.4209  0.2480
  189SLPC  H14Y21893   2.140   3.715   8.216  0.2948  0.8573 -1.9619
  189SLPC  C31521894   1.988   3.646   8.341  0.4156  0.4639  0.9895
  189SLPC  H15X21895   1.892   3.590   8.337 -1.9975  4.2249  1.6866
  189SLPC  H15Y21896   1.954   3.730   8.405  0.8991  1.3464  0.1098
  189SLPC  C31621897   2.094   3.571   8.417  0.2633 -0.3081 -0.8867
  189SLPC  H16X21898   2.141   3.632   8.498  0.4767 -1.1540 -0.3691
  189SLPC  H16Y21899   2.177   3.541   8.350 -0.1877 -0.8829 -1.1946
  189SLPC  C31721900   2.051   3.441   8.484  0.4057  0.0797  0.3338
  189SLPC  H17X21901   2.032   3.368   8.402  3.7624  1.1210 -1.5792
  189SLPC  H17Y21902   1.965   3.464   8.549  0.8192 -0.2527  1.0104
  189SLPC  C31821903   2.176   3.388   8.550 -0.1167  0.3065 -0.4954
  189SLPC  H18X21904   2.253   3.364   8.473 -1.3880 -3.3949 -0.8284
  189SLPC  H18Y21905   2.153   3.292   8.601 -0.0903  1.4491  1.7837
  189SLPC  H18Z21906   2.211   3.467   8.620 -2.4978  0.1667  0.9929
  190SLPC     N21907   3.905   3.448   6.296 -0.9547 -0.1111  0.2919
  190SLPC   C1321908   3.862   3.369   6.417 -0.1786 -0.0262 -0.6032
  190SLPC  H13A21909   3.779   3.304   6.394  0.9511 -1.1586 -1.6251
  190SLPC  H13B21910   3.950   3.312   6.446 -1.5053 -0.6154  2.7197
  190SLPC  H13C21911   3.834   3.428   6.503  0.9135 -1.4267  0.7578
  190SLPC   C1421912   4.036   3.511   6.333  0.3196 -0.6733 -0.4814
  190SLPC  H14A21913   4.015   3.573   6.419 -1.5760 -0.6185 -0.9557
  190SLPC  H14B21914   4.107   3.432   6.353  0.2663 -0.7987 -0.7866
  190SLPC  H14C21915   4.085   3.576   6.263  0.8944  0.9757  1.3526
  190SLPC   C1521916   3.809   3.551   6.252 -0.8281 -0.2986 -0.2339
  190SLPC  H15A21917   3.870   3.610   6.186 -0.0662  0.1486  0.8347
  190SLPC  H15B21918   3.727   3.511   6.193 -2.1338  0.7380  0.7988
  190SLPC  H15C21919   3.776   3.601   6.342  0.6156  0.3224 -0.0195
  190SLPC   C1221920   3.932   3.357   6.185  0.1201 -0.4203 -0.0635
  190SLPC  H12A21921   4.024   3.302   6.201  0.7819  0.7672  0.3725
  190SLPC  H12B21922   3.947   3.417   6.097 -0.0081  0.4355  0.4825
  190SLPC   C1121923   3.827   3.247   6.160  0.0643  0.1478  0.1285
  190SLPC  H11A21924   3.820   3.182   6.250  0.3680  0.7201  0.5718
  190SLPC  H11B21925   3.856   3.187   6.071  0.9742  1.7141 -0.6670
  190SLPC     P21926   3.583   3.212   6.073  0.4886 -0.0796 -0.5149
  190SLPC   O1321927   3.477   3.296   6.016  0.4366 -0.1026  0.3222
  190SLPC   O1421928   3.641   3.106   5.987 -0.1735  0.5576 -0.1728
  190SLPC   O1221929   3.699   3.307   6.119  0.0021 -0.1618  0.0359
  190SLPC   O1121930   3.526   3.136   6.201 -0.6646  0.0024 -0.5779
  190SLPC    C121931   3.520   3.195   6.331 -0.3140 -0.7554  0.2474
  190SLPC    HA21932   3.608   3.257   6.358 -0.2646 -1.4497  1.7880
  190SLPC    HB21933   3.436   3.267   6.335 -0.7604 -1.2663  0.2820
  190SLPC    C221934   3.507   3.084   6.435  0.4562  0.2281 -0.3797
  190SLPC    HS21935   3.402   3.056   6.453 -0.0609  0.8569 -2.1378
  190SLPC   O2121936   3.564   3.130   6.557  0.4433 -0.1755  0.3501
  190SLPC   C2121937   3.491   3.214   6.617 -0.3455 -0.6138 -0.0564
  190SLPC   O2221938   3.371   3.247   6.596  0.8108  0.4007  0.1621
  190SLPC   C2221939   3.578   3.272   6.732 -0.2238 -0.4724  0.0229
  190SLPC   H2R21940   3.679   3.283   6.687 -0.5056 -1.6145 -0.9288
  190SLPC   H2S21941   3.531   3.369   6.758  3.0434  1.6016 -1.1180
  190SLPC    C321942   3.590   2.955   6.394  0.4704  0.3269 -0.4610
  190SLPC    HX21943   3.695   2.981   6.373  0.2389  1.2724 -0.4734
  190SLPC    HY21944   3.551   2.908   6.301  3.7100 -0.1453 -1.6863
  190SLPC   O3121945   3.570   2.863   6.502  0.7455  0.0914  0.8154
  190SLPC   C3121946   3.673   2.810   6.554 -0.8440  0.6028 -0.2688
  190SLPC   O3221947   3.792   2.819   6.520  0.2839 -0.6276 -0.1565
  190SLPC   C3221948   3.619   2.726   6.673  0.1052 -0.6019  0.1815
  190SLPC   H2X21949   3.545   2.654   6.633 -2.4002  2.6370 -1.4464
  190SLPC   H2Y21950   3.550   2.793   6.728 -0.1842  0.7947 -1.7861
  190SLPC   C2321951   3.577   3.197   6.871  0.0406 -0.8380  0.1037
  190SLPC   H3R21952   3.662   3.237   6.929 -0.3763  1.6087 -0.8352
  190SLPC   H3S21953   3.592   3.090   6.845 -1.1256 -0.9877 -0.0123
  190SLPC   C2421954   3.438   3.224   6.936 -0.5067 -0.6467  0.5471
  190SLPC   H4R21955   3.362   3.211   6.856  1.4302  1.4011 -1.8044
  190SLPC   H4S21956   3.441   3.331   6.969 -0.7176 -0.6221  0.4850
  190SLPC   C2521957   3.409   3.142   7.066  0.3508 -0.5465  0.4770
  190SLPC   H5R21958   3.411   3.033   7.045  2.3237 -0.4196 -0.2039
  190SLPC   H5S21959   3.305   3.164   7.099 -0.3856  0.2479 -2.1696
  190SLPC   C2621960   3.499   3.170   7.181  0.2958  1.1508 -0.2343
  190SLPC   H6R21961   3.508   3.276   7.215  0.0167  0.3128  2.6878
  190SLPC   H6S21962   3.604   3.137   7.163  0.4300  1.7593 -0.6289
  190SLPC   C2721963   3.448   3.090   7.301 -0.3909  1.0072  0.5391
  190SLPC   H7R21964   3.435   2.981   7.281  5.3366  0.5218 -2.7110
  190SLPC   H7S21965   3.348   3.134   7.321 -0.0125  1.8853  0.5158
  190SLPC   C2821966   3.515   3.114   7.435  0.9506 -0.5999 -0.3060
  190SLPC   H8R21967   3.446   3.092   7.519 -0.0156  0.0629 -0.8925
  190SLPC   H8S21968   3.534   3.224   7.433  0.6749 -0.5461 -0.1172
  190SLPC   C2921969   3.642   3.043   7.463 -0.1345  0.7291 -0.0019
  190SLPC   H9R21970   3.703   3.024   7.374 -1.3428  0.9735 -0.8966
  190SLPC  C21021971   3.687   3.003   7.588  0.4605  0.5592  0.3563
  190SLPC  H10R21972   3.784   2.951   7.595  1.1624  1.7540 -0.1677
  190SLPC  C21121973   3.626   3.024   7.729  0.2844  0.0967  0.2978
  190SLPC  H11R21974   3.516   3.035   7.719  0.5662  2.3156 -1.0468
  190SLPC  H11S21975   3.667   3.120   7.767  0.8684 -0.4650  1.1294
  190SLPC  C21221976   3.673   2.926   7.827  0.0685  0.5166  0.5837
  190SLPC  H12R21977   3.686   2.826   7.784  0.6728  1.2469 -1.0041
  190SLPC  C21321978   3.683   2.941   7.964 -0.2465  0.0658 -0.4633
  190SLPC  H13R21979   3.727   2.862   8.026  1.8844  1.8937  0.4880
  190SLPC  C21421980   3.642   3.068   8.039 -0.6487 -0.0096 -0.0394
  190SLPC  H14R21981   3.606   3.154   7.980 -0.7608  0.1458  0.2554
  190SLPC  H14S21982   3.735   3.098   8.090 -0.6974  0.0876 -0.0074
  190SLPC  C21521983   3.542   3.022   8.146  0.1929 -0.5211 -0.0394
  190SLPC  H15R21984   3.569   3.097   8.223  1.7092 -0.7106 -0.3377
  190SLPC  H15S21985   3.556   2.918   8.182 -0.7164 -0.5129  0.3452
  190SLPC  C21621986   3.389   3.026   8.101 -0.5515  0.2377  0.8264
  190SLPC  H16R21987   3.372   2.938   8.036 -0.3207  0.0483  1.0233
  190SLPC  H16S21988   3.364   3.117   8.042  1.1509 -0.4498 -1.0704
  190SLPC  C21721989   3.297   3.016   8.221  0.1123 -0.0544 -0.2262
  190SLPC  H17R21990   3.204   2.976   8.176  0.1363  0.2232 -0.5311
  190SLPC  H17S21991   3.281   3.117   8.264 -1.0178 -0.3021 -0.0559
  190SLPC  C21821992   3.348   2.926   8.331  0.5156  0.0617 -0.3366
  190SLPC  H18R21993   3.402   2.834   8.299  1.8080  0.5240  0.4652
  190SLPC  H18S21994   3.264   2.890   8.394  1.3340 -3.2313 -0.9095
  190SLPC  H18T21995   3.423   2.983   8.389 -0.8527 -0.0792  1.6457
  190SLPC   C3321996   3.726   2.655   6.760 -0.8732 -0.1511 -0.6770
  190SLPC   H3X21997   3.797   2.610   6.687 -3.3394 -1.0024 -2.6585
  190SLPC   H3Y21998   3.683   2.565   6.808 -0.2166  1.0850  2.4794
  190SLPC   C3421999   3.788   2.748   6.868  0.1697  0.5450  0.0127
  190SLPC   H4X22000   3.836   2.833   6.815 -0.8879  0.5573 -0.9738
  190SLPC   H4Y22001   3.865   2.686   6.918 -1.3377 -0.7863  0.7976
  190SLPC   C3522002   3.693   2.790   6.973 -0.4625  0.3437 -0.5356
  190SLPC   H5X22003   3.618   2.710   6.989 -1.2035  1.3964  1.6911
  190SLPC   H5Y22004   3.629   2.872   6.936  1.7295  1.7335 -1.4360
  190SLPC   C3622005   3.766   2.823   7.106 -0.6340  0.0201 -0.4495
  190SLPC   H6X22006   3.693   2.874   7.172 -1.1040  1.0512 -1.7247
  190SLPC   H6Y22007   3.855   2.882   7.076  0.2650 -1.7062 -1.3825
  190SLPC   C3722008   3.807   2.694   7.175  0.4695  0.3127  0.0978
  190SLPC   H7X22009   3.882   2.626   7.129  0.1730 -0.6907  1.0474
  190SLPC   H7Y22010   3.719   2.625   7.176  1.7818 -1.4249  0.4392
  190SLPC   C3822011   3.856   2.724   7.322  0.6212 -0.4236 -0.1119
  190SLPC   H8X22012   3.781   2.782   7.378  1.8289  1.6304 -0.5323
  190SLPC   H8Y22013   3.950   2.783   7.315  1.7186 -2.0940 -0.0298
  190SLPC   C3922014   3.882   2.595   7.406  0.1395 -0.2477 -0.3485
  190SLPC   H9X22015   3.950   2.529   7.347  0.8610  0.6938 -0.5835
  190SLPC   H9Y22016   3.790   2.533   7.413  0.4647 -0.9349 -1.6376
  190SLPC  C31022017   3.958   2.623   7.534 -1.0335 -0.1012 -0.3619
  190SLPC  H10X22018   3.919   2.713   7.586  1.2812 -0.9747  3.2505
  190SLPC  H10Y22019   4.063   2.639   7.502 -1.2902 -0.0270 -1.1778
  190SLPC  C31122020   3.950   2.516   7.641  0.0634 -0.3942 -0.3661
  190SLPC  H11X22021   3.981   2.414   7.608  0.1795 -0.0016 -1.5154
  190SLPC  H11Y22022   3.843   2.516   7.671  0.1551  3.9607  0.5792
  190SLPC  C31222023   4.040   2.558   7.760 -0.5738 -0.3398 -1.1155
  190SLPC  H12X22024   4.001   2.654   7.801 -1.5406 -0.9401 -0.6115
  190SLPC  H12Y22025   4.146   2.572   7.728 -0.6146  0.6519 -0.8644
  190SLPC  C31322026   4.024   2.454   7.873  0.7987  0.3813 -0.2000
  190SLPC  H13X22027   4.074   2.359   7.843 -0.7174 -1.0548  1.5171
  190SLPC  H13Y22028   3.916   2.437   7.893  1.1562  0.7212  2.4172
  190SLPC  C31422029   4.084   2.490   8.013  0.0968  0.1161  0.0405
  190SLPC  H14X22030   4.188   2.520   7.987  0.6526 -1.4647  0.3745
  190SLPC  H14Y22031   4.091   2.416   8.096 -0.7417 -0.7664 -0.6534
  190SLPC  C31522032   4.014   2.620   8.071 -0.2922  0.0019 -0.1342
  190SLPC  H15X22033   3.904   2.601   8.073  0.1741 -3.3315  0.1641
  190SLPC  H15Y22034   4.030   2.700   7.995  2.7048  1.4069  1.7827
  190SLPC  C31622035   4.062   2.657   8.217  0.0820  0.7053  0.1413
  190SLPC  H16X22036   4.172   2.670   8.208  0.3015 -1.1890 -0.1603
  190SLPC  H16Y22037   4.044   2.575   8.289 -1.4329 -0.8855 -1.9426
  190SLPC  C31722038   4.004   2.789   8.268 -0.1760  0.3799  0.0720
  190SLPC  H17X22039   3.893   2.797   8.265 -0.2660 -0.8370 -0.7607
  190SLPC  H17Y22040   4.047   2.862   8.197 -0.8955  1.3722  0.6376
  190SLPC  C31822041   4.053   2.817   8.412  0.0631 -0.0924 -0.4667
  190SLPC  H18X22042   4.057   2.924   8.441  1.0585 -0.4379  0.7733
  190SLPC  H18Y22043   4.147   2.763   8.439 -0.2827 -0.1541  0.6333
  190SLPC  H18Z22044   3.976   2.768   8.475  0.6292 -1.6686 -0.9592
  191SLPC     N22045   0.318   1.243   5.561  0.1474 -0.0963  0.3383
  191SLPC   C1322046   0.341   1.300   5.424  0.3327 -0.5408 -0.4168
  191SLPC  H13A22047   0.294   1.396   5.407 -1.8953 -1.1980  1.5373
  191SLPC  H13B22048   0.448   1.302   5.409  0.4525 -1.3219  0.2610
  191SLPC  H13C22049   0.310   1.228   5.350  2.0192 -1.9469  0.1620
  191SLPC   C1422050   0.441   1.157   5.587  0.2848  0.5694 -0.2510
  191SLPC  H14A22051   0.431   1.092   5.672  1.0415  0.1434 -0.4742
  191SLPC  H14B22052   0.447   1.088   5.504 -1.4198  1.8384 -1.5164
  191SLPC  H14C22053   0.531   1.216   5.597 -0.7048  1.7892  2.8316
  191SLPC   C1522054   0.190   1.155   5.552  0.5992 -0.4374 -0.2038
  191SLPC  H15A22055   0.098   1.208   5.572  0.4080 -0.9167  0.2299
  191SLPC  H15B22056   0.193   1.097   5.461 -0.0847 -0.4480 -0.2285
  191SLPC  H15C22057   0.192   1.074   5.624 -0.5302 -0.4577 -0.1762
  191SLPC   C1222058   0.296   1.358   5.663 -0.0056 -0.2589  0.5327
  191SLPC  H12A22059   0.211   1.413   5.626 -1.2099 -2.3525  0.0722
  191SLPC  H12B22060   0.383   1.422   5.651  0.2319 -0.2742  1.9667
  191SLPC   C1122061   0.284   1.325   5.812 -0.7348 -0.5242 -0.5219
  191SLPC  H11A22062   0.217   1.238   5.832  0.0738 -1.3799 -1.4261
  191SLPC  H11B22063   0.236   1.416   5.855 -0.3883 -0.9255  0.7576
  191SLPC     P22064   0.504   1.395   5.931 -0.1858 -0.5009  0.3578
  191SLPC   O1322065   0.639   1.335   5.942 -0.0089 -0.0185 -0.1227
  191SLPC   O1422066   0.491   1.517   5.848 -0.4211 -0.2430  1.0021
  191SLPC   O1222067   0.407   1.287   5.870  0.1439 -0.0729 -0.0959
  191SLPC   O1122068   0.442   1.413   6.076  0.6483 -0.4955 -0.6149
  191SLPC    C122069   0.519   1.486   6.171 -0.1546 -0.0859 -0.2893
  191SLPC    HA22070   0.619   1.514   6.132  0.3004 -2.5801 -1.1334
  191SLPC    HB22071   0.470   1.582   6.196 -0.2384  0.1948 -1.4584
  191SLPC    C222072   0.546   1.402   6.301 -0.3914  0.2692 -0.4269
  191SLPC    HS22073   0.590   1.304   6.274 -2.3520 -1.0623  0.9485
  191SLPC   O2122074   0.429   1.375   6.376  0.8288  0.0419  0.1916
  191SLPC   C2122075   0.365   1.266   6.359  0.2634 -0.1084 -0.0277
  191SLPC   O2222076   0.410   1.169   6.297 -0.3481  0.0407 -0.1278
  191SLPC   C2222077   0.240   1.277   6.447  0.0614 -0.9588  0.4616
  191SLPC   H2R22078   0.223   1.386   6.458 -1.8107 -1.2878  1.2556
  191SLPC   H2S22079   0.157   1.243   6.382 -0.8382  1.9808 -0.0436
  191SLPC    C322080   0.646   1.470   6.400 -0.0300  0.2726  0.1934
  191SLPC    HX22081   0.586   1.563   6.412  0.0494  0.9466 -3.3315
  191SLPC    HY22082   0.732   1.505   6.338  0.5210  1.1296  1.4056
  191SLPC   O3122083   0.685   1.393   6.511  0.0737 -0.1797  0.3572
  191SLPC   C3122084   0.691   1.458   6.619  0.0961 -1.1225 -0.5269
  191SLPC   O3222085   0.695   1.577   6.629  0.3800 -0.5064 -0.5205
  191SLPC   C3222086   0.674   1.360   6.735  0.3125  0.0325 -0.3383
  191SLPC   H2X22087   0.756   1.286   6.746 -0.3500 -0.8326 -1.1287
  191SLPC   H2Y22088   0.587   1.300   6.703 -0.2288  0.3657  0.4766
  191SLPC   C2322089   0.243   1.201   6.584 -0.2810  0.1658  0.4462
  191SLPC   H3R22090   0.340   1.228   6.631  0.4823 -0.1229 -0.9069
  191SLPC   H3S22091   0.250   1.092   6.567  2.3237  0.4950 -1.2475
  191SLPC   C2422092   0.138   1.234   6.682  0.1909  0.1764 -0.3537
  191SLPC   H4R22093   0.134   1.156   6.761  1.2702 -1.0295 -1.4377
  191SLPC   H4S22094   0.038   1.221   6.636 -0.7758 -1.2688  1.9368
  191SLPC   C2522095   0.136   1.371   6.747 -0.5759 -0.2447 -0.2525
  191SLPC   H5R22096   0.052   1.369   6.820 -0.7835 -2.1851 -0.5201
  191SLPC   H5S22097   0.087   1.448   6.684 -1.5621 -0.6411  0.0159
  191SLPC   C2622098   0.269   1.427   6.803 -0.3211 -0.1623 -0.0828
  191SLPC   H6R22099   0.332   1.445   6.713 -2.1285  0.0514 -1.3638
  191SLPC   H6S22100   0.321   1.356   6.871  2.5215  2.8992  1.2256
  191SLPC   C2722101   0.255   1.558   6.872 -0.2923  0.2663 -0.0600
  191SLPC   H7R22102   0.159   1.610   6.851 -0.1712  0.4161 -0.2505
  191SLPC   H7S22103   0.336   1.628   6.842  0.6503 -1.0897 -0.7944
  191SLPC   C2822104   0.270   1.528   7.020 -0.6662  0.0087  0.0671
  191SLPC   H8R22105   0.271   1.622   7.079  0.9937 -0.6661  1.1591
  191SLPC   H8S22106   0.371   1.488   7.043 -0.9488 -0.2438  0.8992
  191SLPC   C2922107   0.167   1.437   7.082  0.1412  0.5971  0.4180
  191SLPC   H9R22108   0.062   1.453   7.052 -0.7181 -3.8244  0.2437
  191SLPC  C21022109   0.186   1.329   7.165 -0.3407 -0.3569 -0.0669
  191SLPC  H10R22110   0.094   1.280   7.201 -0.8392  1.2043  0.8571
  191SLPC  C21122111   0.315   1.281   7.225  0.1134  0.5582 -0.4181
  191SLPC  H11R22112   0.398   1.337   7.178  0.5837  1.8974  1.8719
  191SLPC  H11S22113   0.333   1.176   7.192  0.3366  0.4654 -0.0129
  191SLPC  C21222114   0.310   1.290   7.375 -0.2036  0.3496 -0.4562
  191SLPC  H12R22115   0.211   1.296   7.421  0.8855 -0.4762  2.2007
  191SLPC  C21322116   0.416   1.266   7.458 -0.0360 -0.9711  0.3556
  191SLPC  H13R22117   0.402   1.278   7.567 -1.6174 -2.4558  0.3524
  191SLPC  C21422118   0.550   1.230   7.406 -0.2944  0.1246 -0.4738
  191SLPC  H14R22119   0.624   1.310   7.430  0.4230 -0.3699 -0.9976
  191SLPC  H14S22120   0.552   1.225   7.295 -1.2537 -0.4837 -0.4675
  191SLPC  C21522121   0.612   1.107   7.456  0.5801  0.3904  0.3734
  191SLPC  H15R22122   0.702   1.071   7.402  0.3832 -0.2290  0.4440
  191SLPC  H15S22123   0.542   1.021   7.452  1.1495 -0.1063  0.8661
  191SLPC  C21622124   0.669   1.117   7.598  0.1164 -0.2264 -0.0726
  191SLPC  H16R22125   0.587   1.161   7.658  1.0908  0.3776  0.8619
  191SLPC  H16S22126   0.744   1.199   7.598 -1.1120  0.9156 -0.2861
  191SLPC  C21722127   0.721   0.991   7.669  0.2039 -0.6345  0.4531
  191SLPC  H17R22128   0.809   0.944   7.621  0.0932  0.0132 -0.4077
  191SLPC  H17S22129   0.655   0.903   7.657  2.1222 -2.2862  1.2685
  191SLPC  C21822130   0.747   1.016   7.818 -0.5223 -0.1738  0.4962
  191SLPC  H18R22131   0.741   0.930   7.889  1.4265 -1.0320 -0.3078
  191SLPC  H18S22132   0.668   1.086   7.852 -0.2983  1.7442 -2.5935
  191SLPC  H18T22133   0.845   1.066   7.831 -0.7710 -0.0358  2.0139
  191SLPC   C3322134   0.652   1.424   6.876  1.0504  0.7303  0.6288
  191SLPC   H3X22135   0.623   1.336   6.937  0.9716  0.8332  0.7421
  191SLPC   H3Y22136   0.563   1.488   6.859  0.5782 -0.0105  0.2896
  191SLPC   C3422137   0.768   1.499   6.948 -0.0944  1.3159  0.7782
  191SLPC   H4X22138   0.716   1.532   7.041  0.7951  0.9322  1.4229
  191SLPC   H4Y22139   0.801   1.581   6.881 -0.4006 -0.4873 -1.6984
  191SLPC   C3522140   0.891   1.412   6.981  0.8970 -0.0903  0.9202
  191SLPC   H5X22141   0.979   1.478   6.994  1.4882 -0.3112 -1.5140
  191SLPC   H5Y22142   0.917   1.356   6.888  2.9210  1.4697  0.4664
  191SLPC   C3622143   0.871   1.335   7.107  0.2942  1.0019 -0.7946
  191SLPC   H6X22144   0.776   1.277   7.105  0.8633 -0.0953  0.9290
  191SLPC   H6Y22145   0.868   1.407   7.192 -1.2690 -0.9224  0.8953
  191SLPC   C3722146   0.974   1.226   7.133  0.6533 -0.6720 -0.2092
  191SLPC   H7X22147   1.076   1.269   7.133 -0.0362  1.4173  3.7127
  191SLPC   H7Y22148   0.965   1.149   7.053  0.8930  1.4573 -2.3850
  191SLPC   C3822149   0.959   1.173   7.278 -0.0292 -0.3418  0.3387
  191SLPC   H8X22150   0.858   1.127   7.284  0.0177 -0.3232  1.6576
  191SLPC   H8Y22151   0.949   1.263   7.344  0.8040  0.5255 -0.6888
  191SLPC   C3922152   1.072   1.082   7.330  0.7235  0.1349  0.1355
  191SLPC   H9X22153   1.160   1.143   7.359 -0.7602  2.1450  0.7077
  191SLPC   H9Y22154   1.093   1.000   7.258  0.6834 -1.0862  1.4752
  191SLPC  C31022155   1.036   1.021   7.465  0.3371  0.3552 -0.3013
  191SLPC  H10X22156   0.933   0.981   7.455  0.6330 -0.7109  0.7885
  191SLPC  H10Y22157   1.025   1.093   7.549 -0.4852 -0.0604 -0.0468
  191SLPC  C31122158   1.132   0.912   7.508 -0.2305  0.1432  0.4637
  191SLPC  H11X22159   1.234   0.956   7.508 -0.5554  0.9392  1.9789
  191SLPC  H11Y22160   1.131   0.821   7.444  1.2305  1.0567 -0.9326
  191SLPC  C31222161   1.104   0.882   7.650 -0.2469  0.4850 -0.2606
  191SLPC  H12X22162   1.002   0.839   7.664  0.1159 -0.6885 -1.0092
  191SLPC  H12Y22163   1.116   0.968   7.719 -0.0166  1.1861 -1.1593
  191SLPC  C31322164   1.197   0.773   7.708  0.1523 -0.2651 -0.0551
  191SLPC  H13X22165   1.304   0.801   7.702  0.4550 -0.8375  2.1089
  191SLPC  H13Y22166   1.178   0.677   7.655  2.0438 -0.5381 -0.3282
  191SLPC  C31422167   1.175   0.757   7.858 -0.1960 -0.6078 -0.8252
  191SLPC  H14X22168   1.196   0.848   7.919 -0.5915 -1.0439 -0.0365
  191SLPC  H14Y22169   1.258   0.686   7.874 -0.5687 -1.2055 -1.4736
  191SLPC  C31522170   1.044   0.690   7.889  0.2889  0.4164  0.4562
  191SLPC  H15X22171   1.022   0.617   7.809  1.5924  1.2175 -0.6724
  191SLPC  H15Y22172   0.959   0.757   7.866  0.9434  0.7405 -1.0992
  191SLPC  C31622173   1.027   0.643   8.031 -0.8784  0.0081  0.1575
  191SLPC  H16X22174   1.060   0.732   8.088  1.0246  1.5466 -3.0437
  191SLPC  H16Y22175   1.091   0.553   8.046 -1.2264 -0.3144 -0.2792
  191SLPC  C31722176   0.887   0.606   8.075 -0.0536 -0.4978  0.6177
  191SLPC  H17X22177   0.903   0.578   8.181 -2.6402 -1.5886  0.8012
  191SLPC  H17Y22178   0.843   0.522   8.017 -2.3895  0.0699  1.4488
  191SLPC  C31822179   0.789   0.719   8.072 -0.2187  0.4171 -0.0923
  191SLPC  H18X22180   0.693   0.697   8.122 -0.7211  0.5388 -0.9669
  191SLPC  H18Y22181   0.763   0.752   7.969  1.6020  1.5402 -0.2461
  191SLPC  H18Z22182   0.826   0.812   8.120  1.6413 -0.4105  0.1549
  192SLPC     N22183   0.246   2.518   5.984  0.3867 -0.4971 -0.1126
  192SLPC   C1322184   0.149   2.624   5.974  0.1087  0.0436 -0.4095
  192SLPC  H13A22185   0.145   2.672   5.878  0.2329 -1.2658 -1.0952
  192SLPC  H13B22186   0.054   2.575   5.993  1.0512 -1.6707  0.0446
  192SLPC  H13C22187   0.166   2.700   6.049  1.7945  0.7270 -1.4356
  192SLPC   C1422188   0.199   2.409   5.898 -0.4427 -0.1805 -0.0254
  192SLPC  H14A22189   0.271   2.328   5.896  0.0964  0.2648  0.8450
  192SLPC  H14B22190   0.103   2.363   5.919 -0.5783 -4.2299 -6.5543
  192SLPC  H14C22191   0.195   2.440   5.795 -0.0219  0.9597  0.2910
  192SLPC   C1522192   0.254   2.466   6.124  0.3390  0.1077  0.5453
  192SLPC  H15A22193   0.313   2.377   6.135 -0.2500 -0.4742 -0.7720
  192SLPC  H15B22194   0.303   2.546   6.178  0.1126  0.6368 -0.0095
  192SLPC  H15C22195   0.156   2.449   6.167 -0.8949  0.5235 -1.8675
  192SLPC   C1222196   0.382   2.567   5.930  0.7336  0.3987 -0.2639
  192SLPC  H12A22197   0.376   2.568   5.822 -0.4304  1.0648 -0.2086
  192SLPC  H12B22198   0.455   2.491   5.954 -1.2422 -2.0449 -1.5728
  192SLPC   C1122199   0.445   2.696   5.996 -0.2412 -0.1271 -0.1976
  192SLPC  H11A22200   0.374   2.782   5.989 -1.8440 -1.1638  1.9421
  192SLPC  H11B22201   0.539   2.718   5.941  0.7579 -1.0054  1.0877
  192SLPC     P22202   0.617   2.617   6.181 -0.1182  0.0075  0.0535
  192SLPC   O1322203   0.610   2.473   6.207  0.6583 -0.1062 -0.1631
  192SLPC   O1422204   0.723   2.670   6.099 -0.2483 -0.1644  0.3085
  192SLPC   O1222205   0.477   2.680   6.136  0.5952 -0.2739  0.2608
  192SLPC   O1122206   0.625   2.682   6.324  0.0489  0.7800  0.4457
  192SLPC    C122207   0.532   2.617   6.423 -0.2584  0.0530  0.1032
  192SLPC    HA22208   0.428   2.614   6.385 -0.2248  0.7973 -0.0537
  192SLPC    HB22209   0.568   2.517   6.453 -1.9628  0.0366  2.3149
  192SLPC    C222210   0.518   2.698   6.555 -0.1737 -0.1318  0.8169
  192SLPC    HS22211   0.492   2.804   6.531 -0.0236 -0.2522  0.1073
  192SLPC   O2122212   0.642   2.694   6.620  0.2216  0.1355  0.3428
  192SLPC   C2122213   0.667   2.789   6.706 -0.1395 -0.8303  0.3581
  192SLPC   O2222214   0.614   2.899   6.711 -0.2584 -0.2043 -0.3186
  192SLPC   C2222215   0.780   2.758   6.801  0.0398  0.4063  0.0623
  192SLPC   H2R22216   0.748   2.683   6.876 -1.0138  2.0268  1.3177
  192SLPC   H2S22217   0.865   2.714   6.746 -0.4881 -0.4202 -0.1111
  192SLPC    C322218   0.406   2.631   6.642  0.0908 -0.0515 -0.1303
  192SLPC    HX22219   0.453   2.532   6.662  1.1453  0.2811 -0.8945
  192SLPC    HY22220   0.307   2.626   6.591 -0.2879  0.4729  0.5422
  192SLPC   O3122221   0.390   2.698   6.774 -0.4853  0.5147  0.4012
  192SLPC   C3122222   0.319   2.815   6.760  0.3036  0.4560 -0.3391
  192SLPC   O3222223   0.272   2.846   6.648 -0.1117 -0.0488  0.1697
  192SLPC   C3222224   0.292   2.895   6.892  0.1412  0.4222  0.0716
  192SLPC   H2X22225   0.277   2.998   6.855  2.0092  1.5726  2.2538
  192SLPC   H2Y22226   0.388   2.883   6.946  1.3208 -1.9664 -2.3388
  192SLPC   C2322227   0.841   2.882   6.880 -0.5032  0.2998  0.2788
  192SLPC   H3R22228   0.758   2.917   6.945 -1.2536 -0.5109 -0.2219
  192SLPC   H3S22229   0.873   2.954   6.801  0.8842  0.8563  1.2960
  192SLPC   C2422230   0.959   2.841   6.966 -0.7320  0.1665 -0.1076
  192SLPC   H4R22231   1.045   2.845   6.896 -0.7500 -2.8153 -0.4457
  192SLPC   H4S22232   0.958   2.733   6.994  0.8361 -0.1667 -1.1789
  192SLPC   C2522233   0.999   2.932   7.084  0.2761 -0.4566 -0.2067
  192SLPC   H5R22234   0.921   2.928   7.163  0.2339 -0.7997 -0.2659
  192SLPC   H5S22235   1.010   3.033   7.039  1.3870 -1.8649 -3.3824
  192SLPC   C2622236   1.136   2.900   7.151 -0.2965 -0.5838 -0.9880
  192SLPC   H6R22237   1.212   2.911   7.071  0.8609  0.2134  0.1725
  192SLPC   H6S22238   1.146   2.793   7.181 -0.6541  0.1219  2.0087
  192SLPC   C2722239   1.161   2.983   7.287 -0.4676 -0.0156  0.4184
  192SLPC   H7R22240   1.066   2.968   7.341 -1.0494 -1.4787 -0.9235
  192SLPC   H7S22241   1.183   3.087   7.256 -1.1531 -0.2368 -0.9059
  192SLPC   C2822242   1.269   2.935   7.383 -0.5679 -0.4453 -0.1913
  192SLPC   H8R22243   1.232   2.839   7.425 -0.9896 -0.2695 -0.1541
  192SLPC   H8S22244   1.295   3.003   7.468  1.5828  0.4791 -1.5187
  192SLPC   C2922245   1.390   2.924   7.297 -0.3301  0.0852 -0.5268
  192SLPC   H9R22246   1.414   3.025   7.259 -1.0129  0.5840  0.3263
  192SLPC  C21022247   1.451   2.810   7.253  0.1398  0.3407  0.9140
  192SLPC  H10R22248   1.544   2.825   7.198 -0.6527 -0.9696 -0.8723
  192SLPC  C21122249   1.410   2.672   7.287  0.7434  0.1784  0.0706
  192SLPC  H11R22250   1.376   2.617   7.196 -3.2887 -0.4302  1.7209
  192SLPC  H11S22251   1.313   2.670   7.341  0.6278 -0.4025 -0.1531
  192SLPC  C21222252   1.509   2.588   7.358 -0.7932 -0.2035 -0.1097
  192SLPC  H12R22253   1.537   2.617   7.460 -3.1534 -0.7532  0.7715
  192SLPC  C21322254   1.567   2.474   7.316  0.4414  0.5416  0.3667
  192SLPC  H13R22255   1.657   2.429   7.361  1.8354  0.4213 -2.2782
  192SLPC  C21422256   1.534   2.402   7.191  0.2796  0.1455 -0.4957
  192SLPC  H14R22257   1.447   2.448   7.140 -0.2439 -1.5853 -1.2422
  192SLPC  H14S22258   1.510   2.301   7.231  0.8812  1.1391  2.7196
  192SLPC  C21522259   1.647   2.421   7.093  0.3050 -0.0006  0.1061
  192SLPC  H15R22260   1.628   2.358   7.003  0.2458  0.9628 -0.5727
  192SLPC  H15S22261   1.747   2.384   7.123 -0.0517  0.5313  2.0551
  192SLPC  C21622262   1.669   2.561   7.048 -0.5019 -0.2735 -0.1252
  192SLPC  H16R22263   1.713   2.633   7.120 -0.3739  1.4103 -1.8199
  192SLPC  H16S22264   1.577   2.615   7.017 -1.4350 -1.0841  1.1071
  192SLPC  C21722265   1.758   2.570   6.922  0.4345  0.9537  0.9039
  192SLPC  H17R22266   1.853   2.513   6.925 -1.3823 -2.3645  0.4555
  192SLPC  H17S22267   1.696   2.533   6.838  0.4376  0.0315  1.2999
  192SLPC  C21822268   1.799   2.711   6.881  0.3692  0.2757  0.3465
  192SLPC  H18R22269   1.714   2.779   6.904  1.4198  1.5219  0.6930
  192SLPC  H18S22270   1.815   2.720   6.771 -1.3669  2.3447  0.1895
  192SLPC  H18T22271   1.893   2.749   6.926 -0.2373  0.5969  1.3821
  192SLPC   C3322272   0.173   2.845   6.982  0.0184  0.0490 -0.5212
  192SLPC   H3X22273   0.074   2.864   6.934 -0.4329  1.0777  0.7634
  192SLPC   H3Y22274   0.175   2.912   7.070  2.5400  0.9878 -1.2201
  192SLPC   C3422275   0.171   2.698   7.021 -0.4519  0.0586  0.1637
  192SLPC   H4X22276   0.269   2.668   7.062 -0.7230 -0.6131  0.3277
  192SLPC   H4Y22277   0.165   2.647   6.922 -0.9337  2.2803 -1.0219
  192SLPC   C3522278   0.062   2.652   7.120  0.5979  0.0064  0.6164
  192SLPC   H5X22279   0.071   2.544   7.145 -2.0385 -0.8369 -1.6565
  192SLPC   H5Y22280  -0.036   2.664   7.071  0.7837  0.4382  0.3453
  192SLPC   C3622281   0.060   2.728   7.249 -0.6307  0.0639  0.3967
  192SLPC   H6X22282  -0.005   2.678   7.325 -0.0003 -0.5567  0.5399
  192SLPC   H6Y22283   0.032   2.834   7.237 -0.7577 -0.0332 -0.2174
  192SLPC   C3722284   0.196   2.709   7.335  0.5264 -0.3369 -0.2113
  192SLPC   H7X22285   0.204   2.794   7.406  0.2690  0.9962 -1.7467
  192SLPC   H7Y22286   0.284   2.738   7.273  1.0612  1.6000  1.3514
  192SLPC   C3822287   0.211   2.576   7.404 -0.3403  1.6407  0.0544
  192SLPC   H8X22288   0.209   2.493   7.330  1.2859  1.0398  0.6381
  192SLPC   H8Y22289   0.114   2.551   7.452  0.3043  1.2418  1.1871
  192SLPC   C3922290   0.332   2.548   7.488  0.1595 -1.4352  0.2619
  192SLPC   H9X22291   0.313   2.629   7.562  2.4552  2.3629 -2.8928
  192SLPC   H9Y22292   0.421   2.584   7.432 -1.1354  0.7589 -0.5248
  192SLPC  C31022293   0.351   2.420   7.563  1.1480  0.0805  0.6333
  192SLPC  H10X22294   0.369   2.351   7.478  0.8270  0.4610  0.2472
  192SLPC  H10Y22295   0.257   2.384   7.611  0.4980  1.4344  0.4292
  192SLPC  C31122296   0.464   2.415   7.661 -0.1875 -0.3612  0.2696
  192SLPC  H11X22297   0.553   2.474   7.629  0.1145 -0.3626  1.0839
  192SLPC  H11Y22298   0.504   2.311   7.664 -0.2437 -0.3851  0.1965
  192SLPC  C31222299   0.409   2.439   7.805  0.0525  0.9168  0.7535
  192SLPC  H12X22300   0.318   2.377   7.818  0.1999  0.8752  1.6518
  192SLPC  H12Y22301   0.374   2.543   7.824 -0.1253  0.5787  2.4212
  192SLPC  C31322302   0.505   2.398   7.923  0.3459  0.6031  0.0747
  192SLPC  H13X22303   0.595   2.460   7.902  0.5964 -0.3008 -1.6888
  192SLPC  H13Y22304   0.537   2.293   7.913  3.2261  1.2111  1.7969
  192SLPC  C31422305   0.448   2.427   8.059  0.7349 -0.1573  0.0073
  192SLPC  H14X22306   0.420   2.532   8.081  1.9932  0.1760  0.1002
  192SLPC  H14Y22307   0.532   2.416   8.131  0.9365  3.9222  0.6644
  192SLPC  C31522308   0.332   2.328   8.104 -0.5283 -0.0186 -0.3316
  192SLPC  H15X22309   0.350   2.224   8.071 -1.5732 -0.3833  0.1841
  192SLPC  H15Y22310   0.237   2.350   8.051 -0.1925  1.4644 -0.3633
  192SLPC  C31622311   0.312   2.318   8.253 -0.1749  0.2767 -0.2707
  192SLPC  H16X22312   0.202   2.318   8.267 -0.1287 -0.9318  0.2564
  192SLPC  H16Y22313   0.357   2.413   8.287 -0.5755  0.6260 -0.6949
  192SLPC  C31722314   0.375   2.195   8.319 -0.4484 -0.1684 -0.2586
  192SLPC  H17X22315   0.480   2.179   8.290 -0.6684 -2.5250  0.1148
  192SLPC  H17Y22316   0.310   2.109   8.292  2.8594 -2.0897 -2.7411
  192SLPC  C31822317   0.361   2.213   8.472  0.1591  0.5150 -1.2294
  192SLPC  H18X22318   0.398   2.312   8.506 -0.3879  0.2238  0.2988
  192SLPC  H18Y22319   0.410   2.123   8.514  0.1465  0.3367 -1.5895
  192SLPC  H18Z22320   0.255   2.213   8.506  0.4600  2.9520 -0.0498
  193SOD    SOD22321   0.060   5.558   5.300  0.1117  0.3221 -0.0511
  194SOD    SOD22322   5.817   1.822  16.257  0.4539 -0.2721 -0.8499
  195SOD    SOD22323   0.937   2.844   4.417 -0.6589 -0.0992  0.2409
  196SOD    SOD22324   5.355   0.134   3.245 -0.3923 -0.0781 -0.1662
  197SOD    SOD22325   3.303   5.262  16.108  0.1041  0.3227  0.3158
  198SOD    SOD22326   5.279   0.570  13.848  0.2771  0.0781 -0.0879
  199SOD    SOD22327   6.219   5.526   3.119  0.2603  0.3712  0.1458
  200SOD    SOD22328   3.228   0.401  12.042 -0.1897 -0.3249  0.0713
  201SOD    SOD22329   2.461   3.653   1.102  0.2051 -0.3896 -0.0629
  202SOD    SOD22330   4.594   4.847   5.666 -0.0842  0.0010  0.2465
  203SOD    SOD22331   2.383   0.632  17.104 -0.3688  0.4118 -0.2730
  204SOD    SOD22332   5.165   5.008  14.525  0.5906 -0.3874  0.0069
  205SOD    SOD22333   3.441   0.846  13.597  0.1951 -0.2379 -0.1800
  206SOD    SOD22334   1.777   4.067  11.221  0.1740 -0.2281  0.0434
  207SOD    SOD22335   3.476   4.317  11.408 -0.2436  0.2468  0.6532
  208SOD    SOD22336   4.785   3.950   1.125 -0.2689  0.1923  0.0354
  209SOD    SOD22337   2.688   1.602   6.393 -0.3864 -0.1108 -0.0070
  210SOD    SOD22338   5.647   1.060  11.660  0.0970 -0.0650 -0.6269
  211SOD    SOD22339   0.528   3.306  10.442 -0.1132  0.1401 -0.0068
  212SOD    SOD22340   5.663   6.166  11.672 -0.2028 -0.0267 -0.6688
  213SOD    SOD22341   5.688   0.003  12.148  0.0019 -1.1671  0.1581
  214SOD    SOD22342   4.546   3.920  15.929  0.5364 -0.1052 -1.0842
  215SOD    SOD22343   1.001   3.153   5.578 -0.0628  0.7626  0.3559
  216SOD    SOD22344   3.169   3.500  12.086 -0.2357 -0.5363  0.8846
  217SOD    SOD22345   1.189   2.222  14.718  0.1091 -0.1044  0.1676
  218SOD    SOD22346   5.767   1.257  15.354 -0.2186  0.0867 -0.3149
  219SOD    SOD22347   5.574   3.078  13.055 -0.7660 -0.0124 -0.4197
  220SOD    SOD22348   6.107   1.934   4.949  0.1497 -0.5890  0.3687
  221SOD    SOD22349   0.497   0.298   5.895  0.2296  0.2737  0.0669
  222SOD    SOD22350   2.159   4.136  14.884 -0.1741 -0.3851  0.0006
  223SOD    SOD22351   3.197   2.740  15.697  0.2440  0.1929 -0.1564
  224SOD    SOD22352   3.200   1.318  15.254  0.2017 -0.3726 -0.0726
  225SOD    SOD22353   1.977   4.458   5.274 -0.4765 -0.0239 -0.0828
  226SOD    SOD22354   5.764   5.678  16.337  0.2705  0.6019 -0.1782
  227SOD    SOD22355   0.657   1.390  11.849  0.0200  0.1213  0.4347
  228SOD    SOD22356   1.663   0.529  13.650  0.3388 -0.1692  0.2141
  229SOD    SOD22357   1.556   1.347  15.322 -0.4132 -0.1218  0.0189
  230SOD    SOD22358   4.431   4.603   0.878  0.0669  0.3774 -0.7310
  231SOD    SOD22359   5.725   2.166  13.829 -0.2864 -0.7924  0.2373
  232SOD    SOD22360   3.719   0.199   3.212 -0.5513  0.0767 -0.7902
  233SOD    SOD22361   5.074   3.720  17.075  0.5897  0.0425 -0.1415
  234SOD    SOD22362   5.545   0.560   4.636 -0.3818  0.4343  0.3191
  235SOD    SOD22363   1.447   6.479   6.179 -1.0635  0.6451 -0.5150
  236SOD    SOD22364   4.629   2.842  13.323  0.7123 -0.4657 -0.0929
  237SOD    SOD22365   0.638   2.159   5.530 -0.6521  0.6496 -0.2008
  238SOD    SOD22366   5.263   4.249  11.787 -0.3012 -0.1945 -0.0306
  239SOD    SOD22367   0.688   2.870   3.071 -0.3299  0.6395 -0.2389
  240SOD    SOD22368   3.589   1.333  11.087  0.3695  0.0063  0.2636
  241SOD    SOD22369   5.224   0.703  10.301 -0.4129  0.1124  0.4801
  242SOD    SOD22370   1.943   0.513  16.722 -0.1324 -0.2289  0.1351
  243SOD    SOD22371   6.789   5.559   4.762 -0.5539 -0.2123 -0.3599
  244SOD    SOD22372   3.853   4.055  16.693 -0.0202 -0.2957  0.1420
  245SOD    SOD22373   0.130   0.043  12.378  0.3440  0.3867  0.6289
  246SOD    SOD22374   2.667   0.999  11.480  0.1045  0.0851  0.3643
  247SOD    SOD22375   5.395   5.143   2.500 -0.2782  0.0865  0.0999
  248SOD    SOD22376   5.347   3.434   2.958 -0.0361 -0.5231  0.1443
  249SOD    SOD22377   1.177   2.310   4.863 -0.5216 -0.0327  0.2315
  250SOD    SOD22378   4.586   1.809  10.524  0.0189  0.6940  0.0116
  251SOD    SOD22379   2.247   0.919   6.291  0.0531 -0.0734 -0.0008
  252SOD    SOD22380   5.873   3.794  11.232  0.5704 -0.0557  0.2864
  253SOD    SOD22381   4.097   2.473   5.293 -0.4382  0.4599  0.2372
  254SOD    SOD22382   5.777   3.073   4.624 -0.5831  0.1025 -0.3690
  255SOD    SOD22383   2.018   2.734   1.201 -0.1195  0.4208 -0.2593
  256SOD    SOD22384   5.204   6.121  16.589 -0.0347 -0.1741 -0.2982
  257SOD    SOD22385   6.208   6.070   0.703  0.6192  0.5569 -0.0779
  258SOD    SOD22386   4.762   3.326  10.591 -0.3755  0.3805  0.2332
  259SOD    SOD22387   0.729   2.295  15.546  0.2786 -0.4811  0.2102
  260SOD    SOD22388   3.650   0.580   0.429 -0.3635 -0.1907  0.4752
  261SOD    SOD22389   3.335   4.373  15.227  0.0385 -0.4691  0.2257
  262SOD    SOD22390   3.393   1.437   3.447 -0.2432  0.2125  0.0570
  263SOD    SOD22391   3.990   0.908   2.970 -0.1415 -0.3898  0.0024
  264SOD    SOD22392   3.055   3.342  16.343 -0.4560 -0.4901  0.1140
  265SOD    SOD22393   5.488   3.833   6.040  0.1740 -0.1996  0.1760
  266CLA    CLA22394   6.403   1.827  13.048 -0.1572 -0.0427 -0.0835
  267CLA    CLA22395   4.362   3.319  12.480 -0.4132 -0.5293 -0.0124
  268CLA    CLA22396   6.523   2.583  15.301 -0.2799 -0.1445 -0.4604
  269CLA    CLA22397   5.862   4.797  12.230  0.2235  0.1557 -0.3332
  270CLA    CLA22398   0.812   2.799   4.947 -0.1726  0.1266 -0.0971
  271CLA    CLA22399   3.433   0.931  12.538 -0.1006 -0.0210  0.2320
  272CLA    CLA22400   0.974   3.923  16.986  0.2662 -0.3815  0.2911
  273CLA    CLA22401   2.172   3.127   1.667 -0.2695 -0.5700 -0.2718
  274CLA    CLA22402   6.531   2.439   0.397  0.1231  0.2303 -0.2545
  275CLA    CLA22403   0.712   1.732  15.707 -0.1839 -0.0498  0.0089
  276CLA    CLA22404   4.140   5.059   1.178  0.0290  0.1138 -0.0091
  277CLA    CLA22405   4.169   4.073  17.071  0.0231 -0.1000 -0.0843
  278CLA    CLA22406   4.857   2.416  16.634 -0.1140  0.1657 -0.2863
  279CLA    CLA22407   3.642   1.972  15.011 -0.1395  0.0953 -0.3483
  280CLA    CLA22408   6.720   4.481   0.453  0.1534 -0.3196 -0.1417
  281CLA    CLA22409   1.895   3.869   0.097  0.3599 -0.4016  0.4177
  282CLA    CLA22410   3.538   2.965  15.925 -0.3541  0.3535  0.0753
  283CLA    CLA22411   2.911   0.319  17.145  0.4266  0.1307  0.0328
  284CLA    CLA22412   2.035   1.003  15.377 -0.0734  0.2400 -0.0068
  285CLA    CLA22413   5.953   4.523   4.608 -0.0128 -0.3097  0.0484
  286CLA    CLA22414   0.555   0.316  13.583  0.1377  0.2133  0.2467
  287CLA    CLA22415   5.837   6.074   2.167  0.1836  0.3912  0.1613
  288CLA    CLA22416   0.582   6.446  13.424  0.2140  0.1658  0.2862
  289CLA    CLA22417   4.251   2.003  12.319 -0.1063 -0.4832 -0.3832
  290CLA    CLA22418   5.255   4.546  15.832  0.0097 -0.0039  0.1232
  291CLA    CLA22419   4.753   4.221   1.132  0.1480  0.1296  0.0429
  292CLA    CLA22420   3.377   5.208  15.700  0.0988 -0.2530 -0.3806
  293CLA    CLA22421   1.619   1.226   3.016 -0.2060 -0.0273  0.3422
  294CLA    CLA22422   0.276   3.326   5.352 -0.1706 -0.0808 -0.1877
  295CLA    CLA22423   4.307   4.751  12.752  0.3618 -0.2161 -0.3423
  296CLA    CLA22424   3.308   1.159   0.149  0.2361 -0.0467 -0.4279
  297CLA    CLA22425   3.654   4.917   3.919 -0.4228 -0.1020  0.0276
  298CLA    CLA22426   5.354   0.009  11.839  0.1687 -0.3571  0.3433
  299CLA    CLA22427   4.941   1.231  16.379  0.3293 -0.0126 -0.0727
  300CLA    CLA22428   6.519   1.608  11.799 -0.2199  0.0313  0.0744
  301CLA    CLA22429   0.196   5.017  15.293  0.0230 -0.1569 -0.1889
  302CLA    CLA22430   5.928   6.477  16.954  0.5142 -0.1553 -0.2044
  303CLA    CLA22431   2.273   4.745  15.184 -0.1113  0.1664  0.5454
  304CLA    CLA22432   1.578   2.307  14.399  0.3075  0.3167 -0.0510
  305CLA    CLA22433   0.446   3.809   5.558 -0.0217 -0.5149 -0.1737
  306CLA    CLA22434   6.621   0.023   3.399  0.0617 -0.1158  0.0893
  307CLA    CLA22435   3.843   4.851   1.768  0.1031  0.1576  0.2000
  308CLA    CLA22436   6.026   3.516  11.687 -0.0201  0.0386 -0.0158
  309CLA    CLA22437   3.739   1.757   4.386 -0.6388 -0.3211 -0.1967
  310CLA    CLA22438   2.125   2.188  11.779 -0.1322  0.0192 -0.4110
  311CLA    CLA22439   0.632   5.970   5.194  0.1565 -0.4075  0.0960
  312CLA    CLA22440   6.273   3.079  13.993  0.1037  0.1126 -0.0014
  313CLA    CLA22441   4.836   2.956   1.439 -0.0230  0.0220  0.2246
  314CLA    CLA22442   2.526   3.878  14.943 -0.0632  0.3938  0.1189
  315CLA    CLA22443   0.050   0.090  14.799 -0.0632  0.2759 -0.3676
  316CLA    CLA22444   3.415   2.311  16.622  0.2969 -0.1453  0.2442
  317CLA    CLA22445   5.560   4.787   1.821  0.4236 -0.3524  0.1257
  318CLA    CLA22446   2.389   2.107   5.179  0.1443  0.4735 -0.2817
  319TIP3   OH222447   2.213   1.786   0.492  0.7335 -0.0459  0.1840
  319TIP3    H122448   2.200   1.865   0.440  2.4674  0.2111  0.1112
  319TIP3    H222449   2.153   1.796   0.566 -2.6116 -0.9216 -2.1711
  320TIP3   OH222450   3.730   5.852  14.052 -0.0485 -0.4864 -0.2655
  320TIP3    H122451   3.771   5.876  13.969 -0.6946  0.2295 -0.3804
  320TIP3    H222452   3.660   5.791  14.027  1.0011 -1.8385 -0.0549
  321TIP3   OH222453   0.800   0.537   1.395 -0.0191 -0.2408 -0.1227
  321TIP3    H122454   0.774   0.497   1.312  0.8159  0.7253 -0.8753
  321TIP3    H222455   0.739   0.500   1.459  1.4110 -3.6272 -0.5113
  322TIP3   OH222456   1.580   6.509   3.766  0.0686  0.0653  0.3604
  322TIP3    H122457   1.658   6.485   3.816  0.4545  1.8185  0.6756
  322TIP3    H222458   1.507   6.469   3.814  0.7487 -1.4855  0.1294
  323TIP3   OH222459   5.162   2.290  12.177 -0.3334 -0.2400  0.0004
  323TIP3    H122460   5.244   2.272  12.131 -0.0542 -0.4548  0.5839
  323TIP3    H222461   5.094   2.277  12.110  0.1826  1.4419 -0.9020
  324TIP3   OH222462   2.824   5.401  16.571  0.1622  0.6219 -0.2370
  324TIP3    H122463   2.803   5.487  16.606  1.3630  1.1830 -0.8469
  324TIP3    H222464   2.738   5.360  16.558 -0.4308  1.6914  0.1275
  325TIP3   OH222465   0.289   5.251   2.727 -0.4051 -0.0641 -0.5533
  325TIP3    H122466   0.342   5.328   2.747 -0.1860 -0.6893  1.5127
  325TIP3    H222467   0.268   5.260   2.634 -1.4111  3.0792 -0.1249
  326TIP3   OH222468   4.779   6.188   1.953 -0.2996 -0.0186  0.0617
  326TIP3    H122469   4.719   6.121   1.919  0.9694 -0.3420 -1.6321
  326TIP3    H222470   4.795   6.161   2.044 -1.4834 -0.7849  0.0680
  327TIP3   OH222471   3.369   6.214   3.408 -0.5810 -0.4880 -0.8741
  327TIP3    H122472   3.397   6.190   3.497 -0.4215  1.5209 -0.3173
  327TIP3    H222473   3.421   6.159   3.350 -0.1558 -1.3216  0.2604
  328TIP3   OH222474   6.358   5.047   6.264 -0.0443 -0.1392 -0.5029
  328TIP3    H122475   6.428   4.991   6.232 -0.0720 -0.3832 -0.1421
  328TIP3    H222476   6.380   5.134   6.230 -0.8766 -0.6435 -2.4492
  329TIP3   OH222477   2.465   6.469   1.713 -0.4238  0.5796  0.9358
  329TIP3    H122478   2.407   6.491   1.787 -0.3919  2.2067  0.5247
  329TIP3    H222479   2.455   6.543   1.653  0.8212  0.0821  0.0881
  330TIP3   OH222480   2.970   1.685  10.622  0.2215  0.4392  0.2444
  330TIP3    H122481   3.015   1.605  10.649 -3.0842 -1.5824  0.3677
  330TIP3    H222482   3.011   1.709  10.539  0.1733 -2.5421 -0.7707
  331TIP3   OH222483   2.868   3.635  15.341 -0.1067  0.0752 -0.2059
  331TIP3    H122484   2.817   3.684  15.277 -0.8646  0.4826  0.7069
  331TIP3    H222485   2.834   3.662  15.426  0.2925 -1.1091  0.3539
  332TIP3   OH222486   6.455   1.050  14.025  0.0496  0.3793 -0.3197
  332TIP3    H122487   6.486   1.136  14.055  0.6061 -0.1015  0.5201
  332TIP3    H222488   6.385   1.070  13.963  2.2537  1.5238 -2.5787
  333TIP3   OH222489   2.070   1.721   0.728  0.3787 -0.0483  0.1101
  333TIP3    H122490   2.095   1.775   0.803 -0.8349  0.0267  0.4747
  333TIP3    H222491   2.000   1.665   0.761  0.5836 -0.7973 -0.6803
  334TIP3   OH222492   6.313   1.275  15.471  0.3423  1.0307  0.1584
  334TIP3    H122493   6.376   1.325  15.419  1.2300 -0.8166 -0.6371
  334TIP3    H222494   6.282   1.206  15.412 -0.0175 -0.0143  1.5089
  335TIP3   OH222495   1.940   4.425  10.651  0.0058  0.6113 -0.2790
  335TIP3    H122496   1.959   4.519  10.644 -0.1574  0.7486  0.8546
  335TIP3    H222497   2.026   4.383  10.658  0.0729  0.6933 -0.6026
  336TIP3   OH222498   2.278   5.171   5.701 -0.0885 -0.0190 -0.5400
  336TIP3    H122499   2.337   5.098   5.683 -0.3591  0.2215 -2.6177
  336TIP3    H222500   2.318   5.245   5.656  0.0838  1.1064  1.3786
  337TIP3   OH222501   0.849   0.967  12.753  0.6504 -0.2844 -0.1651
  337TIP3    H122502   0.865   0.882  12.710  1.0083  0.2342 -1.0816
  337TIP3    H222503   0.897   0.961  12.835  0.8161 -0.9109 -0.2973
  338TIP3   OH222504   5.254   3.666   3.645 -0.3103  0.0664  0.5258
  338TIP3    H122505   5.262   3.659   3.550 -0.5519  1.3837  0.3783
  338TIP3    H222506   5.166   3.701   3.659 -0.6603 -1.0728  1.3070
  339TIP3   OH222507   0.520   2.286   6.042  0.4362 -0.0811  0.0710
  339TIP3    H122508   0.557   2.354   6.098 -0.2763  0.3759 -0.0075
  339TIP3    H222509   0.448   2.249   6.093  0.0230  0.0792 -0.3849
  340TIP3   OH222510   4.701   4.332  12.591  0.7082 -0.2912 -0.0846
  340TIP3    H122511   4.776   4.357  12.644  1.4888  0.3181 -1.4028
  340TIP3    H222512   4.627   4.374  12.633  1.6612  2.4084 -0.8722
  341TIP3   OH222513   2.308   5.812  14.975  0.0428  0.8582  0.9753
  341TIP3    H122514   2.276   5.764  15.051  1.6145 -0.4149  0.8939
  341TIP3    H222515   2.254   5.891  14.971 -2.2536 -0.5918  1.4862
  342TIP3   OH222516   4.194   1.386   2.605  0.4047  0.0883 -0.2014
  342TIP3    H122517   4.272   1.369   2.553  0.7506 -0.6487  0.5276
  342TIP3    H222518   4.185   1.308   2.660 -0.6143  0.3379  0.0133
  343TIP3   OH222519   1.369   2.834  12.134 -0.7737 -0.0459 -0.2641
  343TIP3    H122520   1.312   2.758  12.125  1.2527 -1.9793  1.7795
  343TIP3    H222521   1.398   2.853  12.045 -2.0164 -1.0910 -0.9325
  344TIP3   OH222522   5.517   1.235  12.238 -0.7764 -0.2773  0.8198
  344TIP3    H122523   5.547   1.326  12.237 -0.9453 -0.2282  0.1779
  344TIP3    H222524   5.584   1.187  12.191 -2.1265 -0.0178 -1.5180
  345TIP3   OH222525   3.890   4.817  14.458 -0.8350 -0.1952  0.3997
  345TIP3    H122526   3.834   4.878  14.410 -1.6628 -1.2449  0.0027
  345TIP3    H222527   3.829   4.764  14.509 -0.1872 -1.1835  0.1694
  346TIP3   OH222528   0.926   5.006  11.927 -0.0650  0.1507 -0.6093
  346TIP3    H122529   0.870   4.973  11.856 -0.0304  0.2433 -0.6788
  346TIP3    H222530   0.864   5.037  11.993 -0.1032 -0.7022 -0.2384
  347TIP3   OH222531   1.050   5.762   1.283  0.0832  0.3964  0.3312
  347TIP3    H122532   1.036   5.713   1.364 -1.2693  1.4846  0.7961
  347TIP3    H222533   0.979   5.735   1.225 -1.9091  3.0697  1.2803
  348TIP3   OH222534   6.216   4.765  13.471  0.1878  0.3952  0.2735
  348TIP3    H122535   6.130   4.772  13.511  1.3730  2.6420  2.6983
  348TIP3    H222536   6.235   4.852  13.438  1.9941  0.2715  0.8734
  349TIP3   OH222537   1.519   2.971  15.304 -0.4682  0.0056 -0.3244
  349TIP3    H122538   1.551   3.061  15.296 -1.3861  0.2040 -2.2437
  349TIP3    H222539   1.559   2.939  15.385  2.3318  1.1219 -1.1331
  350TIP3   OH222540   0.074   4.005  15.169  0.3084 -0.4003 -0.0930
  350TIP3    H122541  -0.009   3.958  15.160  0.6239 -1.5472  2.2264
  350TIP3    H222542   0.128   3.972  15.098 -0.6076 -1.0330 -0.5175
  351TIP3   OH222543   3.001   4.897  12.392 -0.0818  0.0469  0.0822
  351TIP3    H122544   3.085   4.942  12.379  0.5200 -1.6492 -2.6721
  351TIP3    H222545   2.939   4.947  12.338 -0.3861  0.1076  0.4883
  352TIP3   OH222546   4.443   5.377   0.254 -0.5896  0.1414  0.0267
  352TIP3    H122547   4.477   5.299   0.210  0.5690 -0.3602  1.6993
  352TIP3    H222548   4.378   5.412   0.194  0.1774 -1.0695 -1.5913
  353TIP3   OH222549   4.953   6.378  15.313 -0.3230 -0.3239 -0.3912
  353TIP3    H122550   4.891   6.439  15.352  0.9118  0.4532  0.4066
  353TIP3    H222551   4.916   6.291  15.333 -1.0641  0.1134  0.2051
  354TIP3   OH222552   1.298   6.361  16.347  0.8552 -0.1410  0.5493
  354TIP3    H122553   1.274   6.448  16.379  2.2488  0.3806  0.2267
  354TIP3    H222554   1.327   6.376  16.257  1.9083 -0.7914  0.7648
  355TIP3   OH222555   4.349   4.770  14.225 -0.5085  0.4110  0.2451
  355TIP3    H122556   4.350   4.824  14.304 -0.0249 -0.7823  1.0808
  355TIP3    H222557   4.258   4.742  14.216 -0.3033 -0.6309  1.2301
  356TIP3   OH222558   0.259   4.704  13.083  0.5262  0.5954 -0.1545
  356TIP3    H122559   0.275   4.628  13.027  1.6285  0.1773  0.6850
  356TIP3    H222560   0.198   4.758  13.034  0.3276 -0.4625 -1.1089
  357TIP3   OH222561   4.873   1.778  16.947  0.0047  0.4095 -0.2964
  357TIP3    H122562   4.792   1.815  16.981  0.7682  1.6272  0.2620
  357TIP3    H222563   4.937   1.790  17.018  0.9201  0.4167 -1.0970
  358TIP3   OH222564   1.910   4.023   1.944  0.0326  0.0413  0.0811
  358TIP3    H122565   1.954   4.066   1.870  1.5594 -0.8730  0.4180
  358TIP3    H222566   1.932   4.078   2.020 -1.9234  1.2513 -0.1318
  359TIP3   OH222567   5.303   2.648   2.072 -0.0668 -0.2744 -0.3509
  359TIP3    H122568   5.263   2.561   2.076  0.9168 -0.7086  0.5015
  359TIP3    H222569   5.397   2.631   2.078  0.1088  0.8840  0.4221
  360TIP3   OH222570   5.800   3.061  16.090 -0.1857 -0.7797 -0.0313
  360TIP3    H122571   5.736   3.043  16.159  0.8216 -0.5492  0.9925
  360TIP3    H222572   5.881   3.081  16.137  0.2925  0.3362 -1.2660
  361TIP3   OH222573   6.663   2.929   1.415 -0.1303 -0.0332  0.2300
  361TIP3    H122574   6.603   2.868   1.373 -0.6301  0.2257  0.5526
  361TIP3    H222575   6.613   2.965   1.489  1.0576 -1.2326  1.6874
  362TIP3   OH222576   2.130   0.405  13.693  0.6609 -0.2719 -0.2243
  362TIP3    H122577   2.138   0.490  13.736 -0.9086 -0.1857 -0.0382
  362TIP3    H222578   2.147   0.423  13.601  1.5170  0.0132 -0.0180
  363TIP3   OH222579   0.856   2.726  16.361  0.8465 -0.2660  0.3425
  363TIP3    H122580   0.800   2.787  16.409 -2.3752 -1.6118 -1.3439
  363TIP3    H222581   0.924   2.780  16.322  0.0194  1.7091  1.5060
  364TIP3   OH222582   4.882   1.391   2.941 -0.1274 -0.6405  0.2155
  364TIP3    H122583   4.907   1.401   2.850 -0.1864  0.7078  0.3346
  364TIP3    H222584   4.801   1.340   2.939 -1.0027  0.7377 -0.6026
  365TIP3   OH222585   6.318   4.494   1.554  0.7528  0.3875 -0.2635
  365TIP3    H122586   6.258   4.462   1.623 -0.3497 -0.3378 -1.4987
  365TIP3    H222587   6.403   4.460   1.580 -0.1189 -2.4422 -0.7082
  366TIP3   OH222588   5.757   2.658  12.352  0.2534  0.4107  0.5341
  366TIP3    H122589   5.813   2.644  12.275 -0.6264 -3.1113  0.3723
  366TIP3    H222590   5.762   2.753  12.367  1.8831  1.0279 -2.7395
  367TIP3   OH222591   6.296   5.174   4.418 -0.0842 -0.3613  0.4427
  367TIP3    H122592   6.381   5.218   4.414 -1.2510  2.1591  1.4005
  367TIP3    H222593   6.312   5.096   4.471  1.8795 -0.6940 -0.5286
  368TIP3   OH222594   4.176   1.407  11.957 -0.7386  0.2104  0.1767
  368TIP3    H122595   4.194   1.313  11.960 -1.1241  0.0491 -1.5384
  368TIP3    H222596   4.086   1.415  11.989 -1.3592 -0.2554 -1.3450
  369TIP3   OH222597   0.010   5.402   4.280 -0.0105 -0.5904  0.2333
  369TIP3    H122598   0.080   5.464   4.261 -0.1330 -0.7139 -0.7026
  369TIP3    H222599  -0.062   5.456   4.312  0.1233 -0.3263  0.0969
  370TIP3   OH222600   4.750   4.140  11.062 -0.1328 -0.1637  0.3872
  370TIP3    H122601   4.799   4.066  11.098 -1.3818 -0.5216  1.4282
  370TIP3    H222602   4.772   4.140  10.969  2.1524 -0.0308  0.8729
  371TIP3   OH222603   6.040   4.627  16.805  0.1081  0.3124 -0.0697
  371TIP3    H122604   6.045   4.561  16.874 -0.3959  1.9767  1.6520
  371TIP3    H222605   6.053   4.578  16.724 -1.6454 -2.1145  0.9917
  372TIP3   OH222606   4.654   5.364   2.543  0.6082 -1.1517 -0.4192
  372TIP3    H122607   4.616   5.441   2.586  0.9478 -1.3737  0.2905
  372TIP3    H222608   4.636   5.292   2.603  0.9267 -1.5046 -0.7446
  373TIP3   OH222609   4.843   6.138  12.862  0.2407  0.1991 -0.3516
  373TIP3    H122610   4.788   6.097  12.929  0.9322 -0.3029 -0.0799
  373TIP3    H222611   4.863   6.066  12.802  1.7564  0.0354  0.3141
  374TIP3   OH222612   6.357   5.861  12.249 -0.1727  0.6059  0.0070
  374TIP3    H122613   6.272   5.846  12.207  0.5215 -0.9205 -0.9363
  374TIP3    H222614   6.362   5.795  12.317  0.1485  0.8629  0.2315
  375TIP3   OH222615   0.220   2.986  14.829 -0.4196  0.0971  0.1074
  375TIP3    H122616   0.205   2.999  14.922 -2.5405  1.9869 -0.3972
  375TIP3    H222617   0.276   3.059  14.803  1.2445 -1.1319  0.0681
  376TIP3   OH222618   4.679   0.175   6.191 -0.4759 -0.0730  0.3246
  376TIP3    H122619   4.651   0.109   6.253 -1.9155 -0.9957 -1.2181
  376TIP3    H222620   4.636   0.256   6.220  0.2672 -0.0864  1.4879
  377TIP3   OH222621   6.478   1.533  12.815  0.7950 -0.1740  0.1981
  377TIP3    H122622   6.480   1.628  12.805  0.4921 -0.1960 -0.0829
  377TIP3    H222623   6.420   1.517  12.889  1.3334 -0.1146  0.6430
  378TIP3   OH222624   0.321   3.111   2.968 -0.2557  0.3247  0.2093
  378TIP3    H122625   0.361   3.084   2.885 -0.2046  1.2731 -0.0958
  378TIP3    H222626   0.260   3.181   2.943 -0.8402  0.0626  0.8799
  379TIP3   OH222627   3.301   2.415   0.373  0.0352  0.2103 -0.2191
  379TIP3    H122628   3.252   2.357   0.315 -0.4679  0.7095 -0.3059
  379TIP3    H222629   3.333   2.358   0.443  0.7227 -0.4101 -1.0263
  380TIP3   OH222630   2.093   0.362   0.410 -0.0002 -0.0099 -0.3036
  380TIP3    H122631   2.108   0.282   0.360 -1.2885 -0.3399 -0.1960
  380TIP3    H222632   2.002   0.385   0.392 -0.0465  0.6783  0.7199
  381TIP3   OH222633   0.000   2.500   1.317 -0.3727 -0.0583 -0.1025
  381TIP3    H122634   0.040   2.422   1.277  0.1827 -1.0672  2.2581
  381TIP3    H222635   0.045   2.574   1.276 -0.3451 -0.9849 -1.8271
  382TIP3   OH222636   1.534   2.351   0.595  0.3490 -0.3695 -0.3241
  382TIP3    H122637   1.556   2.427   0.541  1.2848  0.1081  0.6708
  382TIP3    H222638   1.537   2.385   0.685  0.2125 -1.4499  0.1004
  383TIP3   OH222639   6.147   6.386   0.430  0.5739 -0.0459 -0.2684
  383TIP3    H122640   6.146   6.477   0.401 -0.0785  0.1454  0.3170
  383TIP3    H222641   6.059   6.354   0.413  0.4934 -0.2484  0.4818
  384TIP3   OH222642   2.895   3.127  12.305 -0.0909 -0.3530 -0.6529
  384TIP3    H122643   2.883   3.033  12.314  1.1680 -0.3764  1.6894
  384TIP3    H222644   2.989   3.141  12.320 -0.7653  1.5241  3.5392
  385TIP3   OH222645   3.491   4.888  12.195 -0.0122  0.4514  0.1990
  385TIP3    H122646   3.427   4.923  12.133 -1.6993 -1.4890  0.7369
  385TIP3    H222647   3.497   4.795  12.174  2.1022  0.4467  0.6605
  386TIP3   OH222648   4.578   2.920  11.715 -0.1776 -0.8887 -0.1871
  386TIP3    H122649   4.617   2.872  11.788  0.0809 -1.4136 -0.6624
  386TIP3    H222650   4.495   2.876  11.698 -1.2095  0.4619  1.0676
  387TIP3   OH222651   4.878   4.821  14.753 -0.0770 -0.1702 -0.0021
  387TIP3    H122652   4.950   4.883  14.770 -0.7239  0.8445 -0.8418
  387TIP3    H222653   4.888   4.797  14.661 -0.4799 -0.4640  0.0290
  388TIP3   OH222654   4.647   5.693   2.438  0.6000  0.1569 -0.1161
  388TIP3    H122655   4.713   5.688   2.369 -0.2348  0.5505 -0.9649
  388TIP3    H222656   4.566   5.668   2.395  0.0698  0.3811  0.7349
  389TIP3   OH222657   2.289   4.135  14.690 -0.0881  0.3661 -0.5354
  389TIP3    H122658   2.344   4.057  14.685 -2.4663 -1.4324 -0.4243
  389TIP3    H222659   2.240   4.135  14.608 -4.1902 -1.6203  1.6128
  390TIP3   OH222660   3.410   1.334   1.184 -0.0752  0.2196 -0.0588
  390TIP3    H122661   3.457   1.312   1.264 -0.3341  0.5866  0.2007
  390TIP3    H222662   3.470   1.311   1.114 -0.2026 -0.9722  0.1983
  391TIP3   OH222663   5.746   4.038  13.532 -0.2858 -0.4590 -0.3165
  391TIP3    H122664   5.832   4.062  13.566 -0.8059  0.2135  0.5872
  391TIP3    H222665   5.736   3.946  13.555  0.2472 -0.5865 -0.5702
  392TIP3   OH222666   3.992   3.766  11.194  0.4923 -0.6174 -0.0578
  392TIP3    H122667   4.079   3.727  11.186  0.2009 -1.3506  0.2292
  392TIP3    H222668   3.933   3.704  11.151  0.3885  1.0773 -2.5181
  393TIP3   OH222669   2.846   5.945  14.571 -0.4583 -0.0280  0.0824
  393TIP3    H122670   2.765   5.987  14.542 -0.4399  0.7785  1.1454
  393TIP3    H222671   2.887   6.010  14.628  1.0262 -0.3591 -0.5710
  394TIP3   OH222672   2.387   4.812   4.740 -0.1726 -0.1279 -0.1408
  394TIP3    H122673   2.355   4.774   4.658 -0.7721  0.9358 -0.4184
  394TIP3    H222674   2.430   4.739   4.784 -1.1937 -1.1117 -0.6936
  395TIP3   OH222675   1.303   1.788  17.158  0.0891 -0.2222 -0.8462
  395TIP3    H122676   1.392   1.822  17.153 -0.3921  1.0961 -0.7737
  395TIP3    H222677   1.270   1.819  17.242 -0.6825 -0.0965 -1.1902
  396TIP3   OH222678   3.196   4.087   1.426 -0.3977 -0.5929  0.0534
  396TIP3    H122679   3.248   4.164   1.450 -2.8524  0.9871  0.6592
  396TIP3    H222680   3.180   4.097   1.332 -1.8702  0.4562  0.3826
  397TIP3   OH222681   6.244   6.028  13.686  0.6061  0.3550 -0.4548
  397TIP3    H122682   6.314   6.007  13.625  0.2892  0.3083 -0.8110
  397TIP3    H222683   6.245   5.956  13.750  1.1579  0.5819 -0.2047
  398TIP3   OH222684   0.232   1.574  11.916  0.2881 -0.4087  0.2531
  398TIP3    H122685   0.257   1.589  11.824  0.1208  0.2871  0.3121
  398TIP3    H222686   0.144   1.536  11.910  0.9690 -2.0222  0.0779
  399TIP3   OH222687   4.168   2.192   1.380  0.5221  0.1982  0.0273
  399TIP3    H122688   4.083   2.177   1.337 -0.0298  2.1551  0.3390
  399TIP3    H222689   4.207   2.265   1.332  1.0054  0.7926  1.2752
  400TIP3   OH222690   0.901   2.958   5.633 -0.1214 -0.0113 -0.3385
  400TIP3    H122691   0.859   2.899   5.570 -0.0439 -1.7508  1.1598
  400TIP3    H222692   0.873   2.925   5.719  0.0791  2.0526  0.5817
  401TIP3   OH222693   6.806   6.166   0.525  0.3393  0.1603  0.4051
  401TIP3    H122694   6.815   6.085   0.575  1.9773  0.0871  0.0387
  401TIP3    H222695   6.796   6.234   0.591  1.6786 -0.0270  0.8177
  402TIP3   OH222696   0.566   0.354  14.487 -0.1111  0.8395 -0.6544
  402TIP3    H122697   0.586   0.343  14.394  0.8927  0.5459 -0.4232
  402TIP3    H222698   0.534   0.268  14.515  1.0746  0.4509 -0.4035
  403TIP3   OH222699   6.607   1.005   5.598  0.0575 -0.1056  0.4397
  403TIP3    H122700   6.575   1.091   5.625 -0.3488 -0.5435  1.4154
  403TIP3    H222701   6.661   0.976   5.672  0.0802 -0.7397  0.1771
  404TIP3   OH222702   4.100   1.401  13.323  0.7046 -0.1446  0.3943
  404TIP3    H122703   4.098   1.395  13.227 -2.7177  0.3971  0.3109
  404TIP3    H222704   4.139   1.486  13.341  3.1630 -1.0306 -0.3608
  405TIP3   OH222705   5.654   1.210  15.905 -0.2942  0.1882 -0.1085
  405TIP3    H122706   5.644   1.136  15.964 -0.2918  0.2144 -0.0753
  405TIP3    H222707   5.706   1.176  15.832 -0.8109 -0.0081 -0.3909
  406TIP3   OH222708   6.620   4.749   0.288  0.3588 -0.0408  0.1739
  406TIP3    H122709   6.619   4.678   0.352  2.0896  1.4335  1.9586
  406TIP3    H222710   6.688   4.724   0.225 -1.5962 -1.6682 -1.4202
  407TIP3   OH222711   0.577   2.938   5.503  0.2986  0.3652  0.3780
  407TIP3    H122712   0.649   2.874   5.501 -1.6052 -1.9904  1.6448
  407TIP3    H222713   0.530   2.923   5.421  1.2837  2.0597 -0.5556
  408TIP3   OH222714   6.219   2.253   6.057  0.0088  0.3500  0.7826
  408TIP3    H122715   6.259   2.322   6.111 -0.1522 -1.3976  3.2836
  408TIP3    H222716   6.129   2.247   6.088 -1.3823  1.9209 -2.4806
  409TIP3   OH222717   3.465   4.604  15.955 -0.4040 -0.1369  0.2910
  409TIP3    H122718   3.487   4.690  15.989 -0.2653  0.1354 -0.4766
  409TIP3    H222719   3.532   4.546  15.990 -0.2924  0.1286  0.5191
  410TIP3   OH222720   2.539   5.756   1.224 -0.2070  0.5479 -0.0933
  410TIP3    H122721   2.456   5.745   1.177 -0.7747  2.0231  0.5093
  410TIP3    H222722   2.524   5.830   1.282  1.7435  1.2804 -0.4448
  411TIP3   OH222723   2.474   5.617  16.251 -0.2285  0.2709 -0.0185
  411TIP3    H122724   2.525   5.547  16.291  0.3571  1.0546  0.6550
  411TIP3    H222725   2.538   5.668  16.201 -0.7547 -0.0185 -1.0053
  412TIP3   OH222726   3.794   1.586  13.584 -0.2069  0.0621 -0.4278
  412TIP3    H122727   3.793   1.669  13.535 -1.6480 -0.6743 -1.7302
  412TIP3    H222728   3.796   1.519  13.516 -1.3652 -0.9948  0.5403
  413TIP3   OH222729   2.345   2.883   6.165  0.1154 -0.2680  0.1459
  413TIP3    H122730   2.421   2.841   6.124 -0.8039  0.6932 -2.7693
  413TIP3    H222731   2.368   2.976   6.166 -0.0336 -0.2313  1.6128
  414TIP3   OH222732   2.429   0.240  16.310 -0.3443  0.0715  0.2174
  414TIP3    H122733   2.437   0.223  16.216  0.2138 -1.8562  0.5743
  414TIP3    H222734   2.449   0.156  16.352 -1.5850  0.6106  2.0312
  415TIP3   OH222735   3.591   3.784   5.124  0.9712  0.5223  0.2631
  415TIP3    H122736   3.580   3.878   5.135  0.2953  0.5138 -0.2925
  415TIP3    H222737   3.656   3.774   5.054  3.8136  0.5629  2.6744
  416TIP3   OH222738   0.251   1.295  14.044 -0.0971 -0.2032 -0.2585
  416TIP3    H122739   0.239   1.310  13.950 -2.2729  2.6777  0.3384
  416TIP3    H222740   0.345   1.298  14.058  0.1615  1.4596 -2.0845
  417TIP3   OH222741   0.330   5.648   1.116  0.4701 -0.1783 -0.3590
  417TIP3    H122742   0.324   5.681   1.027  0.5213 -0.8349 -0.6082
  417TIP3    H222743   0.245   5.606   1.132  0.6673 -0.5543 -0.2955
  418TIP3   OH222744   0.767   0.706   6.248  0.2522  0.1287 -0.1047
  418TIP3    H122745   0.786   0.668   6.334  1.0554  0.8882  0.0669
  418TIP3    H222746   0.849   0.699   6.200 -0.0867  0.0637 -0.6906
  419TIP3   OH222747   1.334   0.399  14.300  0.7981 -0.1809  0.3594
  419TIP3    H122748   1.386   0.329  14.260  2.0926  0.8773  0.1260
  419TIP3    H222749   1.378   0.418  14.383  0.6097  0.5385  0.3013
  420TIP3   OH222750   1.691   4.393   2.149 -0.2378  0.0535  0.3233
  420TIP3    H122751   1.687   4.299   2.130 -2.5516  0.7090 -3.4854
  420TIP3    H222752   1.603   4.415   2.179  0.2104  1.0947  0.9119
  421TIP3   OH222753   6.782   0.253  15.240 -0.0607  0.0916 -0.4080
  421TIP3    H122754   6.813   0.181  15.295 -0.4096 -0.7497 -1.2781
  421TIP3    H222755   6.847   0.261  15.171  0.7246  1.5842  0.4466
  422TIP3   OH222756   0.042   5.459   3.355 -0.4604  0.1828  0.2732
  422TIP3    H122757   0.122   5.500   3.388 -1.1483  0.7060  1.3593
  422TIP3    H222758  -0.002   5.425   3.433 -1.4415  0.1780 -0.2622
  423TIP3   OH222759   2.963   6.266   2.755  0.0479  0.9204 -0.0852
  423TIP3    H122760   2.965   6.188   2.810 -0.3160  0.2195 -1.0302
  423TIP3    H222761   3.054   6.295   2.752  0.1412  0.7054  0.5114
  424TIP3   OH222762   0.268   4.764  15.488 -0.2586 -0.2123 -0.8031
  424TIP3    H122763   0.232   4.831  15.429 -0.7065  0.1568 -0.1270
  424TIP3    H222764   0.360   4.788  15.497 -1.0620  2.3931  2.0719
  425TIP3   OH222765   5.379   3.171   0.039  0.1338 -0.1077  0.2507
  425TIP3    H122766   5.306   3.229   0.059  0.1749 -0.3663  1.1915
  425TIP3    H222767   5.433   3.173   0.118  0.2987 -1.1857  0.1723
  426TIP3   OH222768   4.851   3.012   3.928 -0.0039  0.5956 -0.3543
  426TIP3    H122769   4.791   2.958   3.877 -0.0623  1.0244 -0.7447
  426TIP3    H222770   4.802   3.092   3.947 -0.3984 -0.0157  1.3840
  427TIP3   OH222771   6.834   6.365   2.800  0.2215 -0.7535  0.2367
  427TIP3    H122772   6.896   6.386   2.731 -0.1208 -0.7991 -0.0865
  427TIP3    H222773   6.835   6.441   2.857  1.7745 -1.3905  1.1330
  428TIP3   OH222774   0.300   3.678  10.379  0.8670  0.3066  0.1619
  428TIP3    H122775   0.289   3.745  10.312  1.1606  0.9470  0.7353
  428TIP3    H222776   0.326   3.727  10.457  1.8941 -0.5695  0.3782
  429TIP3   OH222777   5.579   0.692  15.771  0.6117 -0.5644  0.3918
  429TIP3    H122778   5.648   0.626  15.778 -0.1738 -1.4076  0.2778
  429TIP3    H222779   5.605   0.759  15.834  2.8613  0.3928 -1.3747
  430TIP3   OH222780   1.237   2.374  13.571  0.3831  0.2326  0.1992
  430TIP3    H122781   1.176   2.376  13.497  0.1707  0.8002  0.3842
  430TIP3    H222782   1.198   2.312  13.632 -2.0167  3.2300  1.9845
  431TIP3   OH222783   4.492   5.700  15.060  0.1227 -0.3437 -0.1474
  431TIP3    H122784   4.432   5.626  15.062  0.7855 -0.9086 -0.5706
  431TIP3    H222785   4.455   5.759  14.995  0.7540 -1.3617 -1.4981
  432TIP3   OH222786   2.129   0.786   2.875  0.2853  0.2853 -0.5243
  432TIP3    H122787   2.101   0.873   2.904 -1.1253 -0.3042 -0.0623
  432TIP3    H222788   2.065   0.760   2.810 -0.1310 -0.9764  0.3467
  433TIP3   OH222789   2.169   5.972   1.824 -0.4070  0.0566 -0.5989
  433TIP3    H122790   2.177   5.877   1.826  0.8129  0.1671  1.0399
  433TIP3    H222791   2.075   5.987   1.813 -0.7616 -1.3399  0.2429
  434TIP3   OH222792   3.924   3.036  13.852 -0.7906 -0.3134  0.0840
  434TIP3    H122793   3.927   2.945  13.882 -0.4770 -0.4858 -0.4665
  434TIP3    H222794   3.868   3.080  13.916  1.4457 -0.2299  2.1108
  435TIP3   OH222795   4.172   2.164   5.000  0.1377  0.3288  0.7141
  435TIP3    H122796   4.120   2.232   4.957  0.1426 -0.0786  0.0646
  435TIP3    H222797   4.107   2.106   5.040  0.0857 -0.1878 -0.1086
  436TIP3   OH222798   4.536   3.102  12.705  0.4294  0.0681 -0.6283
  436TIP3    H122799   4.597   3.033  12.678  1.0803  0.5002 -0.3039
  436TIP3    H222800   4.516   3.149  12.625  1.7722  0.8856 -0.5293
  437TIP3   OH222801   1.425   1.580   4.604  0.0947  0.1808 -0.0407
  437TIP3    H122802   1.353   1.568   4.543  0.6274 -0.2140 -0.6089
  437TIP3    H222803   1.449   1.672   4.594 -1.1075  0.6386  1.0506
  438TIP3   OH222804   4.818   2.642   2.936 -0.1261  0.0982 -0.1886
  438TIP3    H122805   4.815   2.657   3.030 -0.1034  0.5045 -0.2480
  438TIP3    H222806   4.889   2.699   2.905  1.7123 -2.0092 -0.1016
  439TIP3   OH222807   3.557   0.374   3.192 -0.0742  0.2083  0.5835
  439TIP3    H122808   3.503   0.400   3.117  0.2293  1.1261  0.6705
  439TIP3    H222809   3.545   0.444   3.256 -0.1452 -0.4495  1.3052
  440TIP3   OH222810   2.508   5.615   5.686  0.2495 -0.2096 -0.1367
  440TIP3    H122811   2.576   5.556   5.717  0.3806 -0.5653 -1.0651
  440TIP3    H222812   2.527   5.699   5.728  0.5769 -0.6008  0.5067
  441TIP3   OH222813   5.886   2.940   2.451  0.2909  0.1175  0.7639
  441TIP3    H122814   5.830   2.909   2.522  1.5425 -0.0115  1.7196
  441TIP3    H222815   5.868   3.034   2.445 -0.8575 -0.1167  0.2792
  442TIP3   OH222816   4.611   6.445  14.460 -0.1147  0.1087 -0.2928
  442TIP3    H122817   4.636   6.397  14.381 -0.2963 -1.2466  0.4464
  442TIP3    H222818   4.690   6.443  14.515 -1.1721 -2.7836  1.3688
  443TIP3   OH222819   4.125   1.912  13.789 -0.1448  0.1264 -0.2731
  443TIP3    H122820   4.171   1.969  13.727 -2.1546  1.5600 -0.5468
  443TIP3    H222821   4.087   1.843  13.735  1.6281 -1.0851 -0.0412
  444TIP3   OH222822   3.512   0.987  17.113 -0.1747 -0.2978  0.4224
  444TIP3    H122823   3.558   1.043  17.050 -1.5846 -0.3619 -0.7491
  444TIP3    H222824   3.496   1.043  17.188 -0.2346  0.4322 -0.1187
  445TIP3   OH222825   6.154   3.577   2.614  0.2913  0.1410 -0.4428
  445TIP3    H122826   6.159   3.613   2.702  0.0830  1.0468 -0.7817
  445TIP3    H222827   6.142   3.483   2.626  0.4307  0.2379  0.4866
  446TIP3   OH222828   0.401   5.458   6.045  0.1439 -0.1858 -0.2189
  446TIP3    H122829   0.351   5.473   6.125 -2.4304 -0.4901 -1.6623
  446TIP3    H222830   0.439   5.370   6.056 -0.7036 -0.4842  0.4053
  447TIP3   OH222831   2.726   3.910   4.781  0.2425  0.3223 -0.0943
  447TIP3    H122832   2.644   3.863   4.797 -1.0081  1.5009 -2.4854
  447TIP3    H222833   2.712   3.997   4.818  1.4621 -0.2014  1.7592
  448TIP3   OH222834   5.721   6.108  14.821 -0.2690 -0.0057 -0.1336
  448TIP3    H122835   5.809   6.142  14.839  0.4159 -1.4864 -0.4792
  448TIP3    H222836   5.733   6.013  14.817 -2.0303 -0.2846  0.5203
  449TIP3   OH222837   6.746   5.636  12.155 -0.0041  0.5820  0.2809
  449TIP3    H122838   6.819   5.691  12.125  1.2827 -1.2005  0.0072
  449TIP3    H222839   6.740   5.654  12.249  1.6939 -0.1952  0.5802
  450TIP3   OH222840   3.666   5.961   1.611  0.2634 -0.3213 -0.2303
  450TIP3    H122841   3.746   5.921   1.578  0.7166  1.0274 -0.8753
  450TIP3    H222842   3.636   6.016   1.539 -0.2342  0.5938  0.6463
  451TIP3   OH222843   5.350   0.777   1.954  0.0852  0.2264 -0.2275
  451TIP3    H122844   5.434   0.777   1.999  0.4677 -1.4756 -0.8603
  451TIP3    H222845   5.347   0.861   1.908  0.8930  0.8070  0.7550
  452TIP3   OH222846   5.693   2.556  11.670  0.0048 -0.1518 -0.0359
  452TIP3    H122847   5.753   2.594  11.607  2.8348 -0.0660  2.4676
  452TIP3    H222848   5.654   2.632  11.715  0.3114 -0.1849  0.2948
  453TIP3   OH222849   0.346   3.758  14.105  0.5130 -0.1670  0.3156
  453TIP3    H122850   0.394   3.697  14.049  0.5436  0.4300 -0.3304
  453TIP3    H222851   0.382   3.745  14.192  1.7343  0.1459 -0.1234
  454TIP3   OH222852   2.752   0.555  12.039 -0.4619 -0.2731 -0.3002
  454TIP3    H122853   2.741   0.462  12.022  0.2680 -0.2168 -1.1321
  454TIP3    H222854   2.766   0.594  11.953 -2.9192  0.9509 -0.2408
  455TIP3   OH222855   2.980   6.672  15.462  0.2815  0.4979 -0.7784
  455TIP3    H122856   2.996   6.602  15.399  0.7915  1.0985 -1.3439
  455TIP3    H222857   2.930   6.738  15.413  0.6529  0.9537 -0.5585
  456TIP3   OH222858   0.171   6.484  12.655 -0.3632  0.1373  0.2171
  456TIP3    H122859   0.248   6.517  12.608 -1.1049 -1.3843 -2.2922
  456TIP3    H222860   0.206   6.420  12.716  0.5442  1.3507  1.0323
  457TIP3   OH222861   4.332   2.398  14.298 -0.2862 -0.0558  0.0066
  457TIP3    H122862   4.334   2.342  14.376 -2.7509  0.1222  0.2805
  457TIP3    H222863   4.279   2.473  14.325 -0.2619  0.5451 -1.5348
  458TIP3   OH222864   6.636   3.041  11.105 -0.1548  0.0741 -0.1272
  458TIP3    H122865   6.562   3.098  11.129  0.5956  1.2826 -0.6018
  458TIP3    H222866   6.698   3.100  11.061  0.5372 -1.1731 -0.8620
  459TIP3   OH222867   3.704   6.480   1.442  0.2938 -0.0347 -0.1715
  459TIP3    H122868   3.653   6.531   1.380  2.7147  1.5930 -0.9758
  459TIP3    H222869   3.773   6.540   1.472  0.6731 -1.5201  2.2520
  460TIP3   OH222870   5.162   1.934   0.375  0.3819 -0.0606  0.0236
  460TIP3    H122871   5.177   1.882   0.454 -1.7038  0.0988  0.5817
  460TIP3    H222872   5.074   1.910   0.347  0.4468  1.1255 -1.3136
  461TIP3   OH222873   1.640   2.426   1.092  0.0941 -0.7739 -0.3836
  461TIP3    H122874   1.679   2.362   1.151  0.2186 -1.4268 -1.1618
  461TIP3    H222875   1.572   2.468   1.145  1.5213  0.0844  0.8573
  462TIP3   OH222876   5.851   1.767   2.735 -0.5122 -0.6620  0.2944
  462TIP3    H122877   5.875   1.700   2.670  0.2716  0.5093 -0.6652
  462TIP3    H222878   5.779   1.815   2.695 -1.5136 -1.3007  1.2584
  463TIP3   OH222879   6.607   2.261  12.204  0.0485  0.0753  0.4806
  463TIP3    H122880   6.546   2.187  12.192  0.6842 -0.1729 -1.5832
  463TIP3    H222881   6.682   2.239  12.149  0.9518  1.5412  1.0832
  464TIP3   OH222882   4.885   1.622   5.761  0.2731 -0.2228  0.1663
  464TIP3    H122883   4.905   1.531   5.741 -0.5216 -0.4580  0.3954
  464TIP3    H222884   4.816   1.617   5.827 -0.2790  0.5450 -0.3345
  465TIP3   OH222885   3.100   3.561   5.916 -0.2912 -0.4373 -0.3063
  465TIP3    H122886   3.096   3.512   5.998  2.5435  1.2804  1.0098
  465TIP3    H222887   3.090   3.653   5.942  3.8265  0.4902 -1.2464
  466TIP3   OH222888   1.634   4.208  15.776 -0.0318  0.2104 -0.4040
  466TIP3    H122889   1.594   4.246  15.698  0.6686  1.0698 -0.3664
  466TIP3    H222890   1.621   4.114  15.767  0.1215  0.2868 -1.6126
  467TIP3   OH222891   2.820   0.378  12.652 -0.0011 -0.5925  0.0233
  467TIP3    H122892   2.728   0.393  12.631 -0.2635 -0.8869  0.9278
  467TIP3    H222893   2.857   0.340  12.573 -0.1630  1.3644 -1.0690
  468TIP3   OH222894   4.621   6.758   4.845  0.0270 -0.2853  0.6061
  468TIP3    H122895   4.551   6.747   4.910 -0.4878 -1.7198 -0.1411
  468TIP3    H222896   4.602   6.692   4.778  1.0845  0.5131 -0.5300
  469TIP3   OH222897   5.602   1.664  11.879 -0.3001  0.5444 -0.4576
  469TIP3    H122898   5.514   1.630  11.898 -1.0428  1.5210 -2.0045
  469TIP3    H222899   5.587   1.740  11.823  1.5869  0.0994 -1.6404
  470TIP3   OH222900   6.375   6.046   0.027 -0.2815 -0.0356 -0.5239
  470TIP3    H122901   6.463   6.013   0.046 -0.5738 -0.8190 -0.4854
  470TIP3    H222902   6.328   5.970  -0.007 -1.2816  0.0818  0.5468
  471TIP3   OH222903   3.041   2.937  13.787  0.0626 -0.2475  0.0557
  471TIP3    H122904   2.950   2.911  13.801 -0.0758 -1.6397 -2.7665
  471TIP3    H222905   3.092   2.873  13.836 -0.4462 -2.1822 -1.8090
  472TIP3   OH222906   3.924   1.431   0.112 -0.2572 -0.0235  0.1010
  472TIP3    H122907   3.877   1.480   0.044 -1.9763  0.4737  1.5394
  472TIP3    H222908   3.906   1.480   0.192  0.7200 -1.2370  1.0980
  473TIP3   OH222909   2.945   2.465   6.156  0.8237  0.1134  0.3949
  473TIP3    H122910   2.878   2.524   6.119  0.8399  0.3404  0.7168
  473TIP3    H222911   2.923   2.379   6.121  1.3635  0.4604 -0.8489
  474TIP3   OH222912   3.101   3.663  17.105 -0.5352  0.4695 -0.0198
  474TIP3    H122913   3.009   3.653  17.129 -0.6936 -0.6578 -1.0238
  474TIP3    H222914   3.132   3.574  17.087  1.1126  0.6661  1.5068
  475TIP3   OH222915   2.479   1.629   5.316 -0.2799 -0.3785  0.7795
  475TIP3    H122916   2.437   1.556   5.270 -1.7771  1.5977 -1.2325
  475TIP3    H222917   2.491   1.695   5.248  0.9687  1.2871  2.5343
  476TIP3   OH222918   2.521   0.740   0.433  0.8517 -0.3498  0.6318
  476TIP3    H122919   2.504   0.814   0.374  1.6469  0.0955  0.9424
  476TIP3    H222920   2.440   0.690   0.432  0.6461 -0.0306 -0.3830
  477TIP3   OH222921   1.316   2.013   1.805 -0.0534  0.3375 -0.4061
  477TIP3    H122922   1.352   1.961   1.876 -0.1629 -1.6966 -1.7634
  477TIP3    H222923   1.374   2.090   1.800  1.0279 -0.3694  0.6894
  478TIP3   OH222924   5.639   3.483   4.758  0.0945 -0.2008 -0.3163
  478TIP3    H122925   5.594   3.461   4.840 -0.4240  0.3868 -0.4395
  478TIP3    H222926   5.666   3.574   4.769 -2.9360  1.0634 -2.0552
  479TIP3   OH222927   0.638   6.172   5.563 -0.2737 -0.3800  0.2339
  479TIP3    H122928   0.706   6.178   5.631 -0.1606 -1.0526  0.1854
  479TIP3    H222929   0.556   6.164   5.611 -0.3258  0.4018  0.2927
  480TIP3   OH222930   5.375   2.269   1.248 -0.2186 -0.0863 -0.2096
  480TIP3    H122931   5.460   2.313   1.250 -0.2246 -0.0375 -0.7975
  480TIP3    H222932   5.315   2.334   1.212 -0.3888 -0.3056 -0.3225
  481TIP3   OH222933   0.063   5.557   1.159  0.1666 -0.3803 -0.3119
  481TIP3    H122934  -0.016   5.527   1.204  0.6508 -1.1877  0.0248
  481TIP3    H222935   0.042   5.646   1.131  0.0069  0.3828  1.9563
  482TIP3   OH222936   5.221   5.659   5.280 -0.1494 -0.2522 -0.1296
  482TIP3    H122937   5.278   5.671   5.356 -0.0038 -3.3849  0.4095
  482TIP3    H222938   5.142   5.708   5.302  0.8483  0.9716  0.8827
  483TIP3   OH222939   4.775   1.903  14.033  0.2792 -0.3680  0.1872
  483TIP3    H122940   4.851   1.847  14.050  0.7316  0.3436  0.5359
  483TIP3    H222941   4.804   1.962  13.964 -0.0040 -0.1865  0.2224
  484TIP3   OH222942   2.385   4.520  11.902  0.1802 -0.9224 -0.3451
  484TIP3    H122943   2.394   4.610  11.935 -0.0202 -0.6837 -0.9235
  484TIP3    H222944   2.465   4.506  11.852  0.0287 -0.9236 -0.5854
  485TIP3   OH222945   3.185   1.560  12.396 -0.3160 -0.1772 -0.1341
  485TIP3    H122946   3.126   1.554  12.471  0.1767  0.7993  0.3523
  485TIP3    H222947   3.157   1.490  12.338 -1.8602  0.1758  0.1453
  486TIP3   OH222948   0.207   0.990   0.456  0.5082  0.5365  0.0869
  486TIP3    H122949   0.188   0.901   0.426  3.3856 -0.5038  1.0497
  486TIP3    H222950   0.148   1.004   0.531  0.6204 -0.9062  0.4600
  487TIP3   OH222951   6.748   0.790  14.148 -0.7052 -0.4283  0.0779
  487TIP3    H122952   6.831   0.770  14.191  0.6273  0.8647 -1.7568
  487TIP3    H222953   6.725   0.877  14.180 -0.2372  0.1040 -0.9932
  488TIP3   OH222954   4.284   0.814   4.677  0.3623 -0.2344  0.3041
  488TIP3    H122955   4.371   0.848   4.655  0.2791 -1.8876 -3.3231
  488TIP3    H222956   4.292   0.784   4.768  3.3811  0.2356  0.2989
  489TIP3   OH222957   4.649   1.929   0.188  0.1635  0.3325 -0.4726
  489TIP3    H122958   4.606   1.903   0.269  1.7139  1.7887  0.8977
  489TIP3    H222959   4.651   2.024   0.192 -1.8445  0.6264 -3.4234
  490TIP3   OH222960   1.845   2.921   1.187  0.4454 -0.1922  0.6032
  490TIP3    H122961   1.791   2.987   1.232 -0.4545  0.2583 -1.0453
  490TIP3    H222962   1.894   2.972   1.122 -1.1744 -1.2180 -1.5465
  491TIP3   OH222963   1.881   0.285   0.645 -0.1383 -0.2140  0.0360
  491TIP3    H122964   1.787   0.289   0.627 -0.4529 -2.5129  0.7385
  491TIP3    H222965   1.918   0.246   0.565 -0.1538 -1.4000  0.5776
  492TIP3   OH222966   3.986   5.641   5.849  0.2228  0.8352  0.4352
  492TIP3    H122967   3.996   5.591   5.768 -1.5342  0.9637  0.0926
  492TIP3    H222968   4.043   5.597   5.912 -0.5466 -1.0096 -0.1058
  493TIP3   OH222969   6.666   4.635   1.518 -0.1028 -0.1559  0.0026
  493TIP3    H122970   6.672   4.691   1.440 -3.4658  1.8103  0.9245
  493TIP3    H222971   6.727   4.673   1.580  0.8354 -0.2529 -0.8314
  494TIP3   OH222972   6.016   1.834  13.409 -0.6435  0.3510  0.8899
  494TIP3    H122973   6.020   1.917  13.455 -0.1421  0.5187  0.5593
  494TIP3    H222974   5.926   1.803  13.422 -1.7348  2.2714 -1.2530
  495TIP3   OH222975   2.717   5.733  10.996 -0.7992  0.3283 -0.4625
  495TIP3    H122976   2.756   5.816  10.968  0.9394 -0.5062 -0.6254
  495TIP3    H222977   2.678   5.696  10.916  0.6225 -0.1574 -0.9583
  496TIP3   OH222978   0.039   4.745   1.180 -0.5624  0.2321  0.1093
  496TIP3    H122979   0.054   4.657   1.213 -0.5962  0.5446  0.9888
  496TIP3    H222980   0.125   4.777   1.154 -0.3157  0.4600  1.1561
  497TIP3   OH222981   0.135   5.773   5.334 -0.1070  0.2307 -0.0313
  497TIP3    H122982   0.216   5.808   5.372 -0.5263  1.1910  0.0052
  497TIP3    H222983   0.106   5.841   5.274 -0.9980 -0.0168  0.1149
  498TIP3   OH222984   0.914   1.702  11.701 -0.0058 -0.8008  0.4939
  498TIP3    H122985   0.931   1.769  11.766 -2.4604  0.2280  0.1771
  498TIP3    H222986   0.989   1.706  11.641  0.5913  0.6222  1.3063
  499TIP3   OH222987   1.714   5.375   3.386 -0.4131 -0.2596  0.5098
  499TIP3    H122988   1.631   5.345   3.349  1.1558 -1.7749 -2.0988
  499TIP3    H222989   1.731   5.459   3.342 -0.6241  0.1152  1.1412
  500TIP3   OH222990   4.704   0.465   3.167 -0.1071  0.1227  0.3777
  500TIP3    H122991   4.790   0.422   3.158 -0.6811 -1.5749  2.2247
  500TIP3    H222992   4.702   0.495   3.257 -1.7613 -0.5782  0.5959
  501TIP3   OH222993   5.882   0.767  15.549  0.0192 -0.4430 -0.9470
  501TIP3    H122994   5.961   0.716  15.565 -1.1721 -2.0429  0.1608
  501TIP3    H222995   5.818   0.703  15.516 -1.3357  0.4502 -0.1541
  502TIP3   OH222996   0.486   3.092   1.463  0.1744  0.0445  0.0674
  502TIP3    H122997   0.533   3.009   1.467 -0.2547 -0.1724  0.7994
  502TIP3    H222998   0.503   3.133   1.548  1.4524  1.3160 -0.7534
  503TIP3   OH222999   1.348   6.539   2.424 -0.6584 -0.5976 -0.3366
  503TIP3    H123000   1.427   6.574   2.465 -2.0524  0.6672  1.4005
  503TIP3    H223001   1.370   6.533   2.331  2.1393 -2.2123  0.3009
  504TIP3   OH223002   1.324   4.595   3.194  0.4604 -0.3344 -0.0220
  504TIP3    H123003   1.334   4.647   3.114  2.8618 -0.4869  0.1038
  504TIP3    H223004   1.410   4.598   3.236 -0.5583 -0.7819  2.2716
  505TIP3   OH223005   4.994   0.045   4.951  0.5085 -0.5488 -0.2719
  505TIP3    H123006   5.014   0.126   4.904 -0.2138 -0.1165  0.1508
  505TIP3    H223007   5.063   0.038   5.018 -0.4272  0.6881  0.8791
  506TIP3   OH223008   3.872   1.097  17.086  0.5475 -0.9395  0.5116
  506TIP3    H123009   3.903   1.119  17.174  1.0652 -0.4490  0.2124
  506TIP3    H223010   3.945   1.120  17.029 -0.3071  0.0782 -0.1965
  507TIP3   OH223011   6.349   1.832  11.914  0.1118 -0.2510 -0.0596
  507TIP3    H123012   6.411   1.771  11.873 -1.3256 -0.9908 -1.2211
  507TIP3    H223013   6.341   1.800  12.004  0.7664 -0.6624 -0.1391
  508TIP3   OH223014   5.003   5.372  13.784 -0.1250 -0.2415 -0.1226
  508TIP3    H123015   4.973   5.456  13.818 -0.7384  0.6156 -2.6178
  508TIP3    H223016   5.059   5.395  13.709  0.9459 -2.0362  0.0635
  509TIP3   OH223017   0.847   1.084  11.322  0.2542 -0.1344  0.0927
  509TIP3    H123018   0.850   1.179  11.307  1.3382 -0.2336 -0.4236
  509TIP3    H223019   0.912   1.068  11.390  0.3469 -0.5508 -0.0883
  510TIP3   OH223020   6.222   5.168  12.386 -0.1028  0.6066 -0.2662
  510TIP3    H123021   6.233   5.230  12.313  0.1380 -0.6382 -1.3100
  510TIP3    H223022   6.177   5.219  12.453  0.2550  1.9813 -1.0244
  511TIP3   OH223023   2.105   3.607   1.431  0.4688 -0.0944 -0.6195
  511TIP3    H123024   2.112   3.518   1.467 -2.4477 -0.4864 -0.8078
  511TIP3    H223025   2.055   3.655   1.496  0.0659  0.7702 -1.5445
  512TIP3   OH223026   4.415   3.167   5.478 -0.0146 -0.1623 -0.5302
  512TIP3    H123027   4.408   3.076   5.447  0.0315 -0.8313  1.3310
  512TIP3    H223028   4.421   3.160   5.573 -0.7839  1.8544 -0.2909
  513TIP3   OH223029   5.673   0.446  13.920 -0.0856 -0.5580 -0.0050
  513TIP3    H123030   5.679   0.540  13.904 -0.1934 -0.2929  1.3603
  513TIP3    H223031   5.726   0.406  13.851 -3.1842  0.1840 -3.0856
  514TIP3   OH223032   4.573   0.978   1.348 -0.8797  0.2907 -0.2733
  514TIP3    H123033   4.481   0.978   1.377 -0.7263  0.5216  0.2211
  514TIP3    H223034   4.615   1.044   1.403 -0.3486 -0.0347 -0.2853
  515TIP3   OH223035   3.110   4.393  11.395  0.1480 -0.1343  0.2328
  515TIP3    H123036   3.137   4.304  11.414 -1.0361 -0.3174  1.2284
  515TIP3    H223037   3.105   4.435  11.481 -1.7177  0.1451  0.0341
  516TIP3   OH223038   5.171   3.554  16.631  0.0371  0.2642 -0.2244
  516TIP3    H123039   5.228   3.495  16.680  0.5365  1.2816  0.4522
  516TIP3    H223040   5.159   3.510  16.546 -0.9710 -1.5986  0.8122
  517TIP3   OH223041   5.996   3.371   3.121 -0.1621  0.4244 -0.0541
  517TIP3    H123042   6.040   3.335   3.198 -0.5946  0.6075  0.2937
  517TIP3    H223043   6.062   3.371   3.052  0.1904  0.1157  0.2793
  518TIP3   OH223044   6.640   6.337  15.514  0.1246  0.0801  0.2253
  518TIP3    H123045   6.614   6.413  15.462 -1.5945  1.0568  2.3491
  518TIP3    H223046   6.683   6.279  15.452 -3.2539  0.3670 -2.7296
  519TIP3   OH223047   0.971   2.107   4.274  0.0072  0.5088 -0.2194
  519TIP3    H123048   0.911   2.081   4.345  0.0491  1.0647  0.0272
  519TIP3    H223049   0.934   2.189   4.241 -0.7787 -0.4397 -1.7641
  520TIP3   OH223050   2.443   6.828   1.756 -0.4631  0.0837 -0.2528
  520TIP3    H123051   2.495   6.780   1.692 -0.7904 -0.5322 -0.0735
  520TIP3    H223052   2.352   6.804   1.735 -0.7093  1.4407 -0.8060
  521TIP3   OH223053   5.714   0.661  12.939  0.4516  0.4695 -0.2805
  521TIP3    H123054   5.711   0.593  13.007  0.8977 -0.0948 -0.8080
  521TIP3    H223055   5.796   0.707  12.956  0.9980 -0.2284 -0.9400
  522TIP3   OH223056   2.902   4.072  12.322  0.3727 -0.6060  0.0567
  522TIP3    H123057   2.858   4.105  12.400  0.4981 -0.4491  0.0588
  522TIP3    H223058   2.945   4.148  12.283  2.8232 -1.1528  1.4490
  523TIP3   OH223059   2.466   6.021   3.580 -0.0693 -0.1890  0.5376
  523TIP3    H123060   2.418   6.022   3.663  0.5892 -0.8045  0.9390
  523TIP3    H223061   2.400   6.043   3.514 -0.9647 -1.2126  1.0521
  524TIP3   OH223062   2.352   2.352   3.781  0.1210 -0.3694 -0.0624
  524TIP3    H123063   2.413   2.355   3.855 -1.3074 -0.8195  1.1957
  524TIP3    H223064   2.327   2.260   3.774 -1.9952  0.0686  0.8732
  525TIP3   OH223065   6.107   0.320   1.754  0.4309 -0.9790  0.4038
  525TIP3    H123066   6.159   0.332   1.674 -2.3579  1.8745 -1.2146
  525TIP3    H223067   6.058   0.239   1.738 -1.4728  0.4765 -1.8161
  526TIP3   OH223068   5.250   1.914   1.035 -0.2522 -0.4275  0.4654
  526TIP3    H123069   5.228   1.879   0.949 -0.7445  0.8472  0.0580
  526TIP3    H223070   5.345   1.909   1.040  0.0359  1.8877 -1.2498
  527TIP3   OH223071   1.535   0.971   5.364  0.6229  0.4038 -0.4846
  527TIP3    H123072   1.505   1.054   5.401  0.0767 -0.8088  1.9868
  527TIP3    H223073   1.480   0.905   5.407  4.3174 -1.6653  1.5098
  528TIP3   OH223074   0.032   3.470  12.879 -0.1768  0.2236 -0.1273
  528TIP3    H123075   0.002   3.389  12.920 -1.8439  1.1847  0.6430
  528TIP3    H223076   0.011   3.459  12.786  0.9865 -0.7975 -0.2986
  529TIP3   OH223077   5.292   0.093   5.637  0.6277 -0.5867 -0.9482
  529TIP3    H123078   5.349   0.072   5.563 -0.7537 -1.2154 -1.8569
  529TIP3    H223079   5.218   0.139   5.599  0.6030  0.4252  0.2577
  530TIP3   OH223080   6.314   1.321  10.793  0.2802 -0.2613  0.3133
  530TIP3    H123081   6.403   1.288  10.793  0.0578 -0.9720  2.3716
  530TIP3    H223082   6.262   1.252  10.834 -1.1048  0.4668 -0.1332
  531TIP3   OH223083   3.893   1.100  16.650  0.1499  0.1260  0.0734
  531TIP3    H123084   3.888   1.189  16.683 -1.4104  0.1661 -0.2224
  531TIP3    H223085   3.969   1.062  16.695 -0.0276  1.1531  1.2874
  532TIP3   OH223086   5.299   5.973  14.171 -0.2115 -0.1430 -0.8658
  532TIP3    H123087   5.291   5.899  14.111 -1.6443 -2.0516  1.5034
  532TIP3    H223088   5.216   6.019  14.164  0.2676  0.6386 -1.5433
  533TIP3   OH223089   5.242   0.948   0.066 -0.2832  0.2928 -0.2486
  533TIP3    H123090   5.240   1.044   0.063  1.8797  0.4195  0.5842
  533TIP3    H223091   5.150   0.922   0.062 -0.8738  2.2065 -4.3960
  534TIP3   OH223092   5.757   5.006   2.489 -0.0333 -0.3589 -0.5538
  534TIP3    H123093   5.683   5.063   2.469  0.5084  0.8665  0.7279
  534TIP3    H223094   5.741   4.926   2.438 -3.1293 -0.8455  0.9580
  535TIP3   OH223095   0.656   4.707  15.272 -0.0251  0.6504 -0.3277
  535TIP3    H123096   0.601   4.630  15.259 -0.0929  0.7402 -0.5628
  535TIP3    H223097   0.726   4.677  15.329  0.0736  0.3572 -0.6054
  536TIP3   OH223098   1.639   3.527   4.768 -0.3168  0.1668 -0.4078
  536TIP3    H123099   1.588   3.508   4.846 -0.2772 -0.6358 -0.5662
  536TIP3    H223100   1.583   3.583   4.715 -1.3211 -1.2628 -0.8923
  537TIP3   OH223101   2.624   5.855   5.714  0.0557 -0.0941 -0.1918
  537TIP3    H123102   2.660   5.944   5.713 -0.0626 -0.0445 -1.2901
  537TIP3    H223103   2.689   5.802   5.669  1.6830 -1.2543  3.1871
  538TIP3   OH223104   4.918   3.517   1.690 -0.5018  0.0154  0.7775
  538TIP3    H123105   4.972   3.494   1.766  0.2108 -1.2397 -0.0916
  538TIP3    H223106   4.947   3.459   1.620  0.5962  2.7747 -1.2407
  539TIP3   OH223107   0.907   0.832   1.118  0.0014 -0.0199  0.2829
  539TIP3    H123108   0.966   0.906   1.132 -2.5766  2.2846 -0.0969
  539TIP3    H223109   0.890   0.833   1.024 -1.9301  0.5455  0.5880
  540TIP3   OH223110   0.227   3.612  15.437  0.2601  0.2990  0.3139
  540TIP3    H123111   0.300   3.621  15.498  0.4891 -0.9034  0.2337
  540TIP3    H223112   0.151   3.641  15.486  0.4407 -0.6696  1.1905
  541TIP3   OH223113   4.993   2.982  15.465  0.0145  0.2731  0.3940
  541TIP3    H123114   5.071   2.987  15.520 -0.3606  1.5208  0.8510
  541TIP3    H223115   5.026   2.972  15.376  0.6311 -2.4343  0.8341
  542TIP3   OH223116   6.175   4.515  11.412  0.0199  0.0142 -0.1452
  542TIP3    H123117   6.265   4.531  11.439  0.1458 -0.6403 -0.1760
  542TIP3    H223118   6.179   4.436  11.359  0.2435  2.6308 -4.5367
  543TIP3   OH223119   6.137   1.067  12.506 -0.1988 -0.0011  0.5681
  543TIP3    H123120   6.194   1.050  12.431  1.6097  1.4066  1.5363
  543TIP3    H223121   6.066   1.003  12.498  0.5285 -0.5987 -1.7079
  544TIP3   OH223122   2.980   4.692  11.423 -0.4721  0.1398  0.0812
  544TIP3    H123123   3.010   4.693  11.514  1.5582  2.8702 -0.4701
  544TIP3    H223124   3.003   4.605  11.391 -0.5598 -0.6188  1.9616
  545TIP3   OH223125   2.903   0.297   2.830  0.4294 -0.4019 -0.4169
  545TIP3    H123126   2.932   0.208   2.816  0.4331 -0.3716 -0.6033
  545TIP3    H223127   2.817   0.302   2.787 -0.7448 -1.0286  1.7032
  546TIP3   OH223128   0.064   5.202  14.805 -0.0743 -0.2167 -0.6322
  546TIP3    H123129   0.094   5.129  14.751 -0.9472 -0.5050 -0.7414
  546TIP3    H223130   0.065   5.277  14.746  1.1155 -0.0593 -0.4416
  547TIP3   OH223131   3.577   5.879   0.370  0.0025 -0.2599  0.2159
  547TIP3    H123132   3.522   5.840   0.438  0.1369 -0.1859  0.3678
  547TIP3    H223133   3.516   5.899   0.299 -0.0055 -1.1636 -0.0556
  548TIP3   OH223134   0.190   0.186   3.992 -0.0222 -0.4494 -0.3429
  548TIP3    H123135   0.240   0.109   4.021  2.4099  0.0899 -2.7223
  548TIP3    H223136   0.125   0.151   3.931 -0.1499 -0.7587 -0.0375
  549TIP3   OH223137   0.772   6.286   4.617 -0.3351 -0.0687  0.9319
  549TIP3    H123138   0.695   6.236   4.590 -0.2961 -0.5638  1.7149
  549TIP3    H223139   0.807   6.238   4.692  2.6345 -1.7094 -1.3025
  550TIP3   OH223140   1.047   2.789   3.570 -0.0812  0.7055  0.5750
  550TIP3    H123141   0.985   2.727   3.607  1.4841  0.6336  3.3031
  550TIP3    H223142   1.033   2.784   3.475 -0.7774 -2.9799  0.7440
  551TIP3   OH223143   1.063   3.412   5.484  0.0574 -0.2591 -0.1840
  551TIP3    H123144   1.117   3.479   5.526  0.9542 -0.2566 -1.3019
  551TIP3    H223145   0.984   3.459   5.458  0.7314  0.4187 -1.0740
  552TIP3   OH223146   2.753   6.001  16.166  0.1138  0.3692 -0.2855
  552TIP3    H123147   2.791   5.941  16.102 -0.0942  1.3636 -1.3683
  552TIP3    H223148   2.820   6.067  16.181  0.2589  0.0023  0.7328
  553TIP3   OH223149   6.117   4.368   3.173  0.2430 -0.6059  0.0179
  553TIP3    H123150   6.101   4.324   3.089  0.3746  0.3336 -0.5169
  553TIP3    H223151   6.030   4.383   3.210  0.0849  0.3555 -0.6961
  554TIP3   OH223152   3.854   5.744   1.189 -0.0109  0.2362  0.1997
  554TIP3    H123153   3.897   5.754   1.104  0.2778  2.6172  0.5650
  554TIP3    H223154   3.824   5.652   1.190 -1.6991  0.5629 -3.2487
  555TIP3   OH223155   6.132   5.958  16.505  0.0687  0.3067  0.4900
  555TIP3    H123156   6.109   6.036  16.555 -1.6297 -0.3501  0.8175
  555TIP3    H223157   6.208   5.983  16.453  1.0808  1.4293  2.3992
  556TIP3   OH223158   1.242   1.467  15.723 -0.4034 -0.3421 -0.1841
  556TIP3    H123159   1.324   1.430  15.757 -0.9198 -1.5867 -0.2473
  556TIP3    H223160   1.195   1.392  15.687 -1.1915  0.4983 -0.9524
  557TIP3   OH223161   6.381   5.563  15.192 -0.2938  0.2535 -0.4735
  557TIP3    H123162   6.363   5.641  15.245 -3.3403  0.3255 -1.4432
  557TIP3    H223163   6.401   5.495  15.256 -0.9635  1.0368  0.5972
  558TIP3   OH223164   3.498   6.612   1.327  0.0570 -0.2434  0.1762
  558TIP3    H123165   3.447   6.673   1.382 -0.7144 -0.3148 -0.4361
  558TIP3    H223166   3.467   6.629   1.238  0.7119 -0.6934 -0.1457
  559TIP3   OH223167   2.044   5.892   3.594 -0.2791 -0.1818 -0.3894
  559TIP3    H123168   2.016   5.903   3.685  0.4673  0.4094 -0.2229
  559TIP3    H223169   2.075   5.979   3.568  1.6776 -0.8677 -0.4678
  560TIP3   OH223170   6.366   0.135   2.378 -0.5225  0.2034 -0.2276
  560TIP3    H123171   6.423   0.073   2.424 -0.0921  0.3309 -0.5854
  560TIP3    H223172   6.329   0.189   2.448  0.1721  0.4370 -0.0281
  561TIP3   OH223173   4.772   1.155  11.842  0.2209 -0.2171 -0.6278
  561TIP3    H123174   4.709   1.222  11.815  1.1224  0.5374 -0.9348
  561TIP3    H223175   4.763   1.150  11.937 -0.9088 -0.7611 -0.7488
  562TIP3   OH223176   0.456   1.989   5.867  0.6703 -0.2771  1.0383
  562TIP3    H123177   0.372   1.980   5.913  0.7556 -2.1446  0.9020
  562TIP3    H223178   0.519   2.008   5.936  0.4665 -1.0585  1.4580
  563TIP3   OH223179   6.628   5.650  16.835  0.5137  0.2231  0.4004
  563TIP3    H123180   6.715   5.645  16.794  0.5841 -0.5698  0.6371
  563TIP3    H223181   6.570   5.675  16.763  0.7839 -0.2508  0.0047
  564TIP3   OH223182   4.433   4.571  11.932 -0.0326  0.4097 -0.0917
  564TIP3    H123183   4.485   4.585  12.011  0.8584 -1.8705 -0.1785
  564TIP3    H223184   4.354   4.527  11.963 -1.6569  3.1241 -0.0639
  565TIP3   OH223185   2.312   5.630   2.817 -0.0497 -0.2279  0.0990
  565TIP3    H123186   2.245   5.686   2.777  0.4174 -0.8112 -1.5867
  565TIP3    H223187   2.384   5.630   2.754  0.6314 -1.4155  0.8363
  566TIP3   OH223188   4.017   1.536   5.707 -0.1085 -0.0620  0.0400
  566TIP3    H123189   4.091   1.545   5.767 -1.6861  1.6129  1.8911
  566TIP3    H223190   4.036   1.598   5.636  0.0828  0.6543  0.7038
  567TIP3   OH223191   6.080   2.061   1.427 -0.0947  0.0661 -0.8992
  567TIP3    H123192   5.988   2.085   1.418 -0.0372 -0.1948 -2.6612
  567TIP3    H223193   6.081   1.967   1.407  0.4541 -0.1261 -0.0168
  568TIP3   OH223194   4.270   1.211  12.392  0.4013  0.2883 -0.6427
  568TIP3    H123195   4.293   1.269  12.465  0.7179  0.7148 -1.0762
  568TIP3    H223196   4.212   1.145  12.431  0.3285  0.6857 -0.0687
  569TIP3   OH223197   3.896   1.280  15.889 -0.4670 -0.4594 -0.3109
  569TIP3    H123198   3.806   1.263  15.917 -2.1018  3.2012 -2.6961
  569TIP3    H223199   3.929   1.345  15.951 -0.5811  0.3843 -1.1133
  570TIP3   OH223200   6.248   1.460  11.882 -0.1585 -0.5048 -0.1333
  570TIP3    H123201   6.195   1.539  11.883  0.4264 -0.1077  0.3731
  570TIP3    H223202   6.333   1.487  11.848  1.1667 -0.1119  3.0648
  571TIP3   OH223203   4.368   5.439  15.421 -0.1567 -0.1073  0.5997
  571TIP3    H123204   4.411   5.359  15.390  0.3597  0.5182 -0.3561
  571TIP3    H223205   4.412   5.460  15.503 -0.5449 -0.9985  1.0464
  572TIP3   OH223206   5.719   3.931   2.969 -0.6926  0.2357  0.0694
  572TIP3    H123207   5.674   3.984   2.903 -0.4046  1.1880  0.6065
  572TIP3    H223208   5.749   3.995   3.034  2.0641 -0.2259 -0.6137
  573TIP3   OH223209   0.133   3.577   4.595  0.2117 -0.0385 -0.2088
  573TIP3    H123210   0.049   3.572   4.550 -0.0121 -0.2824  0.2285
  573TIP3    H223211   0.177   3.653   4.557  0.1986 -0.4803 -1.1308
  574TIP3   OH223212   3.087   6.643   3.833 -0.4946  0.7666  0.6300
  574TIP3    H123213   3.082   6.602   3.919 -1.6228  1.1127  0.7379
  574TIP3    H223214   3.088   6.569   3.772 -0.8870  0.5453  0.8900
  575TIP3   OH223215   2.111   2.607   5.532  0.1977  0.2368 -0.3439
  575TIP3    H123216   2.089   2.524   5.574  2.0786  0.1789  0.6612
  575TIP3    H223217   2.192   2.635   5.575  0.3444  1.9262 -1.5897
  576TIP3   OH223218   5.740   4.968   3.790 -0.4387 -0.1613  0.3956
  576TIP3    H123219   5.704   4.902   3.849 -0.0786 -0.7642 -0.0503
  576TIP3    H223220   5.727   5.051   3.836  0.1725 -0.6577  1.4787
  577TIP3   OH223221   4.440   1.719  16.101  0.2520 -0.0438 -0.2099
  577TIP3    H123222   4.444   1.677  16.187  0.7220 -0.3832 -0.3894
  577TIP3    H223223   4.510   1.677  16.051 -1.3245 -1.3669 -1.4373
  578TIP3   OH223224   2.518   1.129  12.934  0.2094  0.1313  0.2208
  578TIP3    H123225   2.463   1.111  12.858 -1.2046  2.3599  0.6196
  578TIP3    H223226   2.599   1.082  12.917 -0.4870 -0.3271 -2.1292
  579TIP3   OH223227   2.605   4.760   5.838  0.5022  0.4747  0.0991
  579TIP3    H123228   2.688   4.720   5.812 -0.1295  0.0746 -1.4349
  579TIP3    H223229   2.616   4.853   5.820  0.8280  0.5238  0.5254
  580TIP3   OH223230   5.715   6.397   3.597  0.2505 -0.4722 -0.1127
  580TIP3    H123231   5.731   6.366   3.686 -0.3163  0.3142  0.2803
  580TIP3    H223232   5.702   6.491   3.606 -1.1042 -0.5526 -0.8326
  581TIP3   OH223233   4.659   4.651   2.590 -0.3210 -0.0063 -0.1511
  581TIP3    H123234   4.577   4.625   2.631  0.3012 -2.0822 -0.1198
  581TIP3    H223235   4.633   4.713   2.522 -2.0821 -1.5089 -0.9381
  582TIP3   OH223236   3.692   4.504   5.335  0.2357  0.0065  0.3155
  582TIP3    H123237   3.769   4.506   5.279 -0.0232  1.3549 -0.0415
  582TIP3    H223238   3.637   4.436   5.298  1.6406 -1.6526  1.1576
  583TIP3   OH223239   2.369   1.365   5.227 -0.2363 -0.0900  0.0403
  583TIP3    H123240   2.452   1.330   5.195  0.3118 -1.1680  2.4584
  583TIP3    H223241   2.302   1.317   5.179  0.5130 -0.1491 -0.9759
  584TIP3   OH223242   6.273   6.020  14.541  0.2327 -0.3395  0.0315
  584TIP3    H123243   6.350   6.071  14.517  0.9171 -1.9264 -1.3278
  584TIP3    H223244   6.260   5.960  14.468 -0.3904 -2.2791  1.6341
  585TIP3   OH223245   3.558   5.327  10.700 -0.3738 -0.5005 -0.4593
  585TIP3    H123246   3.522   5.263  10.761  0.1860 -0.3373  0.0597
  585TIP3    H223247   3.640   5.288  10.670  0.7313  0.5837  1.0018
  586TIP3   OH223248   2.098   0.764   1.390  0.0116  0.1584 -0.5017
  586TIP3    H123249   2.103   0.740   1.482  0.5364  1.0824 -0.2803
  586TIP3    H223250   2.020   0.719   1.358  0.8239 -1.6620 -0.0745
  587TIP3   OH223251   5.448   6.182  16.937 -0.4213  0.1351  0.1094
  587TIP3    H123252   5.538   6.210  16.926 -0.1048 -1.5734 -2.3949
  587TIP3    H223253   5.396   6.261  16.920  0.5414  0.4024 -1.8731
  588TIP3   OH223254   3.786   6.479  12.166  0.3633  0.3332 -0.0724
  588TIP3    H123255   3.816   6.465  12.255  0.3316 -2.1198 -0.3775
  588TIP3    H223256   3.862   6.461  12.111 -0.1921 -0.4052 -0.6192
  589TIP3   OH223257   4.020   1.356  11.250  0.3326  0.8989 -0.0548
  589TIP3    H123258   4.108   1.357  11.290 -0.1337  0.3755  1.0346
  589TIP3    H223259   4.016   1.438  11.201  1.1298  1.3361  0.5718
  590TIP3   OH223260   1.875   3.121  11.059 -0.3252 -0.4700 -0.4230
  590TIP3    H123261   1.889   3.121  11.154  0.9950 -1.1693 -0.5962
  590TIP3    H223262   1.960   3.096  11.022 -1.0315 -0.9958 -1.7598
  591TIP3   OH223263   5.867   3.247   2.777 -0.4331  0.1243  0.0724
  591TIP3    H123264   5.841   3.173   2.832 -2.1169  1.3294  1.0047
  591TIP3    H223265   5.962   3.239   2.768 -0.5289 -1.9319  0.4105
  592TIP3   OH223266   1.255   3.283  15.612 -0.0924  0.4230  0.0662
  592TIP3    H123267   1.171   3.265  15.654  0.4223 -1.4505  0.3582
  592TIP3    H223268   1.320   3.250  15.673  0.7847  0.0819 -1.0230
  593TIP3   OH223269   4.615   0.598  15.130 -0.0640  0.9045 -0.2812
  593TIP3    H123270   4.595   0.571  15.220 -0.1113 -0.3451 -0.6378
  593TIP3    H223271   4.680   0.668  15.140  3.5692 -2.2346  0.7570
  594TIP3   OH223272   3.803   5.625  15.384  0.2199  0.3881  0.6283
  594TIP3    H123273   3.870   5.580  15.332 -0.1905  0.6702 -0.1625
  594TIP3    H223274   3.835   5.715  15.392 -0.6113  0.8436 -0.7884
  595TIP3   OH223275   1.492   5.916  15.384  0.0496  0.1861  0.4069
  595TIP3    H123276   1.518   5.854  15.316  0.9195  1.5389 -0.5404
  595TIP3    H223277   1.396   5.914  15.383  0.0542 -1.2869  0.5701
  596TIP3   OH223278   1.005   5.941  12.145 -0.2868  0.3956  0.0530
  596TIP3    H123279   0.950   6.019  12.150  0.4683  0.8894  1.1616
  596TIP3    H223280   1.094   5.976  12.141  0.0347 -0.4018  0.1954
  597TIP3   OH223281   2.398   2.422  15.755  0.5608  0.0604 -0.1876
  597TIP3    H123282   2.478   2.408  15.703  0.1581 -1.3871 -0.4599
  597TIP3    H223283   2.344   2.345  15.736 -1.0729  1.2138 -0.2997
  598TIP3   OH223284   4.982   2.830  12.510  0.0493  0.6715 -0.1110
  598TIP3    H123285   4.896   2.825  12.467 -0.1230 -0.5102  0.3304
  598TIP3    H223286   5.042   2.789  12.448  0.2734  1.2952 -0.3204
  599TIP3   OH223287   3.191   6.501   3.587  0.3202  0.7249 -0.4587
  599TIP3    H123288   3.202   6.485   3.493  0.1628 -0.8256 -0.2321
  599TIP3    H223289   3.138   6.428   3.618  1.1098  0.7398  1.0069
  600TIP3   OH223290   4.846   0.315  13.949 -0.0804  0.1290  0.2931
  600TIP3    H123291   4.911   0.343  13.885 -0.3372  0.2244  0.0737
  600TIP3    H223292   4.794   0.249  13.904  0.4745 -0.6770  0.7812
  601TIP3   OH223293   0.133   2.795   1.739 -0.2275 -0.3888  0.4586
  601TIP3    H123294   0.153   2.812   1.647 -0.3960  0.5911  0.5928
  601TIP3    H223295   0.217   2.770   1.777 -0.3856 -2.0516 -0.2189
  602TIP3   OH223296   6.251   6.302  16.374  0.2755 -0.5166  0.2221
  602TIP3    H123297   6.285   6.304  16.285  0.3457  1.8073  0.2313
  602TIP3    H223298   6.158   6.325  16.365  0.0381 -1.2716  0.6684
  603TIP3   OH223299   4.115   6.353   3.209  0.3332  0.2716 -0.4169
  603TIP3    H123300   4.112   6.270   3.162  0.8878 -0.8341  1.4132
  603TIP3    H223301   4.039   6.351   3.267  0.1563  1.2216 -0.5870
  604TIP3   OH223302   1.701   2.155   1.324  0.3438 -0.3934 -0.6196
  604TIP3    H123303   1.619   2.181   1.365 -0.3461 -1.3896 -1.3206
  604TIP3    H223304   1.678   2.080   1.269  1.4564  0.1625 -1.9032
  605TIP3   OH223305   2.424   5.511  15.386 -0.3262  0.6010  0.3290
  605TIP3    H123306   2.514   5.482  15.373 -0.7309  0.6333 -3.9284
  605TIP3    H223307   2.375   5.430  15.404  0.1292  0.1175 -0.5518
  606TIP3   OH223308   2.142   1.250   4.851 -0.2526  0.0832  0.1730
  606TIP3    H123309   2.146   1.154   4.848  0.6512  0.1310 -0.5270
  606TIP3    H223310   2.049   1.270   4.843 -0.5934 -0.7577  1.5523
  607TIP3   OH223311   6.706   1.754  14.464 -0.0720  0.4330 -0.0747
  607TIP3    H123312   6.649   1.797  14.528 -0.3906  0.9645 -0.7039
  607TIP3    H223313   6.795   1.776  14.493 -0.1391 -0.8697  1.2352
  608TIP3   OH223314   0.612   3.336  14.812  0.1738 -0.6546  0.4824
  608TIP3    H123315   0.568   3.379  14.739  0.9486 -2.5417 -1.1743
  608TIP3    H223316   0.652   3.408  14.861  2.7890  0.6010 -3.0748
  609TIP3   OH223317   5.649   5.226   1.646 -0.3320  0.0386 -0.0682
  609TIP3    H123318   5.683   5.305   1.689  0.8324 -0.1364 -0.6469
  609TIP3    H223319   5.674   5.155   1.705 -0.3984 -0.0114 -0.1012
  610TIP3   OH223320   5.195   5.272  12.562  0.3151 -0.1994  0.2200
  610TIP3    H123321   5.278   5.279  12.608  1.2259 -2.5229 -0.8672
  610TIP3    H223322   5.213   5.307  12.475  0.5694 -1.7155 -0.3847
  611TIP3   OH223323   1.569   3.609  11.469 -0.0640  0.3810 -0.1904
  611TIP3    H123324   1.555   3.596  11.375 -1.5491 -1.2379  0.2136
  611TIP3    H223325   1.663   3.593  11.481  0.0501  0.1181 -1.3264
  612TIP3   OH223326   1.875   6.144   1.285 -0.0234  0.1961  0.0896
  612TIP3    H123327   1.864   6.082   1.213  0.7039 -0.0406  0.1753
  612TIP3    H223328   1.892   6.090   1.362 -1.1378  0.4348  0.5195
  613TIP3   OH223329   5.189   0.974  15.958 -0.1105 -0.5467 -0.2632
  613TIP3    H123330   5.100   0.942  15.966 -0.1373 -0.1024  2.1197
  613TIP3    H223331   5.244   0.898  15.977 -0.0485 -0.4265  0.0552
  614TIP3   OH223332   1.025   2.286  12.381 -0.2518  0.0801  0.0664
  614TIP3    H123333   1.013   2.353  12.315 -1.7966  1.4327  1.6267
  614TIP3    H223334   1.070   2.331  12.453 -1.2291 -0.5443  1.1067
  615TIP3   OH223335   0.999   3.918   2.260  0.5966 -0.3161 -0.3625
  615TIP3    H123336   1.029   3.992   2.312  0.2089 -1.2941  1.3541
  615TIP3    H223337   1.078   3.885   2.217  0.7310  1.1918 -1.3389
  616TIP3   OH223338   2.954   5.223   1.804  0.3209  0.4609  0.1815
  616TIP3    H123339   3.012   5.230   1.728  0.6589 -0.3911  0.3552
  616TIP3    H223340   2.999   5.163   1.864 -1.2885 -1.2134 -0.1992
  617TIP3   OH223341   5.658   2.442  12.005 -0.1333 -0.8570 -0.1777
  617TIP3    H123342   5.689   2.526  11.971  1.9685 -2.2160 -1.9548
  617TIP3    H223343   5.716   2.422  12.078  1.7991 -2.2628 -1.9574
  618TIP3   OH223344   4.826   3.215   0.445 -0.2822  0.3426 -0.6638
  618TIP3    H123345   4.776   3.133   0.446  1.5045 -0.7956 -1.0264
  618TIP3    H223346   4.889   3.206   0.516  0.2995  1.1624 -1.0568
  619TIP3   OH223347   0.025   3.934   1.623 -0.0957 -0.3171 -0.0901
  619TIP3    H123348   0.067   3.965   1.703  1.7460 -0.9124 -0.7658
  619TIP3    H223349   0.078   3.970   1.552  1.1947 -3.4919 -0.9414
  620TIP3   OH223350   6.223   3.494   0.100 -0.0458  0.6657  0.2176
  620TIP3    H123351   6.134   3.501   0.133  0.7682  1.4983  2.4933
  620TIP3    H223352   6.243   3.400   0.102 -0.4743  0.5840  0.9116
  621TIP3   OH223353   4.652   6.407   0.816  0.3904 -0.0432  0.4192
  621TIP3    H123354   4.664   6.331   0.874 -0.6944 -1.6282 -1.3103
  621TIP3    H223355   4.573   6.386   0.766 -0.6005  2.7759  0.6378
  622TIP3   OH223356   1.334   4.432  10.665 -0.0332 -0.3847 -0.1832
  622TIP3    H123357   1.384   4.364  10.619 -2.3335 -2.1917 -0.2190
  622TIP3    H223358   1.373   4.436  10.752  0.0050 -1.9571 -0.0992
  623TIP3   OH223359   1.117   6.759   0.368 -0.2844 -0.0674  0.1788
  623TIP3    H123360   1.047   6.764   0.302 -1.7299 -0.7047  1.6012
  623TIP3    H223361   1.080   6.802   0.445  1.6328  1.2690  0.4080
  624TIP3   OH223362   1.292   2.635   3.222 -0.5064  0.3084 -0.0659
  624TIP3    H123363   1.295   2.710   3.280  1.9843 -0.3473  0.7559
  624TIP3    H223364   1.221   2.581   3.257 -0.8550  1.2136  0.6749
  625TIP3   OH223365   3.196   0.093  14.063 -0.2422  0.2035  0.1029
  625TIP3    H123366   3.214   0.142  14.143 -0.5347  0.6490 -0.1029
  625TIP3    H223367   3.207   0.001  14.089  2.1981  0.4151  0.0227
  626TIP3   OH223368   2.560   1.008  12.421 -0.4854 -0.1929 -0.4237
  626TIP3    H123369   2.512   1.040  12.345 -1.1107  0.4803  0.2368
  626TIP3    H223370   2.637   0.965  12.384 -0.3941  0.7630 -1.4136
  627TIP3   OH223371   1.201   2.173   4.381 -0.1847  0.5231 -0.3353
  627TIP3    H123372   1.137   2.144   4.317 -3.2499  1.9830  1.7883
  627TIP3    H223373   1.205   2.268   4.370 -1.6897  0.9775  2.2301
  628TIP3   OH223374   1.282   0.727  12.140  0.4634  0.1829 -0.7724
  628TIP3    H123375   1.316   0.784  12.071  0.1913  1.3427  0.0220
  628TIP3    H223376   1.209   0.680  12.098  1.5451 -0.6088 -1.8185
  629TIP3   OH223377   2.993   3.800   4.740  0.2979 -0.4481  0.1074
  629TIP3    H123378   2.965   3.844   4.820 -0.2275 -0.3447 -0.1294
  629TIP3    H223379   2.914   3.796   4.686  1.1006  1.4609 -1.3387
  630TIP3   OH223380   2.825   3.897   0.051 -0.6645  0.2963 -0.1084
  630TIP3    H123381   2.842   3.892   0.145  0.3924 -2.6601 -0.3395
  630TIP3    H223382   2.822   3.991   0.032  1.4603  1.0087  2.4771
  631TIP3   OH223383   6.092   1.217   4.168 -0.0705  0.7003  0.4514
  631TIP3    H123384   6.083   1.164   4.088 -0.9263  1.0961  0.2835
  631TIP3    H223385   6.084   1.153   4.239  0.2675  0.4097  0.2379
  632TIP3   OH223386   5.321   5.694   0.059 -1.0828 -0.5425 -0.6534
  632TIP3    H123387   5.326   5.604   0.027 -0.5700 -0.4729 -0.7806
  632TIP3    H223388   5.410   5.728   0.048 -1.2468 -0.0578 -0.4968
  633TIP3   OH223389   3.641   2.159   4.430 -0.0557  0.0068  0.1458
  633TIP3    H123390   3.647   2.079   4.482 -0.6211 -1.1249 -1.4565
  633TIP3    H223391   3.730   2.193   4.428  0.6268 -1.6832 -0.7536
  634TIP3   OH223392   0.849   0.411  17.090 -0.0231 -0.2187  0.2630
  634TIP3    H123393   0.779   0.402  17.026  0.9173 -0.6124 -0.7319
  634TIP3    H223394   0.923   0.363  17.053  1.2523  1.3942  0.5978
  635TIP3   OH223395   1.331   2.179  11.212  0.0899 -0.2471  0.0212
  635TIP3    H123396   1.295   2.101  11.253 -0.2138  0.3734  0.9583
  635TIP3    H223397   1.400   2.146  11.155  0.6828 -1.1209  1.2020
  636TIP3   OH223398   2.818   2.936  11.392  0.3039  0.2550 -0.1791
  636TIP3    H123399   2.907   2.926  11.426 -0.1079 -2.0336  0.3547
  636TIP3    H223400   2.792   3.024  11.420  2.9391  1.6832 -1.7877
  637TIP3   OH223401   5.622   1.422   1.772 -0.0466  0.5071 -0.3872
  637TIP3    H123402   5.557   1.423   1.701  0.3918  1.2831 -0.7956
  637TIP3    H223403   5.702   1.454   1.731  0.5534 -0.2347  0.1636
  638TIP3   OH223404   6.412   2.720   3.126  0.0904 -0.1668 -0.4634
  638TIP3    H123405   6.458   2.727   3.209 -0.9208 -1.8957  0.3008
  638TIP3    H223406   6.454   2.647   3.081 -0.1415 -0.0093 -0.9418
  639TIP3   OH223407   0.482   5.625  14.919  0.8522 -0.1316  0.3145
  639TIP3    H123408   0.411   5.565  14.941  1.0364  0.3437  2.4484
  639TIP3    H223409   0.543   5.572  14.868 -0.3289 -0.9476 -0.3067
  640TIP3   OH223410   5.951   1.038  15.993 -0.1425  0.3901 -0.0763
  640TIP3    H123411   6.019   1.012  15.932 -1.2956  0.6802 -1.5523
  640TIP3    H223412   5.985   1.015  16.079 -0.0484 -3.7096 -1.0414
  641TIP3   OH223413   2.935   4.754  16.566  0.1562  0.0479  0.8762
  641TIP3    H123414   2.886   4.791  16.492  0.8342 -0.2951  0.2425
  641TIP3    H223415   2.967   4.831  16.614  1.9570  0.3722 -0.6941
  642TIP3   OH223416   3.321   0.972  14.248 -0.5067  0.3116  0.5038
  642TIP3    H123417   3.408   0.949  14.280 -0.2892  0.9962  0.4322
  642TIP3    H223418   3.299   1.052  14.295 -1.2515 -0.0500  0.7803
  643TIP3   OH223419   0.396   4.471  10.854 -0.2209  0.2791  0.2779
  643TIP3    H123420   0.393   4.530  10.779  1.4658  0.2069  0.1138
  643TIP3    H223421   0.435   4.523  10.924 -0.2396 -0.1510  0.6103
  644TIP3   OH223422   2.139   6.389  16.182 -0.1516 -0.1277 -0.0419
  644TIP3    H123423   2.086   6.457  16.225 -2.3711 -2.5122  1.2694
  644TIP3    H223424   2.205   6.366  16.247 -1.6209 -1.6207  0.9838
  645TIP3   OH223425   3.911   1.845   3.855  0.1274 -0.3681  0.4955
  645TIP3    H123426   3.848   1.842   3.783 -0.0942 -0.6302  0.6958
  645TIP3    H223427   3.862   1.886   3.927  0.3443 -0.1152  0.5004
  646TIP3   OH223428   0.015   6.531  11.764 -0.3625  1.1145  0.0564
  646TIP3    H123429   0.101   6.487  11.767 -2.0719 -2.5270  1.3748
  646TIP3    H223430  -0.000   6.559  11.854 -0.9940  0.7141  0.0803
  647TIP3   OH223431   5.533   5.580   3.748 -0.0495  0.3437  0.1570
  647TIP3    H123432   5.596   5.615   3.812  0.4856  0.9754 -0.6921
  647TIP3    H223433   5.587   5.544   3.678 -0.6029  1.6940 -1.0177
  648TIP3   OH223434   0.107   4.611  16.880  0.0192  0.3268 -0.3172
  648TIP3    H123435   0.194   4.579  16.856  0.2135  0.9426 -0.4449
  648TIP3    H223436   0.107   4.703  16.854 -0.6753  0.3278 -0.3230
  649TIP3   OH223437   0.996   5.370  14.864  0.3042 -0.1896  0.2799
  649TIP3    H123438   0.991   5.283  14.904  0.8030 -0.2441  0.2327
  649TIP3    H223439   1.049   5.357  14.786 -1.0933 -0.1902 -0.7023
  650TIP3   OH223440   4.343   5.656   1.230 -0.4339  0.2214 -0.6607
  650TIP3    H123441   4.273   5.722   1.235  0.7244  1.5045 -0.7432
  650TIP3    H223442   4.395   5.670   1.309  1.0309  0.8323 -1.7050
  651TIP3   OH223443   3.695   5.589   6.680 -0.2023  0.4098  0.2464
  651TIP3    H123444   3.625   5.585   6.745 -1.2696  0.0901 -0.8862
  651TIP3    H223445   3.665   5.654   6.617 -0.5355 -1.2503 -1.4064
  652TIP3   OH223446   3.982   5.525   3.231 -0.0355 -0.2184  0.4823
  652TIP3    H123447   4.012   5.496   3.318  0.5301 -1.8966 -0.2278
  652TIP3    H223448   4.056   5.574   3.195 -0.0458 -0.0397  0.7030
  653TIP3   OH223449   4.679   2.083   5.333 -0.1649  0.0065 -0.5879
  653TIP3    H123450   4.755   2.093   5.390 -1.1930  0.5349  0.7772
  653TIP3    H223451   4.648   1.994   5.349 -1.5722  0.7611  1.2277
  654TIP3   OH223452   6.604   5.883   4.851  0.3223  0.1776  0.4054
  654TIP3    H123453   6.628   5.793   4.874  1.1319  0.7520  1.9332
  654TIP3    H223454   6.521   5.898   4.897  0.3008  0.2875  0.3321
  655TIP3   OH223455   6.805   4.456  12.818 -0.0190  0.5312  0.4792
  655TIP3    H123456   6.820   4.372  12.861  1.2066 -0.5908 -1.9524
  655TIP3    H223457   6.718   4.448  12.778  1.5214 -1.1661 -2.8755
  656TIP3   OH223458   6.247   4.626   4.577 -0.3397 -0.0578 -0.0019
  656TIP3    H123459   6.159   4.592   4.560 -0.8654  0.9266  0.6214
  656TIP3    H223460   6.268   4.597   4.665  0.9594 -2.2438 -0.9457
  657TIP3   OH223461   0.016   5.389   0.243 -0.2017  0.1511  0.2254
  657TIP3    H123462   0.104   5.367   0.271 -0.9478 -0.8778  1.8991
  657TIP3    H223463   0.009   5.353   0.155  1.0435  0.3092  0.0377
  658TIP3   OH223464   2.362   6.649  14.891  0.3712  0.0086 -0.2747
  658TIP3    H123465   2.348   6.739  14.861  0.7553 -0.3003 -1.4431
  658TIP3    H223466   2.457   6.640  14.898  0.3731 -0.5468 -0.9552
  659TIP3   OH223467   0.314   2.490  12.589 -0.9473  0.5675  0.4123
  659TIP3    H123468   0.276   2.509  12.503 -1.0780  0.2754  0.4035
  659TIP3    H223469   0.390   2.435  12.570 -1.7097 -0.5752  0.5546
  660TIP3   OH223470   3.720   3.407  15.692  0.2040 -0.2065  0.2502
  660TIP3    H123471   3.655   3.474  15.671  1.0185 -0.4341 -3.7881
  660TIP3    H223472   3.773   3.445  15.762 -1.2997  1.9768  0.2833
  661TIP3   OH223473   0.517   4.754  11.870  0.0785 -0.4771  0.0395
  661TIP3    H123474   0.488   4.663  11.864 -0.7633 -0.2163 -0.0741
  661TIP3    H223475   0.473   4.788  11.949 -1.2770  0.3825 -1.0230
  662TIP3   OH223476   6.601   6.216   5.266 -0.1238  0.1394  0.7536
  662TIP3    H123477   6.570   6.243   5.353 -1.4072 -2.1839  1.1134
  662TIP3    H223478   6.524   6.226   5.210  0.1272 -0.2531  0.3386
  663TIP3   OH223479   3.494   5.878   6.160 -0.0864  0.6180 -0.1396
  663TIP3    H123480   3.478   5.930   6.239 -0.2419  1.6281 -0.8165
  663TIP3    H223481   3.495   5.788   6.191 -1.5094  0.8939  0.8154
  664TIP3   OH223482   0.377   6.540  13.634  0.4632 -0.0652  0.3210
  664TIP3    H123483   0.407   6.520  13.545 -1.6536 -0.5817 -0.3444
  664TIP3    H223484   0.399   6.632  13.647  2.5372 -0.4861  0.0355
  665TIP3   OH223485   3.994   6.701  13.075 -0.4365  0.2180  0.1356
  665TIP3    H123486   4.035   6.760  13.138  0.7300  0.1591 -0.5340
  665TIP3    H223487   4.041   6.618  13.085 -0.3006  0.1807 -0.7321
  666TIP3   OH223488   5.637   2.763   0.090  0.2715  0.1046  0.0174
  666TIP3    H123489   5.548   2.795   0.100  0.6034  1.1718 -0.2876
  666TIP3    H223490   5.642   2.733  -0.001  0.6072  1.3660 -0.4041
  667TIP3   OH223491   0.683   0.053  16.403  1.0061 -0.2065  0.5558
  667TIP3    H123492   0.709   0.035  16.493 -1.3902 -1.0569  1.1656
  667TIP3    H223493   0.589   0.035  16.402  0.7595  0.9032 -1.8509
  668TIP3   OH223494   5.559   6.789  15.745  0.5954 -0.3347 -0.1361
  668TIP3    H123495   5.594   6.779  15.833 -0.9303  0.2741  0.5840
  668TIP3    H223496   5.486   6.851  15.755 -0.5615 -1.3960 -1.5505
  669TIP3   OH223497   6.507   2.339  11.561  0.2576  0.5178 -0.2292
  669TIP3    H123498   6.477   2.426  11.535 -0.3140  0.4899  0.3016
  669TIP3    H223499   6.532   2.297  11.479  0.2984  1.0923 -0.5189
  670TIP3   OH223500   6.019   6.560   0.743  0.0515 -0.5394  0.4341
  670TIP3    H123501   6.107   6.596   0.749 -0.5608  1.0888  0.1630
  670TIP3    H223502   5.987   6.560   0.833  0.5980 -1.9262  0.6535
  671TIP3   OH223503   2.217   2.591  15.873 -0.0631  0.1692  0.0464
  671TIP3    H123504   2.242   2.681  15.850 -0.2061  0.1427 -0.2191
  671TIP3    H223505   2.274   2.536  15.820 -1.2387  0.1096 -1.2033
  672TIP3   OH223506   1.117   6.020   1.225  0.7307 -0.4264  0.1062
  672TIP3    H123507   1.097   5.929   1.243 -0.6435 -0.5214 -1.6431
  672TIP3    H223508   1.112   6.028   1.130 -1.3589  1.9195  0.3083
  673TIP3   OH223509   6.762   4.368  11.273 -0.2075  0.4114  0.1884
  673TIP3    H123510   6.704   4.410  11.210  1.0378  1.3620 -0.3603
  673TIP3    H223511   6.849   4.403  11.254  0.8739 -2.1501 -0.0819
  674TIP3   OH223512   5.614   5.553   0.133  0.0226  0.1731  0.2864
  674TIP3    H123513   5.627   5.584   0.043  0.0542  0.8375  0.5168
  674TIP3    H223514   5.668   5.474   0.139 -0.1881 -0.0240 -0.3578
  675TIP3   OH223515   0.472   1.568   4.850  0.0086  0.0385  0.1626
  675TIP3    H123516   0.414   1.631   4.807  0.2191 -1.1951 -2.0690
  675TIP3    H223517   0.560   1.597   4.828  0.1898  0.2473  1.0974
  676TIP3   OH223518   1.467   2.559  14.016  0.1045 -0.2317  0.1892
  676TIP3    H123519   1.448   2.617  14.090 -0.4905 -0.0677 -0.0873
  676TIP3    H223520   1.540   2.505  14.046  1.3158  1.2962  0.0977
  677TIP3   OH223521   0.897   3.356   1.088  0.5262 -0.2176  0.3522
  677TIP3    H123522   0.965   3.304   1.131 -0.2832 -2.0965 -0.5542
  677TIP3    H223523   0.862   3.411   1.159  1.6354 -0.6356  1.2670
  678TIP3   OH223524   3.463   4.804   4.367  0.9943 -0.1654 -0.4536
  678TIP3    H123525   3.380   4.851   4.359  1.7952  1.5805  0.9209
  678TIP3    H223526   3.440   4.721   4.409  0.1853  1.2686  2.1083
  679TIP3   OH223527   5.600   1.002  15.591  0.5932  0.1227 -0.0738
  679TIP3    H123528   5.514   0.972  15.618  0.4489  1.0580  0.5767
  679TIP3    H223529   5.656   0.985  15.667  0.8766 -0.0282 -0.3134
  680TIP3   OH223530   5.794   6.068  16.494  0.2130 -0.6718  0.2436
  680TIP3    H123531   5.874   6.094  16.450  0.7655 -3.9588 -1.0007
  680TIP3    H223532   5.810   6.086  16.587  0.9608  1.8712 -0.3185
  681TIP3   OH223533   0.207   6.110  10.985 -0.6076 -0.0631 -0.0823
  681TIP3    H123534   0.250   6.163  10.919 -2.2281  1.8878  0.3037
  681TIP3    H223535   0.127   6.078  10.942 -0.2063 -1.2816  0.0450
  682TIP3   OH223536   2.124   4.520   3.896  0.1085 -0.5380 -0.2096
  682TIP3    H123537   2.192   4.583   3.922  1.2372 -0.2822 -3.3472
  682TIP3    H223538   2.170   4.437   3.889  0.0548 -0.4464 -1.9624
  683TIP3   OH223539   3.028   3.298  11.621  0.1243  0.2075 -0.1097
  683TIP3    H123540   3.072   3.222  11.660  1.9950  1.3677  0.1472
  683TIP3    H223541   2.983   3.340  11.694  2.7698  1.7921  0.7565
  684TIP3   OH223542   0.024   0.261  13.806  0.2557  0.2919 -0.2306
  684TIP3    H123543   0.065   0.211  13.877 -0.0097 -1.2179 -1.1061
  684TIP3    H223544   0.022   0.201  13.732 -0.3024  1.5353 -1.2695
  685TIP3   OH223545   5.054   1.030   2.764 -0.4614  0.4178 -1.3436
  685TIP3    H123546   4.975   1.063   2.723 -1.0745 -0.0817 -0.5889
  685TIP3    H223547   5.030   0.944   2.798  0.1587  0.6062 -0.3759
  686TIP3   OH223548   2.572   5.060   3.416 -0.1247  0.0628  0.4021
  686TIP3    H123549   2.644   5.029   3.361  1.1299  1.8283  0.9432
  686TIP3    H223550   2.580   5.156   3.414  0.9305  0.2798  4.6863
  687TIP3   OH223551   4.939   4.376  16.231  0.6284  0.6472  0.0796
  687TIP3    H123552   4.919   4.399  16.140  1.2094  1.8328  0.2316
  687TIP3    H223553   4.914   4.454  16.281  2.7704  1.0591  0.6059
  688TIP3   OH223554   6.621   5.373  16.638 -0.2838 -0.6753  0.2875
  688TIP3    H123555   6.535   5.413  16.648 -1.2951 -2.1567 -1.7185
  688TIP3    H223556   6.682   5.446  16.643 -1.4473  0.2459  3.2802
  689TIP3   OH223557   5.225   0.332   4.413 -0.5242  0.0479 -0.4254
  689TIP3    H123558   5.136   0.357   4.389 -0.9385 -0.3239  0.6426
  689TIP3    H223559   5.245   0.256   4.359 -0.9918 -0.0861 -0.4122
  690TIP3   OH223560   3.238   5.825  15.503  0.5541 -0.1900 -0.6654
  690TIP3    H123561   3.170   5.891  15.517  1.6535  0.6911  0.7358
  690TIP3    H223562   3.217   5.755  15.565 -0.6053 -1.2046 -2.1432
  691TIP3   OH223563   2.686   0.448   0.124 -0.4465  0.2506 -0.2323
  691TIP3    H123564   2.693   0.415   0.214 -0.7388 -0.3266 -0.4128
  691TIP3    H223565   2.751   0.397   0.075 -0.6683  0.1732 -0.4503
  692TIP3   OH223566   5.353   5.176   2.254  0.2659  0.2417  0.3054
  692TIP3    H123567   5.440   5.156   2.220  0.4231  1.4028 -0.0127
  692TIP3    H223568   5.321   5.247   2.198 -0.6597  0.2003  0.7639
  693TIP3   OH223569   5.876   0.999  11.274 -0.2330 -0.6853 -0.7759
  693TIP3    H123570   5.854   0.914  11.237 -0.4623 -0.9702 -0.0166
  693TIP3    H223571   5.971   0.997  11.287 -0.3961 -1.3524  0.4651
  694TIP3   OH223572   0.673   0.582  12.708 -0.2687  0.0537  0.2898
  694TIP3    H123573   0.628   0.660  12.739  0.3694  0.8626 -0.7114
  694TIP3    H223574   0.694   0.533  12.787 -2.5384 -0.1836  0.8049
  695TIP3   OH223575   1.897   1.388  14.109  0.2717  0.5721 -0.1969
  695TIP3    H123576   1.891   1.328  14.035  1.3078  0.5602 -0.2934
  695TIP3    H223577   1.976   1.438  14.092  0.0515  1.1551  0.4791
  696TIP3   OH223578   1.732   0.874   2.129  0.6535 -0.2077  0.0008
  696TIP3    H123579   1.755   0.960   2.164  2.0805 -0.5830  0.0377
  696TIP3    H223580   1.637   0.868   2.140  0.5469  1.3133  0.0830
  697TIP3   OH223581   0.773   3.225   0.254  0.1113  0.4946  0.1142
  697TIP3    H123582   0.776   3.272   0.171  1.2342 -0.5008 -0.4343
  697TIP3    H223583   0.679   3.209   0.269 -0.0109 -1.4027 -2.2119
  698TIP3   OH223584   3.504   6.146  12.664 -0.1525 -0.3060 -0.0068
  698TIP3    H123585   3.534   6.214  12.725  0.3114  0.5770 -1.1745
  698TIP3    H223586   3.421   6.179  12.631 -1.3806 -1.6922  1.5369
  699TIP3   OH223587   5.068   0.844   3.210 -0.1218 -0.1648  0.6097
  699TIP3    H123588   5.162   0.832   3.222  0.2455  1.1038 -0.7669
  699TIP3    H223589   5.039   0.890   3.289 -0.0204 -2.3073  1.9929
  700TIP3   OH223590   5.373   5.771   2.698 -0.1626  0.2177  0.1762
  700TIP3    H123591   5.378   5.681   2.667 -1.4990  0.8561 -2.0882
  700TIP3    H223592   5.301   5.771   2.761 -0.6633 -0.1618 -0.3871
  701TIP3   OH223593   0.293   0.880  10.983 -0.0262 -0.1152  0.5249
  701TIP3    H123594   0.274   0.829  10.904 -1.5505  0.7554  0.2850
  701TIP3    H223595   0.387   0.868  10.998 -0.1654 -2.2206 -0.0315
  702TIP3   OH223596   1.771   4.313  12.500  0.2707 -0.2015  0.2815
  702TIP3    H123597   1.732   4.284  12.418  2.0228 -0.1319 -0.6165
  702TIP3    H223598   1.769   4.409  12.494  1.9679 -0.1945 -0.4861
  703TIP3   OH223599   2.202   2.896   3.110  0.0906 -0.4313 -0.2312
  703TIP3    H123600   2.246   2.823   3.066  1.7710  0.1768  0.3885
  703TIP3    H223601   2.231   2.974   3.062  0.2253  0.0386  0.5956
  704TIP3   OH223602   0.222   6.804   4.525 -0.4235  0.4218 -0.0573
  704TIP3    H123603   0.264   6.868   4.582 -0.2381  0.6022 -0.3895
  704TIP3    H223604   0.295   6.759   4.481 -0.5545  0.0033  0.1540
  705TIP3   OH223605   4.708   2.606   3.628  0.5188  0.1292 -0.3106
  705TIP3    H123606   4.678   2.552   3.555  1.3981 -2.2284  0.9560
  705TIP3    H223607   4.790   2.645   3.596 -0.5661  1.5241 -1.5483
  706TIP3   OH223608   0.883   6.358   1.777  0.2548 -0.2491 -1.0294
  706TIP3    H123609   0.804   6.380   1.729 -0.6940 -1.4349 -0.0811
  706TIP3    H223610   0.896   6.431   1.837 -0.4596 -0.2969 -0.8064
  707TIP3   OH223611   1.222   1.957  14.759  0.3751  0.1910 -0.3432
  707TIP3    H123612   1.298   1.914  14.719  0.6109  0.0595  0.2456
  707TIP3    H223613   1.148   1.924  14.708  0.5675 -0.8033 -0.0055
  708TIP3   OH223614   3.049   5.780  14.118  0.1922  0.8152  0.3195
  708TIP3    H123615   3.048   5.867  14.159 -1.6145  1.7932 -1.6220
  708TIP3    H223616   2.966   5.741  14.144  0.5258  0.0853  0.3049
  709TIP3   OH223617   6.542   6.083  14.126  0.2353 -0.2261  1.1459
  709TIP3    H123618   6.508   6.125  14.047  2.4381 -1.2710 -0.4917
  709TIP3    H223619   6.551   6.154  14.190  0.1822  1.0361 -0.2149
  710TIP3   OH223620   3.166   0.271  16.222 -0.0429  0.2455 -0.1814
  710TIP3    H123621   3.088   0.276  16.278  0.9789  0.5900  1.2727
  710TIP3    H223622   3.231   0.226  16.276  1.2248  1.2830 -0.7961
  711TIP3   OH223623   2.766   2.975  15.889 -0.2574 -0.3017  0.5205
  711TIP3    H123624   2.850   2.988  15.932 -0.0039 -1.3550  0.3728
  711TIP3    H223625   2.702   2.977  15.961 -0.0809  0.1873  0.6681
  712TIP3   OH223626   2.075   4.676  10.727  0.5039  0.3849 -0.1809
  712TIP3    H123627   2.158   4.635  10.752 -0.1899 -0.7933  0.2684
  712TIP3    H223628   2.013   4.650  10.796  0.0001  2.1397  0.0751
  713TIP3   OH223629   6.460   4.188  14.684 -0.0828 -0.0592 -0.2071
  713TIP3    H123630   6.380   4.135  14.687 -0.0709 -0.0995 -0.6197
  713TIP3    H223631   6.524   4.138  14.735  0.1389 -0.7983 -1.1759
  714TIP3   OH223632   3.308   2.601  12.664 -0.2037 -0.1326  0.2789
  714TIP3    H123633   3.388   2.615  12.714  0.4795  0.6202 -0.9686
  714TIP3    H223634   3.238   2.603  12.729  0.5344  1.9877  1.0908
  715TIP3   OH223635   1.737   5.643  13.099 -0.0259  0.1182 -0.4662
  715TIP3    H123636   1.745   5.727  13.053 -0.5042 -0.0478 -0.8532
  715TIP3    H223637   1.810   5.643  13.161  0.0733  0.7489 -0.5779
  716TIP3   OH223638   5.016   1.045  15.528  0.0009  0.2627  0.4091
  716TIP3    H123639   5.085   0.978  15.523  0.3498  0.6052  0.6305
  716TIP3    H223640   5.024   1.082  15.616 -0.8501 -0.0957  0.6529
  717TIP3   OH223641   6.737   4.530  10.258 -0.0030  0.4403 -0.7122
  717TIP3    H123642   6.654   4.485  10.242  0.0460  0.4550 -1.0108
  717TIP3    H223643   6.722   4.619  10.228 -0.3579  0.8490  0.6225
  718TIP3   OH223644   4.785   2.192   3.971  0.2146  0.0369 -0.1503
  718TIP3    H123645   4.692   2.206   3.990 -0.5015 -1.8154 -1.9050
  718TIP3    H223646   4.802   2.245   3.893 -0.0122 -1.3864 -1.1927
  719TIP3   OH223647   4.188   0.130  16.398 -0.1345 -0.0291 -0.4115
  719TIP3    H123648   4.118   0.070  16.371  0.8991 -0.7722 -1.5762
  719TIP3    H223649   4.200   0.112  16.491  0.0462 -1.5713 -0.6999
  720TIP3   OH223650   1.706   0.749  15.805  0.5685 -0.3077 -0.2946
  720TIP3    H123651   1.694   0.838  15.836  1.6477 -0.2193 -0.1131
  720TIP3    H223652   1.736   0.759  15.714 -2.1113 -0.5549 -1.3088
  721TIP3   OH223653   0.895   5.317   3.076 -0.0329 -0.2974 -0.2462
  721TIP3    H123654   0.972   5.371   3.096  0.3216 -0.6853 -0.5360
  721TIP3    H223655   0.828   5.380   3.049  0.5671 -0.0349 -1.1893
  722TIP3   OH223656   3.617   6.145   0.501  0.5325  0.6303 -0.1966
  722TIP3    H123657   3.622   6.061   0.547  0.7815  0.7580  0.0071
  722TIP3    H223658   3.547   6.192   0.546 -0.9534 -0.2032 -1.5132
  723TIP3   OH223659   4.812   1.631  11.739 -0.1920  0.7132 -0.1343
  723TIP3    H123660   4.719   1.608  11.735 -0.1278  0.6778 -2.3041
  723TIP3    H223661   4.818   1.714  11.693  1.0084  0.1809 -0.9688
  724TIP3   OH223662   6.557   4.012   5.817 -0.6879 -0.1504  0.4038
  724TIP3    H123663   6.607   3.933   5.837  0.1791  0.1985 -0.3307
  724TIP3    H223664   6.472   3.998   5.860 -0.5005 -1.4123  0.3996
  725TIP3   OH223665   0.814   0.179  15.477  0.3269  0.6249 -0.3541
  725TIP3    H123666   0.801   0.162  15.571 -0.9883  1.8414 -0.2907
  725TIP3    H223667   0.889   0.238  15.473 -0.2548  1.4119  0.0352
  726TIP3   OH223668   6.624   2.594  14.867 -0.0521 -0.1567  0.5391
  726TIP3    H123669   6.546   2.650  14.877 -0.3514 -0.3794 -0.4413
  726TIP3    H223670   6.697   2.651  14.891 -0.5303 -0.0535  1.8383
  727TIP3   OH223671   4.421   0.960   0.804  0.2816 -0.0664 -0.0881
  727TIP3    H123672   4.332   0.936   0.829  0.4476 -1.2667 -0.5885
  727TIP3    H223673   4.472   0.955   0.885 -0.8040  4.6646  1.1711
  728TIP3   OH223674   2.961   1.858   3.027 -0.1849  0.0009  0.1492
  728TIP3    H123675   2.985   1.923   2.962 -0.9240 -0.5280 -0.6797
  728TIP3    H223676   2.866   1.860   3.030 -0.2295 -1.0375  0.0927
  729TIP3   OH223677   5.254   6.686  16.838 -0.0910 -0.0422 -0.1267
  729TIP3    H123678   5.230   6.695  16.745  1.6147 -0.3120 -0.6341
  729TIP3    H223679   5.173   6.705  16.885 -1.3336 -1.1114 -1.7015
  730TIP3   OH223680   4.787   5.647   0.098  0.5297  0.0704 -0.2892
  730TIP3    H123681   4.714   5.620   0.042 -0.9306  1.7866  0.6732
  730TIP3    H223682   4.826   5.565   0.127 -1.8808 -0.9907  0.2281
  731TIP3   OH223683   5.526   1.712   3.619 -0.0792  0.6433 -0.0819
  731TIP3    H123684   5.479   1.765   3.554  0.4613  0.2472 -0.8144
  731TIP3    H223685   5.596   1.669   3.569 -1.2955 -1.8232  0.1739
  732TIP3   OH223686   6.484   4.073  16.128  1.1917  0.7875  0.0566
  732TIP3    H123687   6.566   4.100  16.170  2.0384 -1.1164 -0.2824
  732TIP3    H223688   6.501   4.083  16.034 -0.0875  3.3277 -0.0030
  733TIP3   OH223689   6.071   1.114  10.846  0.2222  0.2098 -0.0071
  733TIP3    H123690   6.062   1.154  10.760  0.6789  0.3559  0.0123
  733TIP3    H223691   5.998   1.051  10.851  1.6622 -1.7171 -1.5418
  734TIP3   OH223692   2.856   1.476  13.943 -0.3857  0.0187  0.0483
  734TIP3    H123693   2.897   1.560  13.924  1.2744 -0.5893  0.7098
  734TIP3    H223694   2.871   1.423  13.865 -0.7059  0.0730 -0.0508
  735TIP3   OH223695   5.248   5.238  16.566 -0.5358 -0.0775  0.1097
  735TIP3    H123696   5.237   5.228  16.660 -0.0666  1.9675  0.4288
  735TIP3    H223697   5.164   5.271  16.535 -0.1871  0.8187  0.0916
  736TIP3   OH223698   3.971   3.667   3.491  0.3013 -0.3256  0.0558
  736TIP3    H123699   3.916   3.627   3.557  2.0988 -0.9531  1.2579
  736TIP3    H223700   3.915   3.677   3.415 -1.3489 -1.2171  1.1077
  737TIP3   OH223701   4.070   4.342   0.707 -0.1700  0.2071 -0.4823
  737TIP3    H123702   3.992   4.368   0.659 -1.0958  0.6272  1.1659
  737TIP3    H223703   4.056   4.249   0.728 -1.0579  0.6871  1.2338
  738TIP3   OH223704   1.386   0.460   0.910  0.0837 -0.0598  0.2066
  738TIP3    H123705   1.422   0.507   0.986 -1.9144  0.4994  0.8810
  738TIP3    H223706   1.411   0.369   0.925  1.4628  0.3291  0.4482
  739TIP3   OH223707   1.107   0.669   5.022  0.2847 -0.2085 -0.6160
  739TIP3    H123708   1.100   0.580   5.057 -0.4722 -0.3358 -1.0802
  739TIP3    H223709   1.017   0.699   5.014  0.5396  0.6634 -0.3175
  740TIP3   OH223710   0.631   4.210  16.560  0.0030 -0.4750 -0.5846
  740TIP3    H123711   0.616   4.116  16.553 -2.0903 -0.1474 -1.3038
  740TIP3    H223712   0.544   4.247  16.579  0.6255  1.3839 -1.0787
  741TIP3   OH223713   5.393   1.396  13.627  0.2123  0.2726 -0.1274
  741TIP3    H123714   5.488   1.385  13.625  0.0629 -1.2064 -0.2145
  741TIP3    H223715   5.377   1.452  13.703  1.1330  0.2387  0.1043
  742TIP3   OH223716   5.096   3.022  11.940  0.2454  0.4930  0.2882
  742TIP3    H123717   5.064   2.932  11.953 -1.8868  1.0848 -0.4159
  742TIP3    H223718   5.080   3.066  12.023 -0.9821  0.8335 -0.1167
  743TIP3   OH223719   5.186   2.547   1.715 -0.0647  1.2011  0.8488
  743TIP3    H123720   5.115   2.508   1.664  1.2530 -3.0959  1.8468
  743TIP3    H223721   5.262   2.543   1.658  0.7527 -0.7932  1.9684
  744TIP3   OH223722   4.539   2.848   4.090  0.5082  0.1725  0.1956
  744TIP3    H123723   4.461   2.899   4.067  1.4929  1.5906 -0.1671
  744TIP3    H223724   4.579   2.826   4.006  0.4894 -0.5645  0.3767
  745TIP3   OH223725   2.439   2.402  14.033 -0.5712 -0.8508  0.0384
  745TIP3    H123726   2.436   2.412  14.128 -2.0523 -1.0917  0.0296
  745TIP3    H223727   2.348   2.407  14.005 -0.1300 -0.5381 -1.4004
  746TIP3   OH223728   2.511   1.442   1.173 -0.0260  0.2679  0.1607
  746TIP3    H123729   2.457   1.365   1.189 -0.1548  0.4201  0.4612
  746TIP3    H223730   2.498   1.497   1.250  0.6665  0.2393  0.3066
  747TIP3   OH223731   0.939   2.648  12.636  0.9400  0.2164 -0.4938
  747TIP3    H123732   1.008   2.714  12.639  1.4976 -0.3453 -0.7623
  747TIP3    H223733   0.984   2.565  12.653  0.5580 -0.3184 -1.9555
  748TIP3   OH223734   1.890   0.259  16.815  0.4450 -0.2860  0.0282
  748TIP3    H123735   1.919   0.176  16.853 -1.1702 -0.7013  0.4632
  748TIP3    H223736   1.866   0.237  16.725  1.2636  0.0120 -0.2724
  749TIP3   OH223737   3.710   1.164  12.286  0.1420 -0.6963  0.1683
  749TIP3    H123738   3.717   1.141  12.379 -0.5531  0.8208  0.6373
  749TIP3    H223739   3.800   1.180  12.258  0.4084 -1.7046  0.4257
  750TIP3   OH223740   0.088   3.680   1.949  0.0231  0.1793 -0.6118
  750TIP3    H123741   0.019   3.616   1.965  0.0327  0.1938 -0.5120
  750TIP3    H223742   0.046   3.750   1.899  0.6613 -1.3104 -3.5075
  751TIP3   OH223743   3.998   2.614  13.684 -0.3178  0.3761 -0.2932
  751TIP3    H123744   3.992   2.529  13.728  0.4548  1.4280  2.0281
  751TIP3    H223745   4.068   2.602  13.620 -0.7566 -0.9367 -0.5725
  752TIP3   OH223746   3.171   6.499   1.046 -0.5970  0.0605  0.3715
  752TIP3    H123747   3.201   6.547   0.969 -1.8184  0.2961  0.0211
  752TIP3    H223748   3.210   6.412   1.037  0.0254  0.3737 -0.0172
  753TIP3   OH223749   4.665   0.703   0.334  0.0959  0.7315  0.3097
  753TIP3    H123750   4.638   0.616   0.304  2.0289  0.5713 -1.1857
  753TIP3    H223751   4.744   0.686   0.385 -1.0830  1.3931  2.4791
  754TIP3   OH223752   5.264   5.435   1.808 -0.3849 -0.2600 -0.6740
  754TIP3    H123753   5.201   5.417   1.737 -0.6561  0.4708 -0.6217
  754TIP3    H223754   5.330   5.491   1.768 -0.5197  0.1251 -0.3586
  755TIP3   OH223755   4.616   4.509   5.413 -0.2219 -0.5717  0.5418
  755TIP3    H123756   4.533   4.557   5.406 -0.3389 -1.0506 -2.0719
  755TIP3    H223757   4.610   4.440   5.347  2.5800 -0.0986 -0.3411
  756TIP3   OH223758   6.790   3.718  11.672  0.4594 -0.0025  0.1258
  756TIP3    H123759   6.792   3.803  11.715 -2.0948 -0.1919  0.8122
  756TIP3    H223760   6.786   3.739  11.579  1.4866  0.5438  0.1884
  757TIP3   OH223761   3.945   0.703  13.613 -0.0198  0.1105 -0.1653
  757TIP3    H123762   3.946   0.755  13.533  2.6474  1.0948  0.4064
  757TIP3    H223763   3.861   0.725  13.655 -0.6451  0.9735 -1.7770
  758TIP3   OH223764   6.825   6.065  12.648 -0.0202  0.0979  0.0055
  758TIP3    H123765   6.918   6.068  12.624  0.1060 -0.0288  0.4677
  758TIP3    H223766   6.816   5.983  12.696 -0.0439  0.8403  1.2957
  759TIP3   OH223767   6.751   5.803   0.359  0.2028 -0.1964 -0.0517
  759TIP3    H123768   6.824   5.785   0.299  0.6461 -0.6744  0.6081
  759TIP3    H223769   6.715   5.716   0.379 -1.9154  0.1379 -1.9800
  760TIP3   OH223770   1.233   5.033   2.032  0.8932 -0.2628 -0.3838
  760TIP3    H123771   1.277   4.972   1.973  0.9717 -0.2047 -0.3853
  760TIP3    H223772   1.288   5.111   2.032  2.6053 -1.3341  2.1060
  761TIP3   OH223773   6.342   4.950  16.527  0.1060 -0.0559  0.1850
  761TIP3    H123774   6.404   5.022  16.543 -0.8148  0.3963  1.9285
  761TIP3    H223775   6.259   4.982  16.563 -0.3968 -1.8626  0.6987
  762TIP3   OH223776   1.461   6.650   2.744  0.2879  0.0057 -0.3154
  762TIP3    H123777   1.457   6.662   2.838 -2.0741  0.8906 -0.4726
  762TIP3    H223778   1.417   6.566   2.728 -1.9401  1.1838 -0.7796
  763TIP3   OH223779   3.888   5.439   3.779 -0.1610  0.3231 -0.0703
  763TIP3    H123780   3.887   5.434   3.683 -0.8698  0.7778 -0.0960
  763TIP3    H223781   3.907   5.350   3.808  0.0927  0.1882 -0.6375
  764TIP3   OH223782   2.446   0.180  12.638 -0.0030 -0.6173  0.2070
  764TIP3    H123783   2.532   0.156  12.673  1.3829  0.0178 -2.4933
  764TIP3    H223784   2.384   0.145  12.702  2.2303 -0.9516  2.3584
  765TIP3   OH223785   1.486   3.834   5.447  0.2046  0.0870 -0.5114
  765TIP3    H123786   1.569   3.852   5.492  1.0906 -2.4277 -1.0061
  765TIP3    H223787   1.511   3.805   5.359 -1.1426 -1.2736 -0.4964
  766TIP3   OH223788   2.992   4.203  14.768 -0.1377  0.1761 -0.8028
  766TIP3    H123789   2.998   4.194  14.673  1.3981  1.7050 -0.8969
  766TIP3    H223790   2.898   4.200  14.786 -0.3779 -3.2570 -1.9677
  767TIP3   OH223791   4.252   5.043   4.643 -0.0458 -0.2665 -0.1993
  767TIP3    H123792   4.289   5.131   4.647  0.5604 -0.5517  0.9932
  767TIP3    H223793   4.158   5.056   4.642  0.0370  0.3922  0.0633
  768TIP3   OH223794   0.012   4.723   1.703  0.4391  0.1207  0.1387
  768TIP3    H123795  -0.031   4.788   1.758  0.4952  0.6216 -0.4070
  768TIP3    H223796   0.066   4.672   1.764  2.2284  2.0702  0.2661
  769TIP3   OH223797   2.300   5.094   0.148 -0.7167 -0.5383  0.2487
  769TIP3    H123798   2.229   5.148   0.183 -0.4479 -0.4110  0.5955
  769TIP3    H223799   2.297   5.015   0.201 -0.5593 -0.5085  0.3001
  770TIP3   OH223800   0.762   2.174  13.789 -0.1586 -0.2593 -0.0756
  770TIP3    H123801   0.695   2.109  13.809 -1.3119  1.1544  0.9167
  770TIP3    H223802   0.784   2.213  13.873 -2.7541  3.6194 -0.8990
  771TIP3   OH223803   1.325   4.001   4.875 -0.1260 -0.5199  0.0278
  771TIP3    H123804   1.403   3.947   4.876  0.1068 -0.1933 -0.3968
  771TIP3    H223805   1.314   4.026   4.783 -0.1141  0.3152  0.2460
  772TIP3   OH223806   0.468   4.092  16.833  0.0645  0.0449  0.5132
  772TIP3    H123807   0.544   4.036  16.816 -0.2752 -0.1247 -0.5816
  772TIP3    H223808   0.395   4.043  16.796 -0.3856  0.7805  0.4153
  773TIP3   OH223809   3.255   1.151  16.993 -0.5504  0.1381 -0.0951
  773TIP3    H123810   3.272   1.059  16.973 -3.2440 -0.2865 -0.8453
  773TIP3    H223811   3.291   1.164  17.080 -1.0085 -1.9358  0.4498
  774TIP3   OH223812   4.896   0.626   5.862 -0.0339 -0.3176  0.5972
  774TIP3    H123813   4.848   0.626   5.779  0.3382  2.1402  0.3061
  774TIP3    H223814   4.827   0.628   5.929 -0.4971  2.9480  0.1901
  775TIP3   OH223815   6.016   0.935   2.684  0.1469 -0.0997 -0.0308
  775TIP3    H123816   6.109   0.935   2.710  0.5460  3.1109 -1.0920
  775TIP3    H223817   5.997   1.026   2.663 -3.1192 -0.7879 -0.5057
  776TIP3   OH223818   1.287   0.489   5.420 -0.5183 -0.3657 -0.1713
  776TIP3    H123819   1.374   0.521   5.442 -0.2564 -1.2447  0.1130
  776TIP3    H223820   1.236   0.568   5.402  0.0114  0.2374  0.8596
  777TIP3   OH223821   6.283   3.890   3.518 -0.1007 -0.5129 -0.0101
  777TIP3    H123822   6.363   3.932   3.486  0.7286 -2.3178 -0.4577
  777TIP3    H223823   6.215   3.918   3.458  0.3519  0.3824 -0.1242
  778TIP3   OH223824   0.675   1.915  10.589  0.2073  0.5270 -1.0363
  778TIP3    H123825   0.643   1.825  10.582 -0.7434  0.8793 -1.4610
  778TIP3    H223826   0.701   1.938  10.500  1.2671  0.4026 -0.7773
  779TIP3   OH223827   3.518   2.100   2.276 -0.0089  0.5733  0.1675
  779TIP3    H123828   3.589   2.120   2.214  0.1284 -1.5173 -0.4482
  779TIP3    H223829   3.557   2.114   2.362  1.4076 -1.1006 -0.1362
  780TIP3   OH223830   3.946   5.457  15.736 -0.4356 -0.0384  0.1364
  780TIP3    H123831   3.994   5.445  15.654 -0.9730  0.2024 -0.2261
  780TIP3    H223832   3.854   5.454  15.710 -0.6505 -1.6346  0.9679
  781TIP3   OH223833   3.485   2.469   1.005 -0.4567 -0.2558  0.4931
  781TIP3    H123834   3.437   2.425   0.935 -0.0480 -0.8751  0.5939
  781TIP3    H223835   3.577   2.464   0.978 -0.4462  0.9821  0.2625
  782TIP3   OH223836   5.105   2.063  15.215 -0.1769  0.6037  0.7010
  782TIP3    H123837   5.136   2.138  15.165 -0.2345  0.8047  0.9665
  782TIP3    H223838   5.122   1.988  15.158  1.2045  0.6476  1.0241
  783TIP3   OH223839   3.692   1.650   2.328 -0.0421 -0.1407  0.2810
  783TIP3    H123840   3.692   1.744   2.345  0.6851 -0.0600 -0.1295
  783TIP3    H223841   3.765   1.636   2.268  0.2689 -1.0537  0.8351
  784TIP3   OH223842   5.661   5.943   3.275  0.5579 -0.6655 -0.5800
  784TIP3    H123843   5.746   5.981   3.253  0.6867 -0.9273 -0.5457
  784TIP3    H223844   5.622   6.005   3.336  0.9576 -0.8017 -0.1797
  785TIP3   OH223845   5.992   1.028  16.657  0.0863  0.2105  0.1338
  785TIP3    H123846   6.040   0.972  16.717 -1.4096 -0.9606  0.2916
  785TIP3    H223847   5.952   0.968  16.594 -1.6043  1.0685  0.3270
  786TIP3   OH223848   0.991   0.372   1.554  0.5595  0.2008 -0.3237
  786TIP3    H123849   0.915   0.326   1.588  0.6586  1.8786  2.5160
  786TIP3    H223850   0.955   0.454   1.519  1.0181  1.8171  2.6102
  787TIP3   OH223851   0.606   2.291  11.243  0.3375  0.1741  0.9401
  787TIP3    H123852   0.659   2.277  11.164 -1.0582 -0.2642  0.0423
  787TIP3    H223853   0.652   2.243  11.312 -0.3503 -2.6767 -0.4337
  788TIP3   OH223854   4.547   5.107  11.729  0.3803  0.3829 -0.0364
  788TIP3    H123855   4.520   5.156  11.651  2.5038 -0.3992 -1.3758
  788TIP3    H223856   4.572   5.021  11.696 -0.0424 -0.4799  1.7657
  789TIP3   OH223857   3.270   5.933   3.372  0.4893 -0.0685  0.2230
  789TIP3    H123858   3.212   5.974   3.436  0.5093  1.3923 -0.6490
  789TIP3    H223859   3.307   6.006   3.322  0.2688 -1.1447 -1.6444
  790TIP3   OH223860   2.595   4.474   4.083  0.7728 -0.1407  0.3200
  790TIP3    H123861   2.631   4.561   4.069 -0.8519  0.3622 -1.1426
  790TIP3    H223862   2.643   4.418   4.023  0.4945  0.1386 -0.1688
  791TIP3   OH223863   2.442   0.380   2.868  0.6136 -0.1284  0.6771
  791TIP3    H123864   2.477   0.418   2.948  2.1196  0.5396 -0.2611
  791TIP3    H223865   2.366   0.435   2.847  0.1832 -0.3290  1.6317
  792TIP3   OH223866   6.037   6.219   1.756 -0.3809  0.3105  0.7191
  792TIP3    H123867   5.996   6.303   1.733  1.9512  1.8245  1.7409
  792TIP3    H223868   6.087   6.195   1.678 -1.8576 -0.7297  0.0465
  793TIP3   OH223869   1.950   3.123   1.039 -0.6308  0.0855 -1.2243
  793TIP3    H123870   2.027   3.114   0.984  1.1846 -1.6651  1.3444
  793TIP3    H223871   1.974   3.190   1.104  0.3522 -2.8279  1.7269
  794TIP3   OH223872   6.410   0.518  17.107 -0.2064 -0.1850 -0.2590
  794TIP3    H123873   6.482   0.546  17.052  0.2313 -1.3122 -0.2839
  794TIP3    H223874   6.451   0.492  17.190 -0.9948  3.2831  1.4447
  795TIP3   OH223875   0.769   2.469   1.751  0.0698 -0.1968 -0.4905
  795TIP3    H123876   0.782   2.442   1.660  0.3739 -0.8705 -0.2592
  795TIP3    H223877   0.858   2.480   1.786 -0.0454  0.0980 -0.2907
  796TIP3   OH223878   2.544   3.704   2.906  0.5477 -0.3200 -0.0169
  796TIP3    H123879   2.613   3.758   2.944  0.4450  0.3075 -0.6913
  796TIP3    H223880   2.473   3.706   2.970 -0.3919  2.3109 -0.9805
  797TIP3   OH223881   1.705   1.833  13.108  0.0625 -0.4465  0.6767
  797TIP3    H123882   1.727   1.745  13.076 -0.9778 -0.6841  0.5852
  797TIP3    H223883   1.610   1.832  13.118  0.2683 -0.1550  3.1338
  798TIP3   OH223884   0.038   1.794   0.947 -0.2351  0.1646  0.4354
  798TIP3    H123885   0.070   1.807   0.858  0.5206 -1.9574  0.3214
  798TIP3    H223886   0.101   1.840   1.002  1.3680 -1.3869  0.0143
  799TIP3   OH223887   5.296   1.556  11.800 -0.3051  1.2196 -0.2043
  799TIP3    H123888   5.248   1.485  11.759 -0.5980  0.8156  0.8014
  799TIP3    H223889   5.228   1.617  11.829 -0.2329  0.6985  1.1301
  800TIP3   OH223890   5.658   6.057  12.307 -0.4444 -0.0786 -0.1703
  800TIP3    H123891   5.702   5.974  12.326 -0.4227 -0.0687 -0.1774
  800TIP3    H223892   5.711   6.096  12.238 -1.6786 -1.0572 -1.7435
  801TIP3   OH223893   2.364   4.137   1.170 -0.1679  0.1850  0.4998
  801TIP3    H123894   2.355   4.217   1.120  0.1882 -0.5413 -0.7734
  801TIP3    H223895   2.312   4.072   1.122 -1.6098 -0.0418  2.2748
  802TIP3   OH223896   4.284   5.852   0.513 -0.7180 -0.1472  0.2960
  802TIP3    H123897   4.202   5.844   0.560 -0.5133 -1.0674  0.5275
  802TIP3    H223898   4.333   5.772   0.536 -0.0888  0.0055 -0.4480
  803TIP3   OH223899   1.095   5.354  11.871 -0.2218  0.2724  0.8191
  803TIP3    H123900   1.016   5.389  11.913 -1.1917  0.9775 -1.4257
  803TIP3    H223901   1.163   5.419  11.892 -0.9471  1.2010  0.3768
  804TIP3   OH223902   3.292   6.278  14.615  0.0208  0.0525 -0.0574
  804TIP3    H123903   3.309   6.343  14.683  1.0971  0.4390 -0.6660
  804TIP3    H223904   3.197   6.267  14.615 -0.0172  0.2752  1.2871
  805TIP3   OH223905   1.083   0.070  11.570  0.2971  0.7873  0.5027
  805TIP3    H123906   1.132  -0.011  11.578 -2.0952 -0.7871  0.3823
  805TIP3    H223907   1.094   0.096  11.479  1.9822  1.2618  0.8130
  806TIP3   OH223908   2.557   5.297  16.517  0.3148  0.2008  0.0519
  806TIP3    H123909   2.469   5.301  16.479  0.0370  0.8194  0.7303
  806TIP3    H223910   2.544   5.321  16.608  0.9422 -1.4425  0.6036
  807TIP3   OH223911   5.757   0.317  16.855  0.3106  0.1014  0.0564
  807TIP3    H123912   5.813   0.380  16.901  0.0460  0.9493 -0.7624
  807TIP3    H223913   5.807   0.293  16.777  0.7394 -1.3057  0.7198
  808TIP3   OH223914   4.547   6.531  16.170  0.1892  0.1893 -0.0869
  808TIP3    H123915   4.509   6.580  16.242  0.6332  0.5025 -0.0614
  808TIP3    H223916   4.477   6.472  16.142  0.2009 -0.3526  0.9737
  809TIP3   OH223917   2.559   0.877  13.464 -0.4518 -0.8939 -0.1886
  809TIP3    H123918   2.650   0.853  13.479 -0.9894 -1.4769  3.0174
  809TIP3    H223919   2.560   0.972  13.453  0.5809 -0.9759 -0.8828
  810TIP3   OH223920   4.457   3.941   2.100 -0.5292  0.2197 -0.0140
  810TIP3    H123921   4.452   3.968   2.008  0.5297 -1.2520 -0.5372
  810TIP3    H223922   4.384   3.879   2.110 -0.1521 -0.2450 -0.1020
  811TIP3   OH223923   3.802   2.193  15.195  0.4254 -0.0038 -0.5559
  811TIP3    H123924   3.892   2.219  15.177 -0.3520  2.0754 -1.8399
  811TIP3    H223925   3.784   2.123  15.132  0.8856  0.1672 -0.8840
  812TIP3   OH223926   5.175   0.848  12.283 -0.1460  0.0412 -0.4230
  812TIP3    H123927   5.105   0.908  12.308 -0.0568 -0.5200  1.2691
  812TIP3    H223928   5.134   0.786  12.223 -0.7517  0.5393 -0.5265
  813TIP3   OH223929   5.448   6.576   0.002 -0.2276  0.0073 -0.4469
  813TIP3    H123930   5.509   6.639   0.040 -1.8903  0.1746  2.2484
  813TIP3    H223931   5.489   6.491   0.017  0.3965  0.2338 -0.8362
  814TIP3   OH223932   1.936   4.199  14.488 -0.0999 -0.2573  0.3645
  814TIP3    H123933   1.858   4.237  14.447 -0.7617 -0.3637  1.4635
  814TIP3    H223934   1.944   4.247  14.571  0.8179 -0.4765  0.4097
  815TIP3   OH223935   1.999   2.946   3.314  0.5558  0.3175  0.2401
  815TIP3    H123936   2.050   3.020   3.346  0.2047  0.3262  0.7762
  815TIP3    H223937   2.049   2.914   3.239  1.1562  0.5606  0.5292
  816TIP3   OH223938   1.072   2.641  13.047 -0.6220  0.0751 -0.3208
  816TIP3    H123939   1.013   2.696  12.996 -0.4332 -0.6971 -1.4087
  816TIP3    H223940   1.159   2.658  13.010 -0.6738 -1.5920 -1.2998
  817TIP3   OH223941   1.304   6.766   3.307 -0.5820  0.0745  0.2474
  817TIP3    H123942   1.368   6.698   3.288  0.0792  0.8406 -0.3452
  817TIP3    H223943   1.223   6.735   3.266 -0.1621 -0.1394 -0.4419
  818TIP3   OH223944   4.250   6.397  15.132  0.5386  0.4109  0.1758
  818TIP3    H123945   4.260   6.426  15.041  0.3969  1.1957  0.3975
  818TIP3    H223946   4.157   6.406  15.150  0.3435 -1.0753 -0.0187
  819TIP3   OH223947   6.812   0.507   1.004 -0.2057  0.0929  0.8815
  819TIP3    H123948   6.721   0.532   0.991  0.1596  1.7694  1.2901
  819TIP3    H223949   6.810   0.445   1.077 -1.0308 -0.1326  0.6807
  820TIP3   OH223950   2.761   4.516   0.893  0.0241 -0.1412  0.0656
  820TIP3    H123951   2.773   4.436   0.842 -0.6073 -0.8222  0.9705
  820TIP3    H223952   2.671   4.543   0.876 -0.4037 -0.7444  1.3393
  821TIP3   OH223953   6.167   2.805   1.189  0.5470 -0.0111  0.2782
  821TIP3    H123954   6.195   2.887   1.230 -2.4056  2.9357 -2.9056
  821TIP3    H223955   6.204   2.808   1.101  0.0456 -1.9175 -0.0435
  822TIP3   OH223956   6.005   2.397  14.832  0.5019  0.1273  0.1706
  822TIP3    H123957   6.012   2.492  14.845  1.4057  0.2519 -1.0105
  822TIP3    H223958   5.992   2.387  14.738  1.4272 -0.9632  0.1391
  823TIP3   OH223959   6.732   4.582  14.719  0.6975  0.2324  0.0559
  823TIP3    H123960   6.803   4.636  14.686  0.0368  1.2816  0.3115
  823TIP3    H223961   6.675   4.643  14.766  0.4843 -0.8627  1.2582
  824TIP3   OH223962   3.368   6.536   5.720  0.5197  0.7370 -0.9754
  824TIP3    H123963   3.355   6.583   5.638  1.9417  1.9245 -0.5759
  824TIP3    H223964   3.380   6.605   5.786 -0.2070 -0.1852  0.1723
  825TIP3   OH223965   4.972   2.987  14.542 -0.1195  0.0778  0.0049
  825TIP3    H123966   5.050   2.935  14.524  0.2458  0.9090 -0.8870
  825TIP3    H223967   4.944   2.959  14.629  1.1989 -0.1859  0.3593
  826TIP3   OH223968   6.643   6.566   3.311 -0.6878  0.3496  0.1507
  826TIP3    H123969   6.584   6.570   3.235 -0.5326  1.2951  0.0655
  826TIP3    H223970   6.639   6.654   3.349  1.3306  0.7170 -0.3670
  827TIP3   OH223971   4.581   4.953   1.416 -0.0149 -0.5257 -0.2581
  827TIP3    H123972   4.560   4.978   1.326  0.2042 -0.5730 -0.3229
  827TIP3    H223973   4.536   5.017   1.470  0.0135 -0.3802 -0.4076
  828TIP3   OH223974   1.596   0.753   1.400  0.5089 -0.4685  0.2763
  828TIP3    H123975   1.665   0.732   1.463 -1.3984 -0.9737  2.3262
  828TIP3    H223976   1.516   0.719   1.440 -1.3568  2.3927 -0.7363
  829TIP3   OH223977   2.388   5.693  16.938 -0.3344 -0.1073  0.2706
  829TIP3    H123978   2.298   5.659  16.942 -1.6851  3.2455  1.6552
  829TIP3    H223979   2.380   5.775  16.891  2.2936 -0.3078 -0.6331
  830TIP3   OH223980   3.387   6.240   3.026  0.2917 -0.5288  0.1836
  830TIP3    H123981   3.364   6.328   3.053  1.2743  0.1354 -1.0588
  830TIP3    H223982   3.311   6.208   2.979  0.2646  0.0001 -0.1368
  831TIP3   OH223983   0.632   2.453  17.022 -0.0793  0.5792  0.2768
  831TIP3    H123984   0.709   2.462  17.078  0.5446 -0.7024 -0.3461
  831TIP3    H223985   0.562   2.496  17.071  0.3299 -0.8864  2.2528
  832TIP3   OH223986   4.621   0.223   1.737 -0.1859 -0.0824  0.7208
  832TIP3    H123987   4.579   0.139   1.756  0.1240 -0.5359 -0.5219
  832TIP3    H223988   4.714   0.202   1.729  0.0742  0.6146  1.6512
  833TIP3   OH223989   1.708   2.051   2.109 -0.1120  0.1025 -0.1421
  833TIP3    H123990   1.708   2.118   2.177  0.2368  1.2613 -1.2525
  833TIP3    H223991   1.618   2.018   2.108 -0.2493  0.4364  0.5185
  834TIP3   OH223992   1.257   0.256   1.437  0.2650 -0.2189 -0.0362
  834TIP3    H123993   1.264   0.250   1.342  2.7133 -0.4480  0.1078
  834TIP3    H223994   1.165   0.275   1.452 -0.4860 -1.5132 -2.3710
  835TIP3   OH223995   1.077   5.604  12.013  0.0784  0.0343 -0.4565
  835TIP3    H123996   1.123   5.619  12.096 -0.7277  2.1342 -0.3251
  835TIP3    H223997   1.090   5.685  11.963 -1.7114 -0.1113 -1.2380
  836TIP3   OH223998   2.847   3.627  17.134  0.9000 -0.4440  0.4675
  836TIP3    H123999   2.845   3.716  17.169  0.3366 -0.4968  0.5730
  836TIP3    H224000   2.793   3.631  17.054  0.7477 -0.7246  0.5548
  837TIP3   OH224001   0.281   4.284   1.637  0.1376  0.0062  0.0011
  837TIP3    H124002   0.314   4.319   1.554 -2.0754 -0.9588 -1.3721
  837TIP3    H224003   0.270   4.360   1.693  1.8335  0.6644 -0.4804
  838TIP3   OH224004   4.952   6.386   0.082 -0.2604  0.2014 -0.5507
  838TIP3    H124005   5.020   6.452   0.081 -0.1751  0.1211 -0.3061
  838TIP3    H224006   4.889   6.417   0.148 -0.1841  0.0076 -0.3832
  839TIP3   OH224007   4.673   0.171  12.954 -0.7333 -0.6277  0.3341
  839TIP3    H124008   4.629   0.252  12.927 -0.7640 -1.0389 -0.9403
  839TIP3    H224009   4.749   0.165  12.896  0.9034 -0.0729  2.3125
  840TIP3   OH224010   4.413   6.679  15.913  0.0079 -0.1161  0.1740
  840TIP3    H124011   4.498   6.652  15.948 -0.7285 -1.6002  0.9272
  840TIP3    H224012   4.353   6.669  15.988 -0.9151  0.4096 -0.4822
  841TIP3   OH224013   0.184   4.484   3.960  0.3952  0.2977 -0.0073
  841TIP3    H124014   0.250   4.415   3.964 -0.2125 -0.2480  1.5927
  841TIP3    H224015   0.134   4.474   4.041 -0.8563  1.4873 -0.5842
  842TIP3   OH224016   6.215   3.996  12.401 -0.1299  0.3033 -0.5937
  842TIP3    H124017   6.290   3.972  12.454 -2.0030  0.0750  2.1746
  842TIP3    H224018   6.200   3.920  12.344  0.6004 -0.4240  0.1600
  843TIP3   OH224019   4.697   5.142   2.115 -1.0650 -0.0121  0.1954
  843TIP3    H124020   4.641   5.136   2.193  0.2915  0.8266  1.2837
  843TIP3    H224021   4.690   5.055   2.075 -0.9347 -0.8728  1.8955
  844TIP3   OH224022   2.076   1.659  17.139  0.6073  0.4079 -0.4438
  844TIP3    H124023   1.995   1.708  17.151  0.7155  0.7263 -0.9498
  844TIP3    H224024   2.055   1.569  17.164  0.5562  0.8194  1.0517
  845TIP3   OH224025   0.853   6.754  14.890  0.2212 -0.4739 -0.2239
  845TIP3    H124026   0.844   6.660  14.905  1.6451 -0.3429  1.9214
  845TIP3    H224027   0.901   6.760  14.807 -1.5422 -1.5379 -1.3775
  846TIP3   OH224028   3.475   1.188   6.554 -0.2193 -0.1480 -0.2262
  846TIP3    H124029   3.464   1.174   6.460 -0.5019  0.4580 -0.2853
  846TIP3    H224030   3.457   1.102   6.593 -0.2985 -0.3532 -0.7122
  847TIP3   OH224031   0.685   0.752  13.038 -0.4120  0.2491  0.2970
  847TIP3    H124032   0.650   0.665  13.054 -0.1707  0.0479 -0.2289
  847TIP3    H224033   0.779   0.743  13.053 -0.3806  0.4035  0.1957
  848TIP3   OH224034   5.823   2.144   5.232  0.3699 -0.0370  0.0666
  848TIP3    H124035   5.791   2.168   5.319 -0.6720  1.2776 -0.6466
  848TIP3    H224036   5.755   2.086   5.197  2.1119 -2.9547  1.1502
  849TIP3   OH224037   6.717   3.491   0.411  1.0272  0.0328  0.3279
  849TIP3    H124038   6.797   3.542   0.424  0.4129  1.2160 -0.4014
  849TIP3    H224039   6.744   3.420   0.353  1.1925  1.4885 -1.4775
  850TIP3   OH224040   2.168   1.137  12.420  0.0911 -0.0446  0.0977
  850TIP3    H124041   2.179   1.172  12.509 -0.4021  0.8965 -0.2077
  850TIP3    H224042   2.127   1.051  12.434  0.4019 -0.0905  0.7987
  851TIP3   OH224043   2.739   3.085   0.904  0.6146  0.1171 -0.4829
  851TIP3    H124044   2.815   3.043   0.946  1.3446  0.6768 -1.2153
  851TIP3    H224045   2.758   3.179   0.909 -0.2388  0.2862 -0.2959
  852TIP3   OH224046   5.108   0.289  16.810 -0.4491 -0.2998  0.0623
  852TIP3    H124047   5.121   0.365  16.754 -0.1960 -1.6905 -1.8861
  852TIP3    H224048   5.017   0.264  16.795 -0.0460 -1.3896 -0.7303
  853TIP3   OH224049   5.678   2.189   2.458  0.1690  0.4647 -0.5765
  853TIP3    H124050   5.744   2.124   2.438 -0.7058 -0.3491 -0.9065
  853TIP3    H224051   5.599   2.159   2.411 -0.6795  0.9186  0.5138
  854TIP3   OH224052   2.782   4.314  16.903  0.3627  0.0095 -0.5512
  854TIP3    H124053   2.832   4.367  16.965  1.6939 -2.3722  0.5604
  854TIP3    H224054   2.842   4.244  16.877 -2.1941 -2.8590  0.6307
  855TIP3   OH224055   4.749   1.522  15.659 -0.1714  0.4569 -0.3010
  855TIP3    H124056   4.706   1.523  15.574 -0.5172 -1.9510 -0.2003
  855TIP3    H224057   4.677   1.526  15.723 -0.0427  0.1627 -0.1344
  856TIP3   OH224058   5.548   5.986   1.840 -0.0944 -0.3039 -0.1565
  856TIP3    H124059   5.497   6.056   1.797  0.3970 -0.0356 -0.3107
  856TIP3    H224060   5.639   6.013   1.829  0.1246 -1.2201 -0.6499
  857TIP3   OH224061   3.294   6.261  13.349  0.1055 -0.1807 -0.0267
  857TIP3    H124062   3.218   6.252  13.406  0.6642  0.2436  0.8149
  857TIP3    H224063   3.258   6.261  13.260 -0.6337 -2.8897  0.1667
  858TIP3   OH224064   6.331   1.145   4.565  0.0129  0.3402  0.0022
  858TIP3    H124065   6.345   1.196   4.486 -1.9029 -0.7758 -1.1320
  858TIP3    H224066   6.395   1.074   4.560  0.1874  0.5212 -0.3374
  859TIP3   OH224067   4.539   3.911   5.260 -0.4174 -0.0966 -0.2631
  859TIP3    H124068   4.629   3.890   5.236 -0.4119  0.7735 -1.0327
  859TIP3    H224069   4.518   3.849   5.331  1.2296  0.5498  0.8535
  860TIP3   OH224070   6.370   0.199   0.642  0.3392 -0.0104 -0.2322
  860TIP3    H124071   6.384   0.252   0.721  1.4730 -0.7769  0.0994
  860TIP3    H224072   6.275   0.185   0.639  0.3777 -1.0539  1.7377
  861TIP3   OH224073   2.098   2.327   1.357  0.2438  0.0636 -0.1511
  861TIP3    H124074   2.187   2.331   1.392  0.2322  0.2088 -0.1354
  861TIP3    H224075   2.051   2.268   1.415  0.3121  0.0424 -0.1176
  862TIP3   OH224076   5.108   2.402  14.279 -0.1751 -0.7195  0.1728
  862TIP3    H124077   5.072   2.476  14.326  0.7893 -0.9929  1.3962
  862TIP3    H224078   5.120   2.334  14.346  0.2899 -1.4826 -0.6540
  863TIP3   OH224079   4.998   2.858  13.583  0.1671 -0.7607  0.3011
  863TIP3    H124080   5.063   2.794  13.553  0.8612 -0.3952  0.9889
  863TIP3    H224081   5.038   2.899  13.660 -0.2492  0.5101 -0.1334
  864TIP3   OH224082   0.811   3.873   2.457 -0.2741  0.0313 -0.4039
  864TIP3    H124083   0.864   3.851   2.381  1.3887 -1.3213  1.0777
  864TIP3    H224084   0.837   3.962   2.479 -0.3581  0.2245 -1.0547
  865TIP3   OH224085   0.351   3.054   3.731 -0.2337  0.0491  0.0530
  865TIP3    H124086   0.315   3.054   3.643 -0.2701  1.1089  0.0481
  865TIP3    H224087   0.294   3.114   3.780  0.9773  1.0481  0.2735
  866TIP3   OH224088   5.709   4.216  12.157  0.3655 -0.3253  0.3632
  866TIP3    H124089   5.616   4.221  12.181 -0.0947 -1.7814 -0.9633
  866TIP3    H224090   5.752   4.188  12.238 -0.6747 -1.7438  0.4807
  867TIP3   OH224091   0.563   2.835  10.773  0.0240 -0.3794  0.4020
  867TIP3    H124092   0.604   2.842  10.860 -0.3607  2.0815  0.4555
  867TIP3    H224093   0.635   2.850  10.712 -0.4317  2.8389  0.4770
  868TIP3   OH224094   0.768   0.448   2.390  0.0280 -0.5306  0.3539
  868TIP3    H124095   0.858   0.465   2.420  0.1709 -2.1042  0.9028
  868TIP3    H224096   0.744   0.365   2.432 -1.4075 -0.5220 -0.3993
  869TIP3   OH224097   1.817   5.066  10.772 -0.4291  0.1165 -0.4935
  869TIP3    H124098   1.790   5.072  10.864  1.7746  0.7033  0.1729
  869TIP3    H224099   1.899   5.017  10.774 -0.6185 -0.3241 -2.2346
  870TIP3   OH224100   5.399   6.043   5.136  0.3333  0.1218 -0.3575
  870TIP3    H124101   5.489   6.048   5.169  0.2117  0.6585 -0.0982
  870TIP3    H224102   5.388   5.951   5.111  0.6077 -0.1886  0.6035
  871TIP3   OH224103   6.070   3.005  16.149 -0.1456  0.4219  0.8054
  871TIP3    H124104   6.019   2.924  16.142 -0.4492  0.6859 -0.3461
  871TIP3    H224105   6.079   3.020  16.243 -0.1639 -0.8938  1.0332
  872TIP3   OH224106   0.281   0.367  15.272  0.3964 -0.4735  0.1188
  872TIP3    H124107   0.364   0.401  15.307 -0.9898  0.2053  3.0628
  872TIP3    H224108   0.305   0.283  15.233  2.5672 -0.0087  0.3241
  873TIP3   OH224109   2.090   5.418   3.931 -0.7923  0.2424  0.3919
  873TIP3    H124110   2.152   5.402   4.002 -0.6405 -1.0120 -0.0056
  873TIP3    H224111   2.136   5.478   3.872  0.7110 -1.8483 -0.6890
  874TIP3   OH224112   3.626   1.476  17.028  0.1937  0.1524  0.4977
  874TIP3    H124113   3.658   1.528  16.954 -2.7000  0.4630 -0.6826
  874TIP3    H224114   3.606   1.540  17.096 -0.3741  0.2728  0.2277
  875TIP3   OH224115   4.415   2.406  10.260  0.0542 -0.0549  0.4853
  875TIP3    H124116   4.486   2.463  10.232 -0.1974 -0.0864 -0.2489
  875TIP3    H224117   4.458   2.326  10.289  0.3075 -0.1724 -0.2000
  876TIP3   OH224118   1.117   1.292  13.369  0.1203 -0.2299  0.4049
  876TIP3    H124119   1.106   1.286  13.274  0.5779 -0.4879  0.3604
  876TIP3    H224120   1.037   1.333  13.401 -0.1043 -0.2905 -0.0766
  877TIP3   OH224121   5.745   5.794  12.356  0.0251  0.2516  0.5661
  877TIP3    H124122   5.688   5.775  12.430 -0.7445 -0.1318 -0.1172
  877TIP3    H224123   5.781   5.710  12.331 -2.0214 -0.1297 -1.3461
  878TIP3   OH224124   0.075   6.426   3.582  0.2316  0.1721 -0.0709
  878TIP3    H124125   0.087   6.455   3.492 -1.1959 -0.3669 -0.4675
  878TIP3    H224126  -0.011   6.460   3.607  0.6427  0.3791  1.1231
  879TIP3   OH224127   0.846   0.807  13.885  0.7145 -0.1876 -0.2277
  879TIP3    H124128   0.757   0.785  13.859  0.6604  1.1345 -1.2671
  879TIP3    H224129   0.848   0.793  13.979 -1.5280  2.6156  0.3677
  880TIP3   OH224130   0.183   4.843   3.776 -0.2748  0.4922 -0.0428
  880TIP3    H124131   0.088   4.831   3.781 -0.3040  1.0231  0.6890
  880TIP3    H224132   0.198   4.935   3.796  0.4445  0.2816  0.4463
  881TIP3   OH224133   2.656   1.184  11.627 -0.2384  0.0284 -0.2106
  881TIP3    H124134   2.623   1.273  11.637  2.1055  0.9807 -0.1522
  881TIP3    H224135   2.711   1.171  11.704 -0.8068 -1.6231 -0.0523
  882TIP3   OH224136   2.381   5.516  12.313 -0.1275  0.6461 -0.0851
  882TIP3    H124137   2.323   5.583  12.347  0.6465  1.4861 -0.3740
  882TIP3    H224138   2.419   5.555  12.234  0.6628  0.0371 -0.0192
  883TIP3   OH224139   2.508   5.168  16.788 -0.3353 -0.2065  0.1656
  883TIP3    H124140   2.505   5.073  16.780 -0.3089 -0.3352  1.4768
  883TIP3    H224141   2.581   5.185  16.848  0.7638  0.7594 -1.3586
  884TIP3   OH224142   0.160   0.484  16.107 -0.4321 -0.0317 -0.1642
  884TIP3    H124143   0.120   0.482  16.021  1.2768 -0.5234 -1.0041
  884TIP3    H224144   0.232   0.421  16.101  0.5585  0.9115  1.1909
  885TIP3   OH224145   5.726   5.613   2.866 -0.3273  0.2086  0.3320
  885TIP3    H124146   5.682   5.659   2.937 -2.2749  0.8511 -1.1985
  885TIP3    H224147   5.752   5.682   2.805  1.3793 -0.3219  0.4002
  886TIP3   OH224148   3.896   1.360   5.302  0.2225 -0.0034 -0.5537
  886TIP3    H124149   3.856   1.374   5.388  0.0132  0.6024 -0.7387
  886TIP3    H224150   3.868   1.272   5.277 -1.7646  0.7025 -1.0511
  887TIP3   OH224151   4.996   3.864  13.727 -0.4637  0.4189  0.0407
  887TIP3    H124152   4.918   3.841  13.778  0.5250 -0.1327  1.3657
  887TIP3    H224153   5.045   3.782  13.721 -0.4038  0.5269 -1.6169
  888TIP3   OH224154   0.283   1.146  11.091  0.0219  0.8375  0.6299
  888TIP3    H124155   0.277   1.060  11.049 -0.3169  1.0589  0.2089
  888TIP3    H224156   0.223   1.142  11.165  1.5185  0.0362  1.8590
  889TIP3   OH224157   5.160   2.899  13.786 -0.2909  0.2570 -0.3978
  889TIP3    H124158   5.239   2.951  13.797 -1.0099  1.2875  0.0982
  889TIP3    H224159   5.155   2.846  13.866  0.6302 -0.8601 -1.0608
  890TIP3   OH224160   6.682   4.204   0.650  0.2439  0.6434 -0.2563
  890TIP3    H124161   6.685   4.288   0.604  1.9938  0.9205  0.2893
  890TIP3    H224162   6.747   4.150   0.605 -0.6884 -0.3610 -0.4400
  891TIP3   OH224163   6.658   6.507   2.526 -0.1368 -0.6336  0.8179
  891TIP3    H124164   6.702   6.589   2.549 -1.1283  0.3222 -0.5527
  891TIP3    H224165   6.719   6.463   2.466  0.0474 -0.5459  0.9387
  892TIP3   OH224166   4.664   2.002   1.940 -0.3788 -0.3410  0.0678
  892TIP3    H124167   4.746   2.044   1.966 -2.0786  1.4551  3.2000
  892TIP3    H224168   4.620   2.067   1.885 -0.3387 -0.6956 -0.3877
  893TIP3   OH224169   5.786   3.954  15.238 -0.2817  0.2794  0.0676
  893TIP3    H124170   5.714   4.016  15.249 -1.0957 -0.5730 -0.3599
  893TIP3    H224171   5.756   3.894  15.170  0.6551 -0.3464  0.1930
  894TIP3   OH224172   3.770   6.796  13.870  0.0194  0.1017 -0.4026
  894TIP3    H124173   3.786   6.862  13.803 -0.8662 -0.2863 -1.0223
  894TIP3    H224174   3.847   6.740  13.869  0.4204  0.6474 -0.4367
  895TIP3   OH224175   2.538   1.666   6.220  0.6033  1.1048 -0.1254
  895TIP3    H124176   2.522   1.612   6.143 -1.6142 -0.4195  1.3219
  895TIP3    H224177   2.558   1.753   6.184  0.8014  0.1811 -2.4094
  896TIP3   OH224178   6.820   4.869   5.912  0.3652 -0.1074  0.3409
  896TIP3    H124179   6.770   4.940   5.870  0.7534 -0.2988 -0.4751
  896TIP3    H224180   6.753   4.813   5.951 -0.0578 -0.2715 -0.5911
  897TIP3   OH224181   3.863   4.833   2.837 -0.1434 -0.2439  0.2497
  897TIP3    H124182   3.770   4.843   2.815  0.0162  0.1541 -0.2726
  897TIP3    H224183   3.865   4.761   2.900 -0.7072 -0.9761 -0.5314
  898TIP3   OH224184   3.670   3.700  12.897 -0.1434 -0.5795  0.5521
  898TIP3    H124185   3.686   3.606  12.888  0.2266 -0.5334  0.7194
  898TIP3    H224186   3.599   3.706  12.962 -0.2267 -0.7445  0.4788
  899TIP3   OH224187   6.032   6.417  16.208 -0.3804 -0.3318 -0.1864
  899TIP3    H124188   6.071   6.373  16.132  1.3625  0.1974  0.3530
  899TIP3    H224189   6.078   6.501  16.214 -0.0154 -0.6150  1.8040
  900TIP3   OH224190   0.800   6.583  16.390 -0.1127 -0.7035 -0.3335
  900TIP3    H124191   0.866   6.545  16.332  1.6933  0.3878  0.8986
  900TIP3    H224192   0.754   6.646  16.335  0.4035 -0.8983 -1.0158
  901TIP3   OH224193   5.339   3.323   4.210 -0.3471 -0.1114 -0.2739
  901TIP3    H124194   5.412   3.270   4.243  0.0860 -0.6720 -2.0622
  901TIP3    H224195   5.353   3.410   4.248 -0.3066 -0.8878  1.6032
  902TIP3   OH224196   4.560   6.359   3.174  0.4863  0.4341 -0.6478
  902TIP3    H124197   4.524   6.356   3.263  0.1543  0.0794 -0.7883
  902TIP3    H224198   4.483   6.353   3.117  0.8244 -2.5805 -0.9743
  903TIP3   OH224199   1.550   2.297  13.862  0.1199  0.6632 -0.5244
  903TIP3    H124200   1.498   2.292  13.942 -1.4017  2.6581 -1.2960
  903TIP3    H224201   1.509   2.235  13.802  0.0107  0.6312 -0.4167
  904TIP3   OH224202   0.545   6.213   5.972  0.3276  0.3186  0.1078
  904TIP3    H124203   0.502   6.207   6.057  1.4954  1.1403  0.7784
  904TIP3    H224204   0.551   6.307   5.955 -1.6852  0.1776 -1.8439
  905TIP3   OH224205   4.015   5.498  14.114 -0.8724 -0.6078 -0.3946
  905TIP3    H124206   4.005   5.403  14.124 -0.8413 -0.5818 -0.1101
  905TIP3    H224207   4.108   5.514  14.132 -0.9423 -0.4863 -0.1414
  906TIP3   OH224208   1.923   1.004  14.136 -0.1063 -0.2147 -0.5491
  906TIP3    H124209   1.914   1.069  14.205 -0.0544 -0.4589 -0.3118
  906TIP3    H224210   1.835   0.968  14.125 -0.0307 -0.4721 -0.3186
  907TIP3   OH224211   0.584   1.047   1.115  0.2133 -0.0159  0.2200
  907TIP3    H124212   0.663   1.091   1.085  0.9113 -1.0813  0.4313
  907TIP3    H224213   0.581   0.966   1.064  0.7705 -1.2909  2.0983
  908TIP3   OH224214   4.867   6.093  15.566  0.8555  0.1852 -0.1952
  908TIP3    H124215   4.895   6.078  15.656 -0.6175  0.6074  0.3532
  908TIP3    H224216   4.836   6.184  15.565 -1.8579 -0.6710 -0.3633
  909TIP3   OH224217   1.885   3.257  15.644  0.0441  0.4851  0.4163
  909TIP3    H124218   1.918   3.205  15.717  2.7354  1.6036  0.1014
  909TIP3    H224219   1.835   3.327  15.685  0.8658  0.6503  1.1766
  910TIP3   OH224220   6.278   6.600   2.870  0.1644 -0.5049 -0.2548
  910TIP3    H124221   6.348   6.557   2.822  1.9321  2.4008 -0.5327
  910TIP3    H224222   6.238   6.660   2.807  1.1212  1.8284  1.2156
  911TIP3   OH224223   1.350   4.906   2.725  0.0797  0.0253 -0.2760
  911TIP3    H124224   1.388   4.890   2.639 -1.3670  1.1109 -1.1873
  911TIP3    H224225   1.289   4.834   2.738  0.0289  0.0552 -0.3430
  912TIP3   OH224226   3.862   3.602   3.752 -0.3831 -0.1928 -0.1815
  912TIP3    H124227   3.783   3.652   3.731 -0.5023 -0.0771  0.5139
  912TIP3    H224228   3.832   3.533   3.811  0.3795  1.2036  1.9216
  913TIP3   OH224229   3.552   0.951  10.657  0.8361 -0.1082  0.0615
  913TIP3    H124230   3.526   1.040  10.636  1.4330  0.2587  0.8256
  913TIP3    H224231   3.472   0.899  10.649  0.3258  0.6273  0.3671
  914TIP3   OH224232   4.241   0.946   1.796  0.3987 -0.2595  0.5137
  914TIP3    H124233   4.323   0.990   1.818 -0.0707  0.7548  0.3161
  914TIP3    H224234   4.183   1.017   1.767 -0.1593 -1.0998 -0.5188
  915TIP3   OH224235   2.325   5.794   1.083  0.2669 -0.5613  0.0315
  915TIP3    H124236   2.338   5.787   0.988 -1.9262 -1.6256 -0.2529
  915TIP3    H224237   2.284   5.880   1.095  1.9954  0.2806  0.2594
  916TIP3   OH224238   0.925   1.802   5.259  0.3324  0.6946 -0.0620
  916TIP3    H124239   0.851   1.767   5.308  0.7004  1.4550  1.0623
  916TIP3    H224240   0.892   1.810   5.169 -0.9117  0.9208  0.3993
  917TIP3   OH224241   0.049   1.398   2.826 -0.0968 -0.0023  0.4311
  917TIP3    H124242   0.017   1.389   2.916  0.6714 -1.9502  0.5667
  917TIP3    H224243   0.004   1.329   2.777  0.8735 -0.1817 -0.2435
  918TIP3   OH224244   2.464   4.279  16.087  0.2753 -0.3513 -0.4379
  918TIP3    H124245   2.378   4.239  16.101  0.1414  0.0759 -0.0050
  918TIP3    H224246   2.503   4.230  16.015 -0.3073 -0.5865 -0.5888
  919TIP3   OH224247   3.795   5.973  13.478 -0.3450 -0.5600  0.5259
  919TIP3    H124248   3.867   5.910  13.473 -0.1026 -0.2312 -0.2592
  919TIP3    H224249   3.822   6.045  13.421 -0.7310  0.1462  1.2232
  920TIP3   OH224250   1.798   6.711   1.450 -0.2103 -0.1348  0.3544
  920TIP3    H124251   1.720   6.758   1.422  0.0269 -0.5477 -1.0675
  920TIP3    H224252   1.787   6.702   1.545 -1.9342 -0.2770  0.1802
  921TIP3   OH224253   0.933   3.755   0.196  0.2816 -0.3857  0.1433
  921TIP3    H124254   0.957   3.810   0.121  0.2389  4.5665  3.3091
  921TIP3    H224255   0.840   3.776   0.212  0.4662 -0.7818  1.9252
  922TIP3   OH224256   0.297   4.725  15.804  0.6917  0.1595 -0.4330
  922TIP3    H124257   0.249   4.721  15.721  0.3908 -1.0822 -0.2189
  922TIP3    H224258   0.278   4.641  15.847  1.5261  0.4341  0.5141
  923TIP3   OH224259   5.506   0.737  15.520  0.7600 -0.7678 -0.0167
  923TIP3    H124260   5.535   0.699  15.603  0.3229 -2.0708 -0.4438
  923TIP3    H224261   5.529   0.830  15.528  1.2328 -0.9680  1.3296
  924TIP3   OH224262   1.901   0.043  17.157 -0.4593  0.1321 -0.3330
  924TIP3    H124263   1.853   0.059  17.239  1.3531  2.8943  0.3291
  924TIP3    H224264   1.985   0.086  17.171 -0.0981  0.7219 -3.6911
  925TIP3   OH224265   4.113   2.053  14.375  0.3353  0.1178  0.1318
  925TIP3    H124266   4.183   2.017  14.321  0.1689 -0.7815  0.4962
  925TIP3    H224267   4.040   1.991  14.364  0.2618 -0.0249  1.2946
  926TIP3   OH224268   1.256   0.075  12.592  0.2203  0.4023  0.4494
  926TIP3    H124269   1.332   0.094  12.646 -0.4958 -0.2680  1.7304
  926TIP3    H224270   1.181   0.096  12.647 -0.5338 -0.4714 -0.2105
  927TIP3   OH224271   1.107   2.333  11.172 -0.3057 -0.0117 -0.4014
  927TIP3    H124272   1.191   2.299  11.201 -0.1222 -0.1697 -1.0906
  927TIP3    H224273   1.124   2.366  11.083 -0.9165  0.1582 -0.4618
  928TIP3   OH224274   3.924   3.189  17.108  0.2330  0.3730  0.3986
  928TIP3    H124275   3.939   3.202  17.014 -0.3390 -1.7361 -0.0557
  928TIP3    H224276   3.992   3.240  17.151 -0.1714  2.2958 -1.0990
  929TIP3   OH224277   0.174   3.412  11.466 -0.5295 -0.4000  0.1252
  929TIP3    H124278   0.202   3.398  11.375 -2.0972 -4.0013  0.0069
  929TIP3    H224279   0.136   3.328  11.492 -3.2149  1.5009  3.0363
  930TIP3   OH224280   5.954   4.415  12.098 -0.0283  0.5542 -0.2625
  930TIP3    H124281   5.954   4.510  12.108 -0.9328  0.6683 -1.2270
  930TIP3    H224282   5.862   4.393  12.080  0.3068 -0.4078 -0.8528
  931TIP3   OH224283   6.691   6.251   0.079  0.2422 -0.5509  0.4130
  931TIP3    H124284   6.664   6.220  -0.008 -2.9796 -0.3346  1.1934
  931TIP3    H224285   6.670   6.178   0.137 -1.7703  0.7989  1.4888
  932TIP3   OH224286   4.909   6.738   3.190 -0.2619 -0.2997  0.6754
  932TIP3    H124287   4.970   6.667   3.209  0.2999 -0.4277 -1.3456
  932TIP3    H224288   4.860   6.751   3.272  0.6831 -1.9425  1.5484
  933TIP3   OH224289   4.061   4.532   5.757  0.4061 -0.4229  0.3894
  933TIP3    H124290   3.992   4.576   5.808 -0.5998  1.0986 -2.1258
  933TIP3    H224291   4.038   4.439   5.761 -1.8061  0.0322 -0.3021
  934TIP3   OH224292   0.555   6.158  14.365  0.0795 -0.4287 -0.0984
  934TIP3    H124293   0.500   6.223  14.320 -1.2220 -1.9512 -0.7950
  934TIP3    H224294   0.641   6.168  14.325 -0.5552 -0.3429 -1.5025
  935TIP3   OH224295   0.874   6.118   1.954  0.5755  0.2402  0.4257
  935TIP3    H124296   0.804   6.166   1.997  0.2232 -0.0711  0.2006
  935TIP3    H224297   0.899   6.173   1.880  0.9697  0.6280  0.8436
  936TIP3   OH224298   4.447   0.881  12.348  0.0099  0.1222 -0.4378
  936TIP3    H124299   4.370   0.862  12.294 -0.2205 -0.4141  0.0782
  936TIP3    H224300   4.411   0.917  12.429  0.3006 -0.2336 -0.1527
  937TIP3   OH224301   6.132   1.393   1.796  0.6543  0.2197  0.6110
  937TIP3    H124302   6.213   1.373   1.843  0.6120  1.1305  1.0871
  937TIP3    H224303   6.137   1.487   1.779  0.5225 -0.0344 -0.9392
  938TIP3   OH224304   6.768   3.955  11.785 -0.0074 -0.0623  0.0987
  938TIP3    H124305   6.746   4.023  11.721 -0.8625  0.1389  0.5847
  938TIP3    H224306   6.800   4.004  11.861  0.6326 -0.2779 -0.0326
  939TIP3   OH224307   2.720   2.705  14.026 -0.5958  0.1104  0.1106
  939TIP3    H124308   2.674   2.632  13.986 -0.8037  0.8626 -1.0679
  939TIP3    H224309   2.811   2.675  14.033 -0.2878  0.3609 -2.0714
  940TIP3   OH224310   0.305   6.567  15.220 -0.8727 -0.0238 -0.6716
  940TIP3    H124311   0.345   6.620  15.151 -0.2519  2.0752  1.1878
  940TIP3    H224312   0.379   6.529  15.267 -1.2454 -0.6258 -0.5694
  941TIP3   OH224313   2.756   6.399   5.624 -0.1207 -0.0510  0.6656
  941TIP3    H124314   2.682   6.386   5.565 -0.1713 -0.2562  0.7710
  941TIP3    H224315   2.722   6.457   5.692  0.2707  1.1072 -0.1040
  942TIP3   OH224316   0.712   6.731  10.162 -0.4217  0.1267 -0.1766
  942TIP3    H124317   0.702   6.641  10.192 -1.0710  0.3897  0.4168
  942TIP3    H224318   0.623   6.761  10.145 -0.1401  0.3117 -1.4281
  943TIP3   OH224319   4.823   2.180   6.393 -0.2504 -0.7341 -0.5000
  943TIP3    H124320   4.775   2.262   6.404  0.7426 -0.3115  0.7962
  943TIP3    H224321   4.778   2.137   6.320 -1.7378  0.2634 -0.2267
  944TIP3   OH224322   5.822   5.349   0.166  0.4819 -0.1815  0.1725
  944TIP3    H124323   5.905   5.308   0.140  2.1507  1.2832  2.6827
  944TIP3    H224324   5.803   5.311   0.252 -1.5514 -0.5427 -0.3973
  945TIP3   OH224325   6.742   3.147  12.655  0.0527 -0.6538 -0.5083
  945TIP3    H124326   6.687   3.074  12.682  0.1877  0.1751  2.3563
  945TIP3    H224327   6.830   3.110  12.649 -0.2968 -1.2984 -1.9110
  946TIP3   OH224328   2.723   1.389   4.687  0.3104 -0.2680  0.1816
  946TIP3    H124329   2.809   1.411   4.724  0.2230 -2.2301  1.7056
  946TIP3    H224330   2.670   1.467   4.703  1.4678  0.5389  0.2725
  947TIP3   OH224331   6.617   5.071  11.780 -0.5853  0.4398  0.0011
  947TIP3    H124332   6.587   5.049  11.868  3.3961 -0.3896  1.3666
  947TIP3    H224333   6.653   4.990  11.745  0.8481  1.4629 -1.0376
  948TIP3   OH224334   0.217   4.673  11.559  0.1522 -0.2554 -0.3198
  948TIP3    H124335   0.251   4.762  11.556 -0.5735  0.0490  0.0839
  948TIP3    H224336   0.188   4.662  11.650  1.1150 -1.2501 -0.1082
  949TIP3   OH224337   2.802   4.549   3.615 -0.5045  0.1075 -0.5949
  949TIP3    H124338   2.862   4.607   3.569 -1.6837  1.7784 -0.1204
  949TIP3    H224339   2.850   4.522   3.694  0.1666  0.1617 -0.9743
  950TIP3   OH224340   6.819   0.098   5.269 -0.2630  0.3976 -0.0299
  950TIP3    H124341   6.728   0.069   5.255  0.0120 -0.7802  0.4999
  950TIP3    H224342   6.849   0.046   5.343  1.0345  0.3858 -0.5501
  951TIP3   OH224343   0.197   0.199  16.882 -0.2298  0.2140  0.0002
  951TIP3    H124344   0.172   0.289  16.862 -0.3123 -0.0454 -1.0965
  951TIP3    H224345   0.143   0.175  16.957 -0.8187  0.7944 -0.2340
  952TIP3   OH224346   1.442   5.170  16.266  0.2492  0.6098  0.0159
  952TIP3    H124347   1.468   5.212  16.184 -1.6592  0.8698 -0.5014
  952TIP3    H224348   1.440   5.241  16.330  0.0491  0.7269 -0.1206
  953TIP3   OH224349   2.572   1.532   2.852 -0.2461  0.8230 -0.1816
  953TIP3    H124350   2.490   1.573   2.823  0.2932  0.8908 -1.7055
  953TIP3    H224351   2.546   1.478   2.927 -2.3020 -1.4530 -2.3390
  954TIP3   OH224352   5.534   1.867   1.071  0.1025 -0.3779 -0.1514
  954TIP3    H124353   5.539   1.781   1.115  1.9666  0.3851  1.2918
  954TIP3    H224354   5.535   1.930   1.143  0.7483  0.8878 -1.2246
  955TIP3   OH224355   1.957   1.514   6.189 -0.5174  0.7451 -0.2831
  955TIP3    H124356   1.868   1.499   6.158 -0.5992 -0.0684  0.3198
  955TIP3    H224357   1.971   1.608   6.176 -1.7495  1.0407  0.3494
  956TIP3   OH224358   3.444   2.006   5.391 -0.0078  0.3702 -0.5011
  956TIP3    H124359   3.383   2.013   5.465  0.0337  2.5197 -0.6057
  956TIP3    H224360   3.530   2.020   5.431 -0.0361  2.1895 -0.9810
  957TIP3   OH224361   4.364   5.305  16.638 -0.7567  0.7341  0.3123
  957TIP3    H124362   4.372   5.375  16.573 -1.4595 -0.5560 -1.2449
  957TIP3    H224363   4.438   5.318  16.696  0.0384  1.8195 -0.8833
  958TIP3   OH224364   6.441   1.122   2.851 -0.2437 -0.3391  0.0218
  958TIP3    H124365   6.350   1.098   2.836 -0.4647  0.6023 -0.2633
  958TIP3    H224366   6.482   1.118   2.764  0.1540 -1.3995  0.2524
  959TIP3   OH224367   4.433   5.894  13.908  0.4758 -0.1660 -0.2771
  959TIP3    H124368   4.458   5.818  13.855 -0.1785  0.1951 -1.1355
  959TIP3    H224369   4.495   5.962  13.883  0.6897 -0.2451  0.0450
  960TIP3   OH224370   1.423   0.013  13.286  0.1210  0.3331 -0.4588
  960TIP3    H124371   1.363  -0.052  13.324  0.5556 -0.1120 -0.5335
  960TIP3    H224372   1.455  -0.028  13.206  0.1221  0.7889 -0.6937
  961TIP3   OH224373   3.963   4.513   2.246 -0.3190 -0.3103 -0.0928
  961TIP3    H124374   3.933   4.473   2.165 -3.4344  1.8561 -0.1327
  961TIP3    H224375   3.917   4.465   2.315  0.1734 -0.3125  0.2470
  962TIP3   OH224376   4.123   6.635   0.586 -0.5401 -0.0527 -0.5183
  962TIP3    H124377   4.091   6.693   0.517  1.4041  1.8366  0.0537
  962TIP3    H224378   4.046   6.585   0.613 -2.0345  1.3573 -1.9145
  963TIP3   OH224379   0.532   0.512  11.312  0.9424  0.0169  0.1762
  963TIP3    H124380   0.546   0.603  11.339  1.1834  0.5104 -1.5057
  963TIP3    H224381   0.463   0.517  11.246 -0.7309 -1.3310  1.7352
  964TIP3   OH224382   3.627   6.674  12.939 -0.0618  0.2804 -0.0494
  964TIP3    H124383   3.593   6.751  12.984  1.8894  1.0536  0.1888
  964TIP3    H224384   3.615   6.602  13.002 -1.0709  0.5401  0.0756
  965TIP3   OH224385   1.755   2.793   3.763 -0.4969  0.1735  0.2588
  965TIP3    H124386   1.837   2.841   3.776  0.5496 -1.8285  1.6301
  965TIP3    H224387   1.709   2.803   3.847 -1.1853  0.4145 -0.1445
  966TIP3   OH224388   3.959   4.066  15.379  0.4370  0.3868 -0.1719
  966TIP3    H124389   3.971   4.060  15.473  0.7764 -0.7207 -0.2683
  966TIP3    H224390   4.044   4.042  15.342 -0.0026 -0.2809 -0.7680
  967TIP3   OH224391   2.129   1.846   1.626  0.6430  0.3382 -0.0618
  967TIP3    H124392   2.129   1.901   1.705  3.0751  1.8811 -1.0327
  967TIP3    H224393   2.041   1.857   1.590 -1.0224 -1.4191  2.9688
  968TIP3   OH224394   1.793   4.723  12.138 -0.4970 -0.0526  0.0242
  968TIP3    H124395   1.802   4.778  12.060 -1.0828 -0.1472 -0.1097
  968TIP3    H224396   1.871   4.744  12.190 -1.4767  2.1336  0.7475
  969TIP3   OH224397   5.394   4.281  15.653  0.2637  0.4662  0.3306
  969TIP3    H124398   5.437   4.261  15.736 -0.7062 -0.3794  0.6633
  969TIP3    H224399   5.335   4.353  15.673 -1.5079 -1.0740  0.9411
  970TIP3   OH224400   5.146   1.309   4.579 -0.0895 -0.4773 -0.2931
  970TIP3    H124401   5.130   1.394   4.539  0.8127 -0.7113 -1.2064
  970TIP3    H224402   5.058   1.276   4.601 -0.3764  1.2497  1.3604
  971TIP3   OH224403   2.595   1.538  13.759 -0.2624 -0.1113  1.1423
  971TIP3    H124404   2.548   1.456  13.772  0.2162 -0.3356  1.4551
  971TIP3    H224405   2.625   1.563  13.846  2.8401 -1.5498  0.6070
  972TIP3   OH224406   3.601   6.220  16.959  0.2261 -0.1917  0.4225
  972TIP3    H124407   3.508   6.200  16.968  0.3284 -1.1511 -0.4975
  972TIP3    H224408   3.641   6.184  17.038  0.0346 -1.2533  0.0503
  973TIP3   OH224409   5.722   0.173  10.969  0.6662 -0.2128 -0.2797
  973TIP3    H124410   5.737   0.125  10.888 -2.1807 -0.6553 -0.6723
  973TIP3    H224411   5.643   0.225  10.952  1.5423  1.8113  1.3416
  974TIP3   OH224412   6.029   5.245   4.986  0.1807 -0.0595  0.9048
  974TIP3    H124413   5.990   5.330   4.963 -0.5114 -0.5066  0.3922
  974TIP3    H224414   6.006   5.234   5.078  1.6691  1.0431  1.4460
  975TIP3   OH224415   3.678   3.964   0.981  0.0089 -0.3506  0.4728
  975TIP3    H124416   3.710   3.986   0.894 -1.8394 -1.2688 -0.5098
  975TIP3    H224417   3.661   4.049   1.022 -1.3862  0.1610 -1.0180
  976TIP3   OH224418   4.532   5.775   5.759 -0.3603 -0.4892  0.0347
  976TIP3    H124419   4.594   5.795   5.830  1.3906  1.4963 -1.9201
  976TIP3    H224420   4.463   5.841   5.768 -0.9411 -1.1675  0.7277
  977TIP3   OH224421   0.984   3.801  14.426  0.6040 -0.4043 -0.3216
  977TIP3    H124422   0.999   3.895  14.438  0.8736 -0.7825  3.5414
  977TIP3    H224423   0.895   3.796  14.392  1.0273  1.2169 -1.8619
  978TIP3   OH224424   2.233   2.389   2.627 -0.2606  0.9880  0.0964
  978TIP3    H124425   2.322   2.405   2.655 -0.2257  1.5111 -0.2916
  978TIP3    H224426   2.213   2.462   2.567 -0.0007 -0.5266 -1.9629
  979TIP3   OH224427   5.509   0.947  14.145 -0.1685  0.8368  0.0677
  979TIP3    H124428   5.595   0.950  14.188  0.7788  1.0822 -1.7132
  979TIP3    H224429   5.460   0.880  14.193  0.5784  1.5340  1.8730
  980TIP3   OH224430   3.424   2.735  13.429  0.0214  0.2989  0.0626
  980TIP3    H124431   3.461   2.659  13.384  0.4887  0.0906  0.7962
  980TIP3    H224432   3.497   2.797  13.434 -0.4834  1.0047 -0.9691
  981TIP3   OH224433   1.123   2.236  11.714  0.3101 -0.0853 -0.5290
  981TIP3    H124434   1.164   2.149  11.721  1.2533  0.3982  0.2864
  981TIP3    H224435   1.065   2.229  11.638  1.1852 -1.1077 -1.1446
  982TIP3   OH224436   4.827   6.330   3.257  0.3231 -0.0300  0.7528
  982TIP3    H124437   4.821   6.306   3.349  1.5796 -1.0009  0.6102
  982TIP3    H224438   4.736   6.344   3.229 -0.0156  1.3352  2.3719
  983TIP3   OH224439   0.255   5.654   1.988 -0.0935  0.5939 -0.3922
  983TIP3    H124440   0.320   5.592   1.953 -0.0526  0.5823 -0.2966
  983TIP3    H224441   0.258   5.639   2.082  0.4482  1.2603 -0.2989
  984TIP3   OH224442   0.145   5.493   3.871 -0.8150 -0.5547  0.1905
  984TIP3    H124443   0.082   5.525   3.807  0.1509  0.3507 -0.3384
  984TIP3    H224444   0.141   5.557   3.942 -1.5883 -1.3340  0.8661
  985TIP3   OH224445   5.934   4.703   5.692 -0.0309 -0.3117 -0.3194
  985TIP3    H124446   5.895   4.705   5.604 -1.0257 -0.1899  0.1180
  985TIP3    H224447   5.870   4.746   5.748 -0.0776 -1.6705  0.7234
  986TIP3   OH224448   3.256   2.582   1.883 -1.3947 -1.1160 -0.0928
  986TIP3    H124449   3.287   2.498   1.919 -0.0223 -0.7547 -0.3575
  986TIP3    H224450   3.336   2.635   1.878 -2.0547 -0.2073 -1.0585
  987TIP3   OH224451   2.982   4.007   1.584 -0.3055 -0.0450  0.2369
  987TIP3    H124452   3.050   4.042   1.526  0.8343 -0.0562  1.5061
  987TIP3    H224453   3.016   3.922   1.611 -0.7755 -0.0136  0.9474
  988TIP3   OH224454   0.835   1.707  13.745 -0.3674 -0.4501  0.1478
  988TIP3    H124455   0.787   1.665  13.674 -0.4822 -0.8212  0.4391
  988TIP3    H224456   0.767   1.742  13.803 -0.2667  0.9502 -0.5630
  989TIP3   OH224457   2.237   2.113  15.210  0.1658 -0.0589 -0.3289
  989TIP3    H124458   2.217   2.176  15.279  0.5227 -0.9662  0.6393
  989TIP3    H224459   2.190   2.033  15.236  2.0617 -1.1093  0.0808
  990TIP3   OH224460   3.875   3.686   2.596  0.8965 -0.0117  0.1245
  990TIP3    H124461   3.838   3.665   2.681  1.1537 -1.4162 -0.0964
  990TIP3    H224462   3.799   3.707   2.541  0.6253 -0.5016  0.3133
  991TIP3   OH224463   2.250   6.381   5.014  0.1308  0.0178  0.4668
  991TIP3    H124464   2.253   6.303   4.958 -0.2282 -0.3939  1.0107
  991TIP3    H224465   2.176   6.365   5.073  0.2835  0.6074  0.8209
  992TIP3   OH224466   3.820   0.312  11.812  0.0552 -0.5186  0.1671
  992TIP3    H124467   3.774   0.364  11.878  0.1565  0.9891 -0.8931
  992TIP3    H224468   3.860   0.240  11.861 -0.0460  0.4417  1.7029
  993TIP3   OH224469   5.569   0.744  15.241  0.4765 -0.1668  0.4903
  993TIP3    H124470   5.537   0.705  15.323  0.1292  2.2684  1.6131
  993TIP3    H224471   5.661   0.765  15.259 -0.0099  1.8372  0.9284
  994TIP3   OH224472   3.467   3.316  11.477 -0.1175  0.0607 -0.0849
  994TIP3    H124473   3.455   3.382  11.545 -0.4462 -1.5646  1.5073
  994TIP3    H224474   3.562   3.314  11.462  0.0785 -0.3259  1.1350
  995TIP3   OH224475   5.435   5.841  11.558 -0.5254  0.1433  0.1394
  995TIP3    H124476   5.410   5.775  11.493 -1.9254 -0.2628  1.0421
  995TIP3    H224477   5.355   5.891  11.572  0.3509  1.6374 -0.0465
  996TIP3   OH224478   5.520   1.859  13.414  0.7629 -0.3580 -0.5484
  996TIP3    H124479   5.516   1.937  13.359 -0.4204  0.3158  0.4435
  996TIP3    H224480   5.432   1.822  13.410  1.0178 -1.0361 -0.1305
  997TIP3   OH224481   4.086   5.580   3.907 -0.1738 -0.6658  0.3029
  997TIP3    H124482   4.003   5.548   3.874 -0.0134  0.2849 -1.0934
  997TIP3    H224483   4.143   5.502   3.910 -0.2561 -0.8240 -1.5053
  998TIP3   OH224484   3.698   6.044  17.161 -0.3483  0.6804  0.1602
  998TIP3    H124485   3.623   5.984  17.165 -0.5867  0.6535 -2.5250
  998TIP3    H224486   3.774   5.989  17.180 -0.8085  0.1788  0.5740
  999TIP3   OH224487   5.338   5.927   5.380  0.0196  0.0242 -0.4204
  999TIP3    H124488   5.314   5.948   5.290 -0.1478  0.8160 -0.2026
  999TIP3    H224489   5.316   6.006   5.430  1.8765  0.3313  0.0058
 1000TIP3   OH224490   6.022   5.164   1.396 -0.2105 -0.2071 -0.0384
 1000TIP3    H124491   5.983   5.134   1.478 -2.1912 -0.5076 -1.0324
 1000TIP3    H224492   5.948   5.181   1.339  1.0088  2.0697 -1.1147
 1001TIP3   OH224493   0.694   3.791  16.431 -0.4101 -1.1196 -0.7429
 1001TIP3    H124494   0.756   3.857  16.401  0.8255 -1.7700  0.2442
 1001TIP3    H224495   0.609   3.832  16.422  0.1982  0.0091 -1.6451
 1002TIP3   OH224496   2.415   3.533  16.056 -0.6603 -1.2356  0.0647
 1002TIP3    H124497   2.338   3.505  16.107 -0.3763 -0.3146  1.0395
 1002TIP3    H224498   2.482   3.549  16.122 -0.3141  0.0977 -0.5881
 1003TIP3   OH224499   1.488   6.181   5.548  0.2339 -0.5680 -0.0540
 1003TIP3    H124500   1.445   6.224   5.622 -1.6442  0.1371 -1.4708
 1003TIP3    H224501   1.582   6.188   5.567 -0.1722  0.4351  1.7768
 1004TIP3   OH224502   5.406   5.653  11.370  0.4859 -0.3572  0.0831
 1004TIP3    H124503   5.314   5.670  11.350  0.9105  1.1762 -0.6815
 1004TIP3    H224504   5.450   5.654  11.285  1.3339 -0.2229  0.5141
 1005TIP3   OH224505   0.413   3.126  13.873 -0.2343  0.1188 -0.8211
 1005TIP3    H124506   0.384   3.058  13.935  2.4287 -2.6637 -2.3605
 1005TIP3    H224507   0.483   3.172  13.919 -0.1270 -0.0769 -0.7899
 1006TIP3   OH224508   4.045   2.089   5.441 -0.2616 -0.3539 -0.2688
 1006TIP3    H124509   4.079   2.179   5.439  0.7398 -0.7298 -2.0026
 1006TIP3    H224510   4.122   2.035   5.459 -0.8468 -0.8955  0.6691
 1007TIP3   OH224511   2.499   1.047  16.340 -0.1748 -0.1914  0.7378
 1007TIP3    H124512   2.405   1.060  16.341 -0.1801 -0.2232  0.6838
 1007TIP3    H224513   2.536   1.133  16.358 -0.1822  0.2733 -1.2011
 1008TIP3   OH224514   0.696   0.713  15.807 -0.1473 -0.8638 -0.1233
 1008TIP3    H124515   0.600   0.716  15.808 -0.1687 -1.1718  1.7158
 1008TIP3    H224516   0.723   0.805  15.807 -0.5016 -0.6881  2.5752
 1009TIP3   OH224517   5.355   0.272   6.371 -0.5336  0.5781  0.0690
 1009TIP3    H124518   5.328   0.184   6.345 -0.9764  0.6369  0.3171
 1009TIP3    H224519   5.438   0.260   6.416 -1.9202 -0.0684  2.6104
 1010TIP3   OH224520   5.869   2.187  12.222  0.1648 -0.2270  0.1349
 1010TIP3    H124521   5.853   2.229  12.306  1.8917  0.0904  0.3532
 1010TIP3    H224522   5.910   2.255  12.168 -0.2506 -0.6313 -0.7214
 1011TIP3   OH224523   3.865   6.758   2.558 -0.6744 -0.1684  0.3997
 1011TIP3    H124524   3.936   6.811   2.523 -1.8381  1.2177  0.0280
 1011TIP3    H224525   3.905   6.674   2.577  0.9035  0.3489 -0.4360
 1012TIP3   OH224526   5.650   6.177   3.920  0.5022 -0.2796  0.3962
 1012TIP3    H124527   5.726   6.235   3.917  0.9075 -0.6833  1.9495
 1012TIP3    H224528   5.686   6.090   3.934 -0.2326 -0.4275  1.5556
 1013TIP3   OH224529   5.151   6.041  12.547  0.0838 -0.0323  0.2721
 1013TIP3    H124530   5.230   6.017  12.499  0.1263  2.4733 -1.0915
 1013TIP3    H224531   5.155   6.136  12.553 -2.3759  0.0955  0.9802
 1014TIP3   OH224532   3.181   3.602  13.530 -0.0876 -0.1715  0.1467
 1014TIP3    H124533   3.158   3.535  13.595 -1.0272  0.4456  0.4746
 1014TIP3    H224534   3.227   3.554  13.461 -0.9391 -1.2029  0.2655
 1015TIP3   OH224535   5.171   4.877  14.334  0.2519  0.0494  0.3146
 1015TIP3    H124536   5.099   4.858  14.274  0.1882 -0.4144  0.5312
 1015TIP3    H224537   5.250   4.865  14.282  0.2646 -1.8918  0.6887
 1016TIP3   OH224538   3.859   4.074  16.935  0.1800 -0.5576  0.4419
 1016TIP3    H124539   3.802   4.011  16.980  1.1431 -1.3196  0.6412
 1016TIP3    H224540   3.944   4.063  16.978  0.3432  0.9739  0.5495
 1017TIP3   OH224541   6.026   6.142  14.883  0.2256  0.4244 -0.0787
 1017TIP3    H124542   6.022   6.105  14.972  0.3210 -1.9027 -0.9826
 1017TIP3    H224543   6.117   6.169  14.873  0.7057 -1.1356 -0.1248
 1018TIP3   OH224544   1.993   0.129  15.076 -0.0108 -0.1055  0.2478
 1018TIP3    H124545   1.944   0.172  15.007  0.1489  0.5833  0.5610
 1018TIP3    H224546   1.976   0.035  15.063 -0.7908  0.0826 -0.1093
 1019TIP3   OH224547   6.465   3.905   2.876  0.5758  0.6495 -0.1142
 1019TIP3    H124548   6.443   3.871   2.790  0.9362 -0.5372  0.2460
 1019TIP3    H224549   6.522   3.839   2.915  1.9023  2.0068  0.3525
 1020TIP3   OH224550   4.827   5.241  13.324 -0.7524 -0.4035  0.5253
 1020TIP3    H124551   4.866   5.160  13.356  2.0207  0.4970 -0.2797
 1020TIP3    H224552   4.796   5.220  13.236 -2.4672 -1.2077  1.2825
 1021TIP3   OH224553   0.316   2.765  12.715 -0.8637 -0.6125 -0.5087
 1021TIP3    H124554   0.251   2.728  12.655 -0.1967  0.0198 -1.6402
 1021TIP3    H224555   0.381   2.695  12.725 -0.4037 -0.3249 -1.4173
 1022TIP3   OH224556   4.512   3.264  11.243 -0.1696 -0.2171 -0.1046
 1022TIP3    H124557   4.462   3.183  11.239 -0.6720  0.0697  0.2610
 1022TIP3    H224558   4.460   3.327  11.193  0.0771 -0.0419 -0.1448
 1023TIP3   OH224559   4.482   3.639   1.195 -0.2560 -0.1291  1.0176
 1023TIP3    H124560   4.412   3.600   1.248  1.1986 -1.0247  2.3956
 1023TIP3    H224561   4.484   3.586   1.115 -3.2045  1.9253 -0.5903
 1024TIP3   OH224562   3.677   1.983  16.460  0.3978  0.9976 -0.3456
 1024TIP3    H124563   3.663   1.929  16.537 -0.5455 -0.9030 -1.7780
 1024TIP3    H224564   3.701   2.069  16.495  0.1979  0.1504  2.0312
 1025TIP3   OH224565   1.527   3.649   6.311 -0.6391 -0.2487  0.0522
 1025TIP3    H124566   1.561   3.609   6.391 -0.3855  1.0192  0.6000
 1025TIP3    H224567   1.552   3.741   6.317 -3.1508  0.5364 -0.0423
 1026TIP3   OH224568   0.422   1.354  15.217 -0.1154 -0.0557 -0.1546
 1026TIP3    H124569   0.482   1.409  15.167  2.8041 -2.3334  0.4798
 1026TIP3    H224570   0.393   1.409  15.290  1.5566  1.1054 -0.3058
 1027TIP3   OH224571   5.403   2.629  17.101 -0.4427  0.0451  0.5965
 1027TIP3    H124572   5.358   2.670  17.176  0.0642 -0.9463  1.4760
 1027TIP3    H224573   5.346   2.556  17.077  0.5350 -1.0980  1.5912
 1028TIP3   OH224574   2.306   0.579  12.824  0.3119 -0.1355  0.4428
 1028TIP3    H124575   2.273   0.508  12.768  1.3713  0.0177 -0.4147
 1028TIP3    H224576   2.276   0.556  12.912 -1.5247 -0.3133 -0.1879
 1029TIP3   OH224577   4.004   1.290  10.610  0.0277 -0.4505 -1.0517
 1029TIP3    H124578   4.096   1.263  10.601  0.0080 -2.1596  2.4243
 1029TIP3    H224579   4.008   1.383  10.631  1.0950 -0.7217  0.0780
 1030TIP3   OH224580   1.575   2.109  14.655 -0.3595 -0.1661  0.2762
 1030TIP3    H124581   1.510   2.137  14.720 -0.1152 -0.2497  0.5633
 1030TIP3    H224582   1.557   2.163  14.578 -0.0042  0.6696  0.7636
 1031TIP3   OH224583   2.134   3.675   3.471 -0.2118 -0.3130 -0.4057
 1031TIP3    H124584   2.066   3.725   3.515  0.9936 -1.1564  2.7007
 1031TIP3    H224585   2.090   3.595   3.440 -0.6795 -0.8970  1.6396
 1032TIP3   OH224586   2.231   1.660   5.453 -0.0324  0.7649 -0.1036
 1032TIP3    H124587   2.249   1.678   5.545  0.0026 -1.3378  0.3593
 1032TIP3    H224588   2.304   1.700   5.406  0.0022  1.7707  0.7817
 1033TIP3   OH224589   0.696   1.411   5.323  0.3112  0.2734  0.5669
 1033TIP3    H124590   0.742   1.412   5.407 -0.7799 -1.8540  1.2512
 1033TIP3    H224591   0.625   1.474   5.334  1.8856  2.2557  0.1130
 1034TIP3   OH224592   1.428   2.416   6.310 -0.4952 -0.0258  0.1308
 1034TIP3    H124593   1.394   2.378   6.229  1.9908  0.1800 -1.1269
 1034TIP3    H224594   1.462   2.341   6.359  1.6182  0.1513 -0.9377
 1035TIP3   OH224595   5.784   3.814   5.093 -0.4988 -0.5555  0.2825
 1035TIP3    H124596   5.733   3.844   5.168 -0.9841 -0.0215 -0.2443
 1035TIP3    H224597   5.738   3.850   5.017  0.7768  0.1405 -0.2003
 1036TIP3   OH224598   3.161   1.566  15.651 -0.5625  0.1265 -0.0846
 1036TIP3    H124599   3.172   1.520  15.734 -0.2820 -0.3503 -0.3855
 1036TIP3    H224600   3.194   1.654  15.668 -0.1368 -0.0864  0.1988
 1037TIP3   OH224601   1.975   0.637  15.417 -0.2099  0.2680 -0.3222
 1037TIP3    H124602   2.036   0.564  15.422 -0.3535  0.1979  0.4240
 1037TIP3    H224603   2.029   0.711  15.388  0.1038  0.0689 -0.2498
 1038TIP3   OH224604   0.191   4.434  17.144  0.0499  0.0108  0.4615
 1038TIP3    H124605   0.169   4.512  17.094 -0.4612 -0.1883  0.3650
 1038TIP3    H224606   0.132   4.366  17.109  1.1783 -0.6749 -0.1608
 1039TIP3   OH224607   3.302   1.168  13.064  0.1916  0.0357  0.7625
 1039TIP3    H124608   3.235   1.154  13.132  0.3393 -0.2037  0.8598
 1039TIP3    H224609   3.358   1.090  13.069  0.0435 -0.1169  0.1808
 1040TIP3   OH224610   3.814   3.025   0.890  0.5877  0.4385  0.1080
 1040TIP3    H124611   3.855   2.957   0.944  0.9086  0.3999 -0.1823
 1040TIP3    H224612   3.760   2.978   0.827  1.3583  0.4094 -0.5501
 1041TIP3   OH224613   2.257   3.399   3.562 -0.9012  0.0796  0.2850
 1041TIP3    H124614   2.269   3.431   3.472  0.1782  0.7743  0.6636
 1041TIP3    H224615   2.321   3.329   3.571  0.1345  1.0925  1.0171
 1042TIP3   OH224616   3.258   3.788   6.233  0.1068 -0.1151  0.3352
 1042TIP3    H124617   3.334   3.776   6.175  0.0766  1.9275 -0.2219
 1042TIP3    H224618   3.183   3.794   6.173 -0.1978 -0.0681  0.7215
 1043TIP3   OH224619   1.496   4.202   4.933 -0.8678  0.1673  0.9221
 1043TIP3    H124620   1.428   4.141   4.906  1.2439 -1.6987 -0.5762
 1043TIP3    H224621   1.499   4.195   5.028 -0.7176 -2.0825  0.7952
 1044TIP3   OH224622   0.127   1.713   4.483 -0.2873  0.1634 -0.3258
 1044TIP3    H124623   0.104   1.786   4.426  2.0658 -0.3919 -2.1200
 1044TIP3    H224624   0.215   1.688   4.456  0.7712 -0.5239  3.1838
 1045TIP3   OH224625   3.319   6.526  12.756 -0.0196  0.4712 -0.1016
 1045TIP3    H124626   3.397   6.579  12.736  0.0086  0.0661 -1.1105
 1045TIP3    H224627   3.333   6.496  12.846  0.8047  0.7320 -0.1348
 1046TIP3   OH224628   1.271   4.822   1.669 -0.0022  0.5312 -0.4436
 1046TIP3    H124629   1.356   4.856   1.639  0.2723  0.2236 -0.0314
 1046TIP3    H224630   1.213   4.830   1.594  0.5337  0.2510 -0.8884
 1047TIP3   OH224631   2.525   4.960  14.880  0.1563  0.2979  0.2838
 1047TIP3    H124632   2.537   4.871  14.912 -0.6370 -0.4741 -1.3853
 1047TIP3    H224633   2.576   4.964  14.799 -1.7601  0.4917 -1.0063
 1048TIP3   OH224634   1.309   2.269  16.905  0.2464  0.1512  0.1845
 1048TIP3    H124635   1.384   2.266  16.965 -1.5784  2.1278  2.7546
 1048TIP3    H224636   1.304   2.360  16.877 -1.0074 -0.0059 -0.1625
 1049TIP3   OH224637   3.341   1.336   3.893 -0.1539 -0.4461  0.3941
 1049TIP3    H124638   3.284   1.345   3.969 -1.2204 -0.1284 -0.4204
 1049TIP3    H224639   3.375   1.424   3.877  1.5926 -0.8550  1.6228
 1050TIP3   OH224640   2.902   3.967  13.740 -0.1972  0.0493 -0.1368
 1050TIP3    H124641   2.818   3.938  13.704 -0.7461  1.3215  0.0327
 1050TIP3    H224642   2.965   3.949  13.670 -0.6252 -0.8140 -0.3154
 1051TIP3   OH224643   6.315   2.146  16.999  0.2306 -0.1566  0.2805
 1051TIP3    H124644   6.304   2.143  16.904 -0.9967  0.8522  0.3649
 1051TIP3    H224645   6.395   2.096  17.016  1.5542  1.2381 -1.4747
 1052TIP3   OH224646   6.409   0.662   0.383 -0.2055  0.3153  0.0381
 1052TIP3    H124647   6.403   0.735   0.322  0.7982 -2.0662 -3.1509
 1052TIP3    H224648   6.501   0.661   0.412 -0.6732  1.4295  1.7249
 1053TIP3   OH224649   4.128   5.512   5.649 -0.2255 -0.0356  0.2082
 1053TIP3    H124650   4.118   5.417   5.645 -2.1538  0.1822 -2.0265
 1053TIP3    H224651   4.222   5.525   5.659  0.3048 -2.1836 -1.2043
 1054TIP3   OH224652   1.858   4.916  12.385  0.0586 -0.3871 -0.9379
 1054TIP3    H124653   1.949   4.898  12.362  0.9315  2.0031  0.2478
 1054TIP3    H224654   1.824   4.966  12.311  0.1842 -0.0473 -0.7706
 1055TIP3   OH224655   0.571   0.775  17.082 -0.4601 -0.0373  0.0367
 1055TIP3    H124656   0.650   0.775  17.135  0.6069 -0.4523 -1.5012
 1055TIP3    H224657   0.601   0.759  16.992 -2.0542  1.8371 -0.9196
 1056TIP3   OH224658   6.331   1.741   2.172 -0.0277  0.4018 -0.0543
 1056TIP3    H124659   6.313   1.655   2.210  0.7398  1.0547  1.9333
 1056TIP3    H224660   6.426   1.750   2.179  0.0587  0.8797 -1.5170
 1057TIP3   OH224661   4.882   4.430  15.968 -0.1229  0.2782  0.0929
 1057TIP3    H124662   4.949   4.371  15.934 -0.8166  0.2603 -1.3153
 1057TIP3    H224663   4.922   4.517  15.963 -0.1356  0.2497 -0.5711
 1058TIP3   OH224664   6.540   4.424   1.920 -0.1127  0.2744 -0.5302
 1058TIP3    H124665   6.488   4.354   1.959 -0.0198  0.0365 -0.8249
 1058TIP3    H224666   6.503   4.436   1.832  0.4519 -0.0398 -0.8182
 1059TIP3   OH224667   4.655   3.021   4.789  0.2104  0.0105 -0.4605
 1059TIP3    H124668   4.574   3.019   4.738  0.7688 -0.3247 -1.3658
 1059TIP3    H224669   4.722   2.990   4.728  1.3111  1.8527 -0.2573
 1060TIP3   OH224670   2.709   1.416   6.250 -0.4144 -0.0705  0.5230
 1060TIP3    H124671   2.746   1.329   6.234 -1.4416 -0.2084 -1.4305
 1060TIP3    H224672   2.638   1.423   6.187  0.1752  2.5335  0.0465
 1061TIP3   OH224673   0.711   6.128  16.075 -0.8854 -0.5291  0.1701
 1061TIP3    H124674   0.709   6.149  16.168 -1.2389 -0.2581  0.1066
 1061TIP3    H224675   0.759   6.046  16.069  1.2786  0.6612  0.3498
 1062TIP3   OH224676   5.699   5.084  16.052  0.3417  0.1099  0.3897
 1062TIP3    H124677   5.724   4.994  16.071  1.4326  0.2420 -0.2967
 1062TIP3    H224678   5.654   5.114  16.130 -0.8615 -1.3141  0.2859
 1063TIP3   OH224679   5.635   6.801  14.641  0.0853 -0.0378 -0.1377
 1063TIP3    H124680   5.623   6.862  14.714 -0.8712  1.8323 -1.7907
 1063TIP3    H224681   5.731   6.793  14.633  0.2191 -0.7295  1.6223
 1064TIP3   OH224682   6.547   4.164  12.785  0.8748 -0.1114  0.2248
 1064TIP3    H124683   6.473   4.150  12.845  0.2317 -1.6163 -0.8512
 1064TIP3    H224684   6.568   4.257  12.794  1.8684 -0.5332  3.9572
 1065TIP3   OH224685   0.724   0.824  15.307 -0.1642  0.2957  0.1066
 1065TIP3    H124686   0.776   0.764  15.254 -0.3109  0.3934 -0.1522
 1065TIP3    H224687   0.635   0.818  15.271 -0.2904  0.2756  0.4167
 1066TIP3   OH224688   3.774   2.334   2.372 -0.1794 -0.2097  0.3598
 1066TIP3    H124689   3.763   2.282   2.452 -0.5515  1.0587  1.1561
 1066TIP3    H224690   3.702   2.396   2.373  0.4706  0.5839 -0.3798
 1067TIP3   OH224691   4.711   2.821   3.410  0.1055 -0.5492  0.3065
 1067TIP3    H124692   4.722   2.825   3.505 -0.9864  0.3986  0.4213
 1067TIP3    H224693   4.800   2.819   3.375  0.5394  0.5206  1.2955
 1068TIP3   OH224694   4.407   0.201   0.039 -0.2116  0.9669  0.1548
 1068TIP3    H124695   4.363   0.117   0.053  0.1509  0.2816 -2.2758
 1068TIP3    H224696   4.336   0.264   0.025 -0.4683  0.7174  0.3408
 1069TIP3   OH224697   4.876   2.153   3.460  0.9350  0.1220  0.2547
 1069TIP3    H124698   4.781   2.142   3.468  1.1055 -1.5702  0.2498
 1069TIP3    H224699   4.912   2.114   3.539  1.6851 -0.3349 -0.2998
 1070TIP3   OH224700   1.486   4.234   3.456  0.0780  0.0325  0.5836
 1070TIP3    H124701   1.576   4.203   3.470  0.0778  0.3494  1.3066
 1070TIP3    H224702   1.481   4.316   3.505 -0.2772  0.5887 -0.3580
 1071TIP3   OH224703   0.236   5.930   1.900  0.7635 -0.6098 -0.5755
 1071TIP3    H124704   0.294   5.921   1.824  1.6922 -1.1683  0.1847
 1071TIP3    H224705   0.236   5.844   1.940 -1.2950 -0.8636 -1.0284
 1072TIP3   OH224706   4.522   6.519  10.538  0.7484  0.4144  0.0908
 1072TIP3    H124707   4.479   6.598  10.505 -0.5555  0.0326  0.8049
 1072TIP3    H224708   4.472   6.495  10.616  1.6752 -0.6219  0.3947
 1073TIP3   OH224709   2.942   5.776   3.960  0.7115  0.1461 -0.0296
 1073TIP3    H124710   2.956   5.788   4.053 -0.7451  0.8334  0.1337
 1073TIP3    H224711   2.889   5.696   3.953  1.7724 -0.5519 -0.3719
 1074TIP3   OH224712   6.804   2.133   0.131 -0.3105 -0.3282  0.4586
 1074TIP3    H124713   6.785   2.198   0.199 -0.3488  1.1371 -0.8793
 1074TIP3    H224714   6.899   2.135   0.121 -0.0520 -2.2112  1.9867
 1075TIP3   OH224715   3.496   5.171   5.870  0.3894  0.1792 -0.5348
 1075TIP3    H124716   3.505   5.159   5.964  0.5444 -2.0663 -0.7809
 1075TIP3    H224717   3.475   5.084   5.836 -1.1336  1.1824 -2.4332
 1076TIP3   OH224718   4.285   0.485  13.971 -0.5033  0.3920 -0.4048
 1076TIP3    H124719   4.207   0.468  13.919 -1.1700 -0.0136  0.6839
 1076TIP3    H224720   4.277   0.577  13.997  0.0844  0.7398 -1.3999
 1077TIP3   OH224721   1.853   3.060   0.688  0.3691 -0.0845  0.3605
 1077TIP3    H124722   1.925   3.085   0.629  1.2192 -1.7300  0.6661
 1077TIP3    H224723   1.798   3.003   0.635 -0.2691  0.4963  0.3894
 1078TIP3   OH224724   5.570   2.805  13.526  0.2513 -0.2329  0.3888
 1078TIP3    H124725   5.657   2.766  13.534  0.7146  0.7267  0.2283
 1078TIP3    H224726   5.512   2.744  13.571  0.9068 -1.2041 -0.0354
 1079TIP3   OH224727   2.779   6.492   3.180  0.2909  0.3029 -0.0121
 1079TIP3    H124728   2.703   6.458   3.227  0.2032  0.7043  0.1319
 1079TIP3    H224729   2.771   6.454   3.092 -0.5905  1.0868 -0.2877
 1080TIP3   OH224730   0.749   0.041  12.658 -0.4478  0.1862  0.5271
 1080TIP3    H124731   0.692   0.084  12.722  0.5547  2.5605 -0.0754
 1080TIP3    H224732   0.748   0.098  12.582  2.5154  0.2236  0.4002
 1081TIP3   OH224733   2.872   6.477   0.447  0.4380  0.3393 -0.9228
 1081TIP3    H124734   2.803   6.529   0.406  0.1582  0.9463  0.2658
 1081TIP3    H224735   2.866   6.391   0.405  0.2667  0.9666 -2.2247
 1082TIP3   OH224736   5.515   1.796   0.385 -0.5668  0.7558 -0.4622
 1082TIP3    H124737   5.496   1.873   0.439  1.1110  0.5695  0.4750
 1082TIP3    H224738   5.536   1.831   0.299  1.5819  1.5487  0.3112
 1083TIP3   OH224739   4.030   4.887   6.380  0.3459  0.4917 -0.2305
 1083TIP3    H124740   4.046   4.968   6.427 -1.2814  3.1204 -3.7427
 1083TIP3    H224741   3.935   4.873   6.388  0.5961 -1.1375  0.3160
 1084TIP3   OH224742   6.533   2.001   4.272 -0.2307  0.3091  0.1399
 1084TIP3    H124743   6.571   2.019   4.185 -0.9642  2.5744  0.2093
 1084TIP3    H224744   6.585   1.928   4.306  0.5073 -0.2105 -1.9258
 1085TIP3   OH224745   2.363   2.364  12.775  0.0662 -0.3124  0.1584
 1085TIP3    H124746   2.323   2.440  12.732 -1.1354  0.9291  3.1665
 1085TIP3    H224747   2.337   2.289  12.721 -2.1698  1.0040 -0.7106
 1086TIP3   OH224748   5.239   3.957  10.427  0.1770 -0.3774 -0.6654
 1086TIP3    H124749   5.235   3.934  10.334 -0.4288  0.0887 -0.7564
 1086TIP3    H224750   5.316   4.014  10.434  0.4157 -0.6786 -0.8180
 1087TIP3   OH224751   6.506   4.075  10.407 -0.3117  0.3775  0.0834
 1087TIP3    H124752   6.415   4.106  10.414 -0.7684 -0.3583 -1.9497
 1087TIP3    H224753   6.504   3.988  10.446 -0.2906  0.6661  0.7414
 1088TIP3   OH224754   0.975   1.059   1.649 -0.7757  0.3201  0.4011
 1088TIP3    H124755   0.908   1.071   1.582 -1.0628 -1.5097  0.3039
 1088TIP3    H224756   1.012   0.973   1.630  1.3047  1.0851  0.7295
 1089TIP3   OH224757   5.632   4.239  15.810  0.7928 -0.3682  0.3892
 1089TIP3    H124758   5.610   4.166  15.752 -0.3400  0.3872 -0.1902
 1089TIP3    H224759   5.636   4.200  15.897  2.2148 -1.4695 -0.1360
 1090TIP3   OH224760   2.672   2.808   3.955  0.0738 -0.1542 -0.3004
 1090TIP3    H124761   2.620   2.883   3.983  0.1239 -0.2090 -0.0547
 1090TIP3    H224762   2.621   2.767   3.885 -0.6878 -0.7845  0.6022
 1091TIP3   OH224763   0.821   4.225   5.509 -0.0566  0.3271 -0.8178
 1091TIP3    H124764   0.730   4.230   5.480 -0.3765 -0.0774  0.0913
 1091TIP3    H224765   0.842   4.132   5.506  0.1498  0.3614 -0.4865
 1092TIP3   OH224766   1.452   3.594   1.007  0.1390  0.2213  0.2039
 1092TIP3    H124767   1.540   3.612   1.039  0.1409 -0.6488  0.7279
 1092TIP3    H224768   1.465   3.535   0.933 -0.0174 -0.1184  0.4479
 1093TIP3   OH224769   2.128   5.477  12.974 -0.3236  0.5528  0.1604
 1093TIP3    H124770   2.062   5.412  12.950 -0.0748  1.0517 -2.0827
 1093TIP3    H224771   2.212   5.432  12.962 -0.1842  0.9455 -0.3860
 1094TIP3   OH224772   3.187   3.660  14.595  0.0453 -0.1686  0.2836
 1094TIP3    H124773   3.223   3.628  14.677  0.9394 -0.5702 -0.2472
 1094TIP3    H224774   3.094   3.638  14.599  0.0457 -0.0437  1.2439
 1095TIP3   OH224775   0.034   4.451   1.219 -0.1057 -0.1840  0.4462
 1095TIP3    H124776  -0.062   4.453   1.210 -0.2042  1.9650  1.4821
 1095TIP3    H224777   0.049   4.398   1.297 -0.3999 -1.0044 -0.0416
 1096TIP3   OH224778   3.966   1.667   4.178  0.4471 -0.7947  0.0852
 1096TIP3    H124779   3.906   1.706   4.242  1.3792  0.0826  0.4679
 1096TIP3    H224780   4.036   1.631   4.232  1.2960  0.0477 -0.4269
 1097TIP3   OH224781   6.698   2.494   4.266 -0.1894  0.1661  0.6119
 1097TIP3    H124782   6.779   2.511   4.217 -0.5120 -2.4181 -0.9727
 1097TIP3    H224783   6.709   2.405   4.301 -2.5768 -0.5267 -0.2110
 1098TIP3   OH224784   1.384   6.331  12.415 -0.5469  0.0283 -0.0802
 1098TIP3    H124785   1.432   6.286  12.345 -0.5018 -0.1813  0.0822
 1098TIP3    H224786   1.341   6.404  12.372 -0.3911 -0.0067 -0.2991
 1099TIP3   OH224787   5.354   3.663  15.539  0.1622  0.7248 -0.0669
 1099TIP3    H124788   5.395   3.600  15.599 -0.4963  0.4111  0.0676
 1099TIP3    H224789   5.261   3.663  15.564  0.0546  1.3257 -0.4461
 1100TIP3   OH224790   1.123   1.769   3.424  0.6533  0.0012  0.1987
 1100TIP3    H124791   1.135   1.858   3.390  0.4397  0.0851  0.3410
 1100TIP3    H224792   1.129   1.713   3.347 -1.2394  0.3006 -0.2166
 1101TIP3   OH224793   5.075   0.780  11.789 -0.3921 -0.0956  0.5374
 1101TIP3    H124794   5.079   0.690  11.756 -2.8501  0.1852 -0.7946
 1101TIP3    H224795   5.110   0.833  11.718 -1.2780  0.1569  0.2752
 1102TIP3   OH224796   5.226   4.661   5.510 -0.3245  0.4444 -0.4126
 1102TIP3    H124797   5.142   4.703   5.530 -0.6233  0.0565 -0.8376
 1102TIP3    H224798   5.256   4.704   5.429  0.2622  1.1137  0.1419
 1103TIP3   OH224799   0.614   4.611  10.972  0.2835  0.1878 -0.0841
 1103TIP3    H124800   0.632   4.630  11.064  0.6319  0.6813 -0.2509
 1103TIP3    H224801   0.696   4.628  10.927 -0.1153  0.8173 -0.6099
 1104TIP3   OH224802   2.943   2.262   3.271  0.2501  0.1313 -0.1131
 1104TIP3    H124803   3.015   2.316   3.303  0.3642  0.6591 -1.2254
 1104TIP3    H224804   2.983   2.176   3.257  0.7791  0.5269 -1.1174
 1105TIP3   OH224805   1.174   0.190  15.250 -0.2734 -0.5556  0.3645
 1105TIP3    H124806   1.128   0.107  15.234  0.7224 -0.6040 -2.9407
 1105TIP3    H224807   1.262   0.175  15.216  1.0138  0.8844  2.7371
 1106TIP3   OH224808   6.427   1.055  16.933 -0.2410 -0.5968  0.6953
 1106TIP3    H124809   6.436   0.960  16.929 -0.2646 -0.5735 -0.0806
 1106TIP3    H224810   6.338   1.070  16.965 -0.8711 -0.8517 -0.8340
 1107TIP3   OH224811   4.883   2.908  16.256  0.7798  0.5725  0.0080
 1107TIP3    H124812   4.830   2.828  16.253 -0.8712  1.5238  1.5841
 1107TIP3    H224813   4.855   2.959  16.180  0.4278  0.4829  0.0802
 1108TIP3   OH224814   1.287   6.137  12.585 -0.2995 -0.2843  0.0181
 1108TIP3    H124815   1.298   6.214  12.528  0.0257  0.5382  1.1640
 1108TIP3    H224816   1.197   6.144  12.617 -0.7443 -1.1689 -0.9523
 1109TIP3   OH224817   1.914   6.348  12.025 -0.3984 -0.1950 -0.0650
 1109TIP3    H124818   1.869   6.321  11.945 -1.1023 -0.5084  0.4224
 1109TIP3    H224819   1.893   6.279  12.088  2.3038 -1.3613 -0.3127
 1110TIP3   OH224820   5.131   6.275  16.165 -0.4533  0.0523  0.0414
 1110TIP3    H124821   5.067   6.331  16.122  1.4598  1.2049 -1.5103
 1110TIP3    H224822   5.200   6.335  16.193  0.8229 -1.3088 -0.0695
 1111TIP3   OH224823   0.394   4.987   2.695 -0.2147 -0.1025 -0.1207
 1111TIP3    H124824   0.351   4.955   2.615 -1.4555 -3.0520  1.5888
 1111TIP3    H224825   0.365   5.078   2.703 -1.9128 -0.4383 -1.8071
 1112TIP3   OH224826   2.830   3.786   2.836  0.3918  0.3080  0.4800
 1112TIP3    H124827   2.820   3.845   2.761  0.5194  1.9034  1.6614
 1112TIP3    H224828   2.903   3.823   2.885  1.8241 -2.0374  0.2314
 1113TIP3   OH224829   3.508   1.095   6.286 -0.4694 -0.2507  0.0753
 1113TIP3    H124830   3.571   1.029   6.258  2.5373  1.5291  2.0394
 1113TIP3    H224831   3.546   1.178   6.258 -2.4894  0.8741  0.4743
 1114TIP3   OH224832   1.533   6.556   4.449  0.3404 -0.2903 -0.0186
 1114TIP3    H124833   1.446   6.550   4.412 -0.4630  1.1594  1.4920
 1114TIP3    H224834   1.577   6.623   4.397 -0.5184  1.1800  1.0806
 1115TIP3   OH224835   3.495   0.805  11.961 -0.4158 -0.6450 -0.0281
 1115TIP3    H124836   3.403   0.831  11.971 -0.1000  1.0096 -1.0926
 1115TIP3    H224837   3.503   0.725  12.013 -1.6306  0.9830  2.8911
 1116TIP3   OH224838   3.823   3.625  12.031  0.0962  0.0042  0.3119
 1116TIP3    H124839   3.857   3.591  12.113 -0.5031  0.0445  0.5803
 1116TIP3    H224840   3.876   3.583  11.963 -1.2107 -2.1770  0.5749
 1117TIP3   OH224841   2.852   1.810   3.688 -0.3269  0.3292  0.6014
 1117TIP3    H124842   2.929   1.755   3.672 -0.3886  0.1151  1.0095
 1117TIP3    H224843   2.792   1.753   3.736 -0.9133  0.3755 -0.0806
 1118TIP3   OH224844   1.247   5.623  12.248 -0.0553 -0.0972 -0.0138
 1118TIP3    H124845   1.228   5.698  12.304  1.0110  0.8766 -0.8996
 1118TIP3    H224846   1.316   5.575  12.294 -1.4919 -1.1926  1.0848
 1119TIP3   OH224847   0.497   2.359   4.137  0.3988  0.8291  0.2354
 1119TIP3    H124848   0.488   2.336   4.230  2.9338  2.5626  1.0185
 1119TIP3    H224849   0.584   2.328   4.113 -1.0336 -1.6938 -2.3497
 1120TIP3   OH224850   5.941   2.741  15.171  0.1362  0.2200 -0.0556
 1120TIP3    H124851   5.900   2.826  15.186  0.1709  0.4283 -1.1092
 1120TIP3    H224852   5.896   2.705  15.096 -0.4022 -1.0585  0.8500
 1121TIP3   OH224853   3.681   6.237   3.699  0.3310 -0.2598 -0.0337
 1121TIP3    H124854   3.686   6.195   3.614 -0.1160  2.4130 -1.5192
 1121TIP3    H224855   3.671   6.166   3.761  2.1678 -2.4156 -2.0308
 1122TIP3   OH224856   1.439   5.321  14.180  0.2876  0.1708  0.2996
 1122TIP3    H124857   1.510   5.274  14.136  0.6819 -0.5165  1.6289
 1122TIP3    H224858   1.480   5.398  14.217  0.1250  0.3066  0.2022
 1123TIP3   OH224859   3.268   5.760   1.106 -0.4033  0.8139  0.3682
 1123TIP3    H124860   3.191   5.736   1.055  0.9582 -1.9685 -0.6067
 1123TIP3    H224861   3.338   5.706   1.070  1.6146  1.8921  2.4076
 1124TIP3   OH224862   5.759   1.396   2.991 -0.4187 -0.8940  0.0580
 1124TIP3    H124863   5.685   1.337   3.003 -1.2027  0.0276 -0.1489
 1124TIP3    H224864   5.790   1.378   2.902  0.4302 -2.1732  0.5816
 1125TIP3   OH224865   5.185   6.829   5.145 -0.2876 -0.1755 -0.2491
 1125TIP3    H124866   5.241   6.896   5.186  0.1245 -0.8905  0.3821
 1125TIP3    H224867   5.231   6.747   5.161 -1.5374 -0.7919  0.3286
 1126TIP3   OH224868   2.457   0.506  15.732  0.0118  0.3842 -0.4288
 1126TIP3    H124869   2.511   0.528  15.657  0.4744 -1.1523 -0.5904
 1126TIP3    H224870   2.512   0.523  15.808  0.4205 -0.3294 -0.5553
 1127TIP3   OH224871   6.634   3.361   5.013 -0.5721 -0.1268 -0.2363
 1127TIP3    H124872   6.688   3.358   4.934 -0.3131  0.6753 -0.0973
 1127TIP3    H224873   6.565   3.296   4.997  0.9232 -1.8190 -0.0196
 1128TIP3   OH224874   2.864   6.751   5.227  0.8301  0.3685 -0.0344
 1128TIP3    H124875   2.914   6.683   5.182 -0.3220 -1.6842  1.6171
 1128TIP3    H224876   2.898   6.751   5.317 -0.2017  0.8962  0.3829
 1129TIP3   OH224877   0.147   4.417  10.304 -0.1302 -0.2515  0.0765
 1129TIP3    H124878   0.058   4.450  10.291 -0.1715 -0.4796 -0.2462
 1129TIP3    H224879   0.153   4.342  10.245 -0.1504 -1.0219  1.0391
 1130TIP3   OH224880   6.273   1.325   2.161 -0.6816  0.2505  0.5643
 1130TIP3    H124881   6.319   1.356   2.082  0.0904 -1.9205  0.0772
 1130TIP3    H224882   6.283   1.396   2.224  1.2452  0.8677 -0.3470
 1131TIP3   OH224883   4.619   6.168  11.682 -0.5025  0.1449  0.8844
 1131TIP3    H124884   4.618   6.139  11.773  0.0665  1.8623  1.4733
 1131TIP3    H224885   4.568   6.249  11.682  0.0609  0.5126 -0.1982
 1132TIP3   OH224886   3.697   2.414   4.130  0.1275 -0.1606 -0.4342
 1132TIP3    H124887   3.714   2.494   4.179  0.9835 -0.8093  0.3517
 1132TIP3    H224888   3.710   2.439   4.038 -0.6439  0.8431 -0.2804
 1133TIP3   OH224889   2.735   1.536   5.570  0.7060 -0.0437 -0.4222
 1133TIP3    H124890   2.758   1.510   5.659 -0.6519  0.8242  0.2064
 1133TIP3    H224891   2.743   1.455   5.519  3.2270 -0.1944  0.0845
 1134TIP3   OH224892   6.025   5.651   4.590  0.3064  0.1330 -0.2290
 1134TIP3    H124893   5.997   5.730   4.636  1.3442 -0.3900  1.3941
 1134TIP3    H224894   6.019   5.674   4.497 -2.2785  1.0937  0.0864
 1135TIP3   OH224895   6.020   3.474  11.224  0.1918  0.4424 -0.1555
 1135TIP3    H124896   6.005   3.440  11.136 -1.7074  1.0553 -0.0991
 1135TIP3    H224897   5.951   3.436  11.278  1.8062 -0.6080  1.3129
 1136TIP3   OH224898   0.089   6.277  12.116 -0.2733  0.1790 -0.6582
 1136TIP3    H124899   0.019   6.265  12.052 -2.6078 -1.6045  1.9653
 1136TIP3    H224900   0.103   6.190  12.153 -0.0327  1.2634  2.1048
 1137TIP3   OH224901   1.413   3.860  14.888 -0.3692  0.4632  0.4015
 1137TIP3    H124902   1.477   3.834  14.953 -1.4064 -1.1902  0.8229
 1137TIP3    H224903   1.399   3.782  14.834 -0.9122  1.2371 -0.6316
 1138TIP3   OH224904   1.301   2.595   5.820  0.5890  0.5594 -0.2578
 1138TIP3    H124905   1.274   2.522   5.764 -1.6003  0.9489  0.1688
 1138TIP3    H224906   1.338   2.660   5.760 -1.9075  1.0715 -1.4049
 1139TIP3   OH224907   4.287   0.521  11.282 -0.0044  0.0239  0.0230
 1139TIP3    H124908   4.295   0.571  11.364  1.8320  0.3822 -0.3357
 1139TIP3    H224909   4.245   0.581  11.221 -1.0864 -0.1299  0.6042
 1140TIP3   OH224910   4.391   1.672  16.378  0.2820  0.2073 -0.4546
 1140TIP3    H124911   4.359   1.762  16.384  1.0768  0.5543 -1.2593
 1140TIP3    H224912   4.327   1.620  16.427 -0.3473  1.1654 -0.2476
 1141TIP3   OH224913   6.557   5.078  11.429 -0.3830  0.4024  0.0995
 1141TIP3    H124914   6.545   5.004  11.488  1.8959  0.7002  1.0483
 1141TIP3    H224915   6.506   5.149  11.468 -0.8731 -0.0854  0.3518
 1142TIP3   OH224916   3.540   1.203  16.429 -0.2452 -0.0512 -0.4487
 1142TIP3    H124917   3.555   1.223  16.522 -1.3112  0.7730 -0.4255
 1142TIP3    H224918   3.627   1.194  16.392  0.2594 -3.3664  1.2175
 1143TIP3   OH224919   0.642   0.575   3.378  0.9344  0.5912  0.2086
 1143TIP3    H124920   0.680   0.647   3.428  1.4927  0.0103  0.6476
 1143TIP3    H224921   0.688   0.577   3.294  0.9219  0.7781  0.2074
 1144TIP3   OH224922   0.579   0.769   2.900 -0.3228  0.4868 -0.2560
 1144TIP3    H124923   0.492   0.748   2.933  0.7576 -0.1463  2.4592
 1144TIP3    H224924   0.627   0.801   2.977  3.1471 -3.3994 -0.4260
 1145TIP3   OH224925   6.203   5.821  17.130 -0.2972  0.0399 -0.0224
 1145TIP3    H124926   6.215   5.822  17.035  0.5939 -0.7909  0.0678
 1145TIP3    H224927   6.108   5.827  17.143 -0.5554 -1.5432 -1.0183
 1146TIP3   OH224928   5.351   2.845  14.186 -0.9386  0.5685 -0.1389
 1146TIP3    H124929   5.410   2.776  14.215 -1.5128  0.0593 -0.1590
 1146TIP3    H224930   5.263   2.809  14.200 -1.2421  1.1524 -0.4893
 1147TIP3   OH224931   6.682   0.031  11.854 -0.2835  0.4345 -0.4794
 1147TIP3    H124932   6.694  -0.062  11.875  0.3040  0.8452  1.1281
 1147TIP3    H224933   6.710   0.077  11.933 -0.5421  1.9906 -1.2658
 1148TIP3   OH224934   6.329   0.246  16.736  0.3833  0.1693  0.2375
 1148TIP3    H124935   6.303   0.158  16.709 -1.7007  0.3770  1.3529
 1148TIP3    H224936   6.350   0.237  16.829  1.1191  0.6824  0.1295
 1149TIP3   OH224937   3.737   1.403   3.798 -0.6283  0.3309 -0.1584
 1149TIP3    H124938   3.707   1.314   3.819 -1.6186  0.8229  0.5926
 1149TIP3    H224939   3.796   1.426   3.870 -0.7786  0.4734 -0.0808
 1150TIP3   OH224940   0.618   4.299  14.110  0.2920 -0.0719  0.2504
 1150TIP3    H124941   0.581   4.214  14.086 -1.1162  0.3201  0.8996
 1150TIP3    H224942   0.683   4.318  14.042  0.7738 -1.7429  0.2125
 1151TIP3   OH224943   3.932   2.565  16.239  0.7030  0.2725 -0.1397
 1151TIP3    H124944   4.015   2.538  16.277  1.6200  2.9803 -0.0341
 1151TIP3    H224945   3.956   2.624  16.168 -1.1234  0.7419 -0.4222
 1152TIP3   OH224946   1.286   4.316  14.591  0.2731 -0.1330  0.5326
 1152TIP3    H124947   1.326   4.243  14.637  0.3720 -0.2184  0.3070
 1152TIP3    H224948   1.193   4.293  14.585  0.7473 -1.6537 -2.1970
 1153TIP3   OH224949   1.238   3.939   1.642  0.4026  0.1732  0.1694
 1153TIP3    H124950   1.305   3.894   1.590 -0.0577 -2.5195  1.6763
 1153TIP3    H224951   1.156   3.901   1.611 -0.2192  1.4708  0.1867
 1154TIP3   OH224952   3.339   1.784  16.465  0.1042  0.4750 -0.4307
 1154TIP3    H124953   3.383   1.755  16.545 -1.1773 -0.8034 -0.1479
 1154TIP3    H224954   3.276   1.850  16.494 -0.6652 -0.2992 -0.2902
 1155TIP3   OH224955   1.038   5.555   4.937  0.8803 -0.7057  0.8172
 1155TIP3    H124956   1.008   5.641   4.908  2.1039 -0.3386  0.5412
 1155TIP3    H224957   0.997   5.541   5.022  0.1857 -0.1185  0.5815
 1156TIP3   OH224958   3.477   5.602  14.374 -0.1227 -0.5022 -0.1078
 1156TIP3    H124959   3.566   5.638  14.381  0.3311 -1.5664 -0.2258
 1156TIP3    H224960   3.422   5.679  14.361  0.9003  0.1124 -1.0512
 1157TIP3   OH224961   5.277   0.598   3.875  0.4346 -0.3354 -0.0687
 1157TIP3    H124962   5.311   0.629   3.959  0.6422  1.7662 -0.8621
 1157TIP3    H224963   5.186   0.573   3.894  0.2027  0.9235  0.6430
 1158TIP3   OH224964   0.429   0.500  14.657  0.3393 -0.0610 -0.2004
 1158TIP3    H124965   0.484   0.458  14.591 -1.5734 -1.6762 -0.8583
 1158TIP3    H224966   0.386   0.428  14.702 -1.1007  1.1209  0.3850
 1159TIP3   OH224967   0.289   3.535   3.247 -0.3586 -0.2091  0.3446
 1159TIP3    H124968   0.240   3.562   3.325 -0.4790  0.6843 -0.0223
 1159TIP3    H224969   0.266   3.443   3.234 -1.7654  0.1245  0.3151
 1160TIP3   OH224970   1.872   3.811  14.273  0.0015 -0.4114  0.5577
 1160TIP3    H124971   1.905   3.895  14.238  0.0985 -0.5328  0.3513
 1160TIP3    H224972   1.863   3.826  14.367 -2.7690  0.7637  0.1854
 1161TIP3   OH224973   1.008   3.685   1.152  0.0887 -0.1520  0.3975
 1161TIP3    H124974   0.969   3.674   1.238  0.4256  1.3116  0.7538
 1161TIP3    H224975   1.083   3.625   1.152  0.3372  0.1440  1.2819
 1162TIP3   OH224976   1.190   1.922   0.188  0.2249  0.3828  0.5298
 1162TIP3    H124977   1.130   1.988   0.152  0.1407  1.0851  1.9133
 1162TIP3    H224978   1.254   1.972   0.239  1.8654 -0.3770 -0.6915
 1163TIP3   OH224979   4.911   4.625  14.045  0.1354  0.1104 -0.2645
 1163TIP3    H124980   4.993   4.577  14.053 -0.1010 -0.0629  1.6628
 1163TIP3    H224981   4.914   4.664  13.958  1.7980 -0.7138 -0.6142
 1164TIP3   OH224982   0.756   6.473  13.950  0.0202  0.2854  0.1184
 1164TIP3    H124983   0.730   6.451  13.861 -1.7783 -1.5510  1.0142
 1164TIP3    H224984   0.675   6.500  13.993  0.8550  1.1452  1.2034
 1165TIP3   OH224985   6.304   2.442  14.508 -0.3979 -0.5374 -0.3203
 1165TIP3    H124986   6.358   2.521  14.514 -0.0903 -0.6109 -1.7286
 1165TIP3    H224987   6.292   2.414  14.599  3.1548 -1.3113  0.0657
 1166TIP3   OH224988   6.153   0.437  16.216 -0.5053  0.9843  0.4309
 1166TIP3    H124989   6.127   0.443  16.124 -2.2281  2.5432  0.9572
 1166TIP3    H224990   6.123   0.351  16.244  0.0766  0.4757 -0.4560
 1167TIP3   OH224991   3.015   3.294   2.390  0.0233 -0.0046 -0.1656
 1167TIP3    H124992   2.951   3.357   2.354 -1.1167  0.0911  1.8518
 1167TIP3    H224993   3.099   3.338   2.380 -0.5612  1.1270 -0.3725
 1168TIP3   OH224994   5.626   5.937   3.711 -0.3632 -0.4593  0.2087
 1168TIP3    H124995   5.621   5.860   3.767 -1.3359  0.5695  1.6169
 1168TIP3    H224996   5.684   5.911   3.639 -0.8784 -2.5641  0.4870
 1169TIP3   OH224997   3.572   5.631  11.762  0.4475 -0.1160 -0.1021
 1169TIP3    H124998   3.491   5.625  11.710  0.7260 -0.5193 -0.4888
 1169TIP3    H224999   3.583   5.725  11.777  0.9381  0.1041 -1.6973
 1170TIP3   OH225000   6.348   1.030  16.572  0.6840  0.0132 -0.1979
 1170TIP3    H125001   6.277   0.997  16.627  1.2352 -2.3895 -0.8085
 1170TIP3    H225002   6.353   0.969  16.499  2.9371  0.4859 -0.5283
 1171TIP3   OH225003   4.396   4.745  13.256 -0.0026 -0.3568  0.6869
 1171TIP3    H125004   4.483   4.771  13.225  0.3362  1.1592  2.7228
 1171TIP3    H225005   4.345   4.825  13.255 -1.0948 -1.0348  0.4794
 1172TIP3   OH225006   2.629   2.384  12.174 -0.0965 -0.0469  0.2484
 1172TIP3    H125007   2.601   2.457  12.120 -1.8430 -0.3207  0.7251
 1172TIP3    H225008   2.710   2.354  12.133  1.4968  3.0333  0.8923
 1173TIP3   OH225009   1.134   3.483  12.070  0.0725 -0.3710 -0.1836
 1173TIP3    H125010   1.207   3.468  12.130 -0.1234 -3.4109 -0.5615
 1173TIP3    H225011   1.165   3.450  11.985 -1.4657 -1.0717 -0.5113
 1174TIP3   OH225012   2.165   5.985  10.738  0.6625  0.6103 -1.0338
 1174TIP3    H125013   2.196   5.939  10.659  1.3708 -0.0126 -0.4114
 1174TIP3    H225014   2.240   5.984  10.797  0.2240  1.3230 -0.4508
 1175TIP3   OH225015   5.018   0.383   5.693  0.5785  0.0417 -0.4097
 1175TIP3    H125016   5.089   0.442   5.718 -0.2752  1.4213 -1.1922
 1175TIP3    H225017   5.051   0.337   5.616  1.2272 -0.5211  0.1797
 1176TIP3   OH225018   4.575   3.858  13.273  1.0959  0.4880 -0.4586
 1176TIP3    H125019   4.558   3.837  13.181 -2.5803 -1.0220  0.3695
 1176TIP3    H225020   4.517   3.933  13.291  1.7168  0.7217  0.6513
 1177TIP3   OH225021   6.102   0.925   0.511  0.5305 -0.2045  0.3668
 1177TIP3    H125022   6.096   0.830   0.509 -1.5782 -0.0898 -1.3851
 1177TIP3    H225023   6.196   0.943   0.515  1.0699 -2.3415 -1.1979
 1178TIP3   OH225024   4.606   6.343   0.123 -0.0843  0.3306 -0.1185
 1178TIP3    H125025   4.643   6.278   0.182  1.5070  0.1011 -1.3039
 1178TIP3    H225026   4.511   6.334   0.134  0.1289 -1.1563  0.8184
 1179TIP3   OH225027   0.342   3.951   2.261 -0.6850  0.3623 -0.7838
 1179TIP3    H125028   0.388   3.900   2.328 -2.3281  0.7080  0.6867
 1179TIP3    H225029   0.400   3.949   2.185  0.1783 -2.0339 -0.1432
 1180TIP3   OH225030   0.993   2.998   6.574 -0.3923 -0.1446 -0.0265
 1180TIP3    H125031   1.021   3.056   6.503 -2.4914  2.3818  1.0274
 1180TIP3    H225032   1.069   2.992   6.632 -0.1605  1.8333 -0.0593
 1181TIP3   OH225033   3.773   6.276   2.619 -0.1637 -0.0004 -0.4556
 1181TIP3    H125034   3.696   6.308   2.667  0.0609  1.0267 -0.7769
 1181TIP3    H225035   3.746   6.189   2.589 -0.4225 -0.5573  1.2539
 1182TIP3   OH225036   6.664   3.849  16.170  0.3037  0.6535  1.0995
 1182TIP3    H125037   6.709   3.891  16.243  0.8544  1.6038  0.2464
 1182TIP3    H225038   6.583   3.899  16.159  0.5536  0.9579  0.6205
 1183TIP3   OH225039   5.467   1.408   3.817 -0.2520  0.7936 -0.0605
 1183TIP3    H125040   5.450   1.341   3.751  0.8444  0.3153  0.1321
 1183TIP3    H225041   5.561   1.425   3.811 -0.1208  0.6933  1.4155
 1184TIP3   OH225042   4.221   0.816  10.930 -0.8890 -0.4007  0.8247
 1184TIP3    H125043   4.183   0.731  10.951  0.0005 -0.9974  0.0787
 1184TIP3    H225044   4.176   0.877  10.988 -2.0184 -1.2761  0.9117
 1185TIP3   OH225045   3.475   2.397  15.379  0.1693 -0.6999 -0.1723
 1185TIP3    H125046   3.458   2.305  15.358 -0.4653 -0.4414 -0.8585
 1185TIP3    H225047   3.423   2.446  15.314  1.1594  0.1344 -0.3595
 1186TIP3   OH225048   0.947   2.921  15.759  0.2261 -0.4534 -0.7398
 1186TIP3    H125049   0.884   2.933  15.689  0.1098 -2.5699 -1.0885
 1186TIP3    H225050   1.031   2.908  15.714  0.7866  1.4704 -0.3194
 1187TIP3   OH225051   1.191   2.122  12.595 -0.5097 -0.5191  0.4865
 1187TIP3    H125052   1.266   2.131  12.536 -1.5573 -1.7723 -1.1340
 1187TIP3    H225053   1.219   2.164  12.677  0.1379  3.5786 -1.5851
 1188TIP3   OH225054   4.689   3.530   3.758 -0.5526 -0.2371  0.5959
 1188TIP3    H125055   4.741   3.576   3.824  0.0180 -0.1969  0.1235
 1188TIP3    H225056   4.619   3.592   3.735 -0.3234  0.0339  0.6267
 1189TIP3   OH225057   0.429   5.359  14.022 -0.4818 -0.1736  0.1839
 1189TIP3    H125058   0.368   5.301  14.068 -0.4267 -1.0784 -0.8540
 1189TIP3    H225059   0.479   5.401  14.092 -0.8797 -0.9745  0.9794
 1190TIP3   OH225060   2.161   0.445  16.848 -0.5997 -0.0223 -0.2366
 1190TIP3    H125061   2.255   0.464  16.845 -0.4551 -0.8010 -2.1234
 1190TIP3    H225062   2.127   0.499  16.919  1.1598  0.7886  0.0256
 1191TIP3   OH225063   4.765   4.379   3.371  0.2983  0.8635 -0.0770
 1191TIP3    H125064   4.719   4.342   3.296 -0.5592  1.5875  0.0646
 1191TIP3    H225065   4.852   4.402   3.338  1.1717 -1.9316  0.0208
 1192TIP3   OH225066   6.711   5.660  12.422 -0.5614 -0.3326  0.2173
 1192TIP3    H125067   6.782   5.659  12.486  0.0786  0.1660 -0.4649
 1192TIP3    H225068   6.684   5.569  12.415  0.5494 -0.6576 -0.0815
 1193TIP3   OH225069   6.559   0.096   0.934 -0.3973  0.0665 -0.0966
 1193TIP3    H125070   6.512   0.017   0.908  2.5778 -1.5054 -1.1227
 1193TIP3    H225071   6.504   0.135   1.003 -2.3135 -2.4857 -0.0439
 1194TIP3   OH225072   2.292   2.966  14.452  0.2204  0.6017 -0.4759
 1194TIP3    H125073   2.337   2.890  14.416  0.4650 -0.1069  1.2781
 1194TIP3    H225074   2.285   3.026  14.377  1.3500 -0.5073 -1.5267
 1195TIP3   OH225075   6.271   3.857   0.335  0.1700 -0.1064 -0.0061
 1195TIP3    H125076   6.328   3.893   0.267  0.8711 -1.9134 -0.4425
 1195TIP3    H225077   6.329   3.800   0.387 -0.9359 -0.9126  0.3900
 1196TIP3   OH225078   0.730   2.823  12.098 -0.1945 -0.4437 -0.8005
 1196TIP3    H125079   0.825   2.825  12.095 -0.1834  1.5638 -0.5412
 1196TIP3    H225080   0.709   2.820  12.191 -0.4025 -0.5512 -0.8491
 1197TIP3   OH225081   6.735   4.537   6.166  0.6843  0.0877  0.6940
 1197TIP3    H125082   6.697   4.517   6.251  0.5276 -0.6056  0.4654
 1197TIP3    H225083   6.829   4.546   6.184  0.8008 -1.1224  0.7712
 1198TIP3   OH225084   1.045   4.319  15.277  0.8770 -0.2521 -0.0942
 1198TIP3    H125085   1.067   4.412  15.284 -1.5835  0.3377  1.2117
 1198TIP3    H225086   1.116   4.280  15.227  2.0598  2.3068 -0.5256
 1199TIP3   OH225087   0.889   6.142   0.026 -0.1310 -0.5413  0.0781
 1199TIP3    H125088   0.916   6.063   0.074  1.0356 -0.4327 -0.3761
 1199TIP3    H225089   0.809   6.171   0.071  0.1998 -1.1858  1.1239
 1200TIP3   OH225090   5.883   0.924   2.927  0.6877 -0.4805 -0.5921
 1200TIP3    H125091   5.916   0.911   2.837 -0.2180 -0.8695 -0.8727
 1200TIP3    H225092   5.845   0.840   2.951  0.7712 -0.3219  0.1065
 1201TIP3   OH225093   5.271   6.805  12.805  0.2107 -0.0909  0.5049
 1201TIP3    H125094   5.282   6.812  12.711 -0.7664  0.6297  0.4266
 1201TIP3    H225095   5.347   6.850  12.842  0.5201 -0.2498  0.0742
 1202TIP3   OH225096   4.923   6.022   5.047  0.1026 -0.3592  0.2059
 1202TIP3    H125097   4.926   5.935   5.087 -0.8679 -0.0280  1.0414
 1202TIP3    H225098   4.831   6.048   5.054 -0.2899 -0.5232 -2.7651
 1203TIP3   OH225099   3.845   3.374  14.122 -0.6524 -0.1054  0.1098
 1203TIP3    H125100   3.822   3.414  14.205 -0.6073  1.8930 -0.7909
 1203TIP3    H225101   3.826   3.441  14.056 -0.3396 -1.4879 -1.4603
 1204TIP3   OH225102   2.094   6.020  16.969  0.1740  0.6466  0.8004
 1204TIP3    H125103   2.052   6.028  16.883  0.0732  0.4384  0.8292
 1204TIP3    H225104   2.171   6.076  16.964  1.3937 -1.0400 -0.1893
 1205TIP3   OH225105   6.041   3.762  11.378 -0.0810 -0.1151 -0.3807
 1205TIP3    H125106   6.049   3.669  11.398 -1.0654  0.2954  2.2857
 1205TIP3    H225107   6.130   3.795  11.382  0.2762 -0.9021 -1.3191
 1206TIP3   OH225108   4.285   5.556  14.814 -0.2479  0.5452 -0.0667
 1206TIP3    H125109   4.248   5.474  14.780 -0.6055  0.4247  0.5872
 1206TIP3    H225110   4.320   5.533  14.900 -0.9582  1.2142  0.4214
 1207TIP3   OH225111   3.175   1.460  13.931  1.1260  0.5956  0.1437
 1207TIP3    H125112   3.246   1.485  13.871  0.9457  0.1821 -0.2455
 1207TIP3    H225113   3.095   1.475  13.881  1.0199 -1.0151 -0.2058
 1208TIP3   OH225114   3.980   6.687   3.925  0.0489  0.0813  0.3592
 1208TIP3    H125115   3.893   6.695   3.965  0.2669 -3.5169  1.9693
 1208TIP3    H225116   4.040   6.683   3.999  1.2643 -0.1991 -0.6103
 1209TIP3   OH225117   6.663   3.104   0.085  0.1703  0.2894  0.0592
 1209TIP3    H125118   6.742   3.058   0.055 -0.8161 -0.8930 -0.8174
 1209TIP3    H225119   6.591   3.050   0.053 -1.0010  0.7338  1.8310
 1210TIP3   OH225120   6.670   3.205   2.403  0.3949 -0.0071 -0.6330
 1210TIP3    H125121   6.717   3.187   2.321 -1.3830 -1.9895 -1.3005
 1210TIP3    H225122   6.598   3.262   2.377  0.1042 -0.2456 -0.3505
 1211TIP3   OH225123   5.512   5.400   1.069  0.3521  0.6074  0.8274
 1211TIP3    H125124   5.597   5.442   1.053  0.6938 -0.1539  0.5575
 1211TIP3    H225125   5.534   5.308   1.082 -0.7171 -0.2442 -2.5420
 1212TIP3   OH225126   3.034   2.773  16.812  0.4290  0.1555  0.2069
 1212TIP3    H125127   2.995   2.817  16.737  1.5768 -0.3681 -0.7467
 1212TIP3    H225128   3.086   2.840  16.855 -1.0109  0.7086  1.1480
 1213TIP3   OH225129   5.675   2.750  13.993 -0.1087 -0.0142 -0.5570
 1213TIP3    H125130   5.754   2.715  13.951  0.3705 -0.3572  0.6071
 1213TIP3    H225131   5.686   2.845  13.991 -0.9431  0.1005 -2.8163
 1214TIP3   OH225132   0.411   3.399  12.853 -0.3617  0.8577  0.2964
 1214TIP3    H125133   0.317   3.415  12.845 -0.5092 -0.1189 -0.1114
 1214TIP3    H225134   0.417   3.308  12.883  0.4319  1.3366  1.6727
 1215TIP3   OH225135   6.744   4.427  13.577  0.5514  0.0608 -0.5939
 1215TIP3    H125136   6.772   4.422  13.669 -1.0263  2.0025  0.0636
 1215TIP3    H225137   6.795   4.499  13.540  1.8075 -1.2678 -1.5224
 1216TIP3   OH225138   5.370   3.089  11.171  0.3521 -0.1685  0.2493
 1216TIP3    H125139   5.319   3.020  11.215  1.2451 -2.2153 -1.7138
 1216TIP3    H225140   5.311   3.124  11.105  0.2427  0.2318  0.5556
 1217TIP3   OH225141   6.554   5.876  13.951  0.2156  0.2655 -0.2237
 1217TIP3    H125142   6.547   5.945  14.018  0.4980  0.5950 -0.5308
 1217TIP3    H225143   6.580   5.922  13.872 -0.6698 -0.0443 -0.7054
 1218TIP3   OH225144   6.530   5.371  16.327  0.2925  0.3737 -0.1021
 1218TIP3    H125145   6.438   5.396  16.338 -0.8015 -3.3422  0.7303
 1218TIP3    H225146   6.568   5.381  16.415  0.3681  0.8397 -0.1883
 1219TIP3   OH225147   0.882   2.794   1.439 -0.3979 -0.2821 -0.7229
 1219TIP3    H125148   0.832   2.872   1.413  0.4638  0.6169  0.2227
 1219TIP3    H225149   0.847   2.724   1.384 -1.5000  0.6752 -1.2931
 1220TIP3   OH225150   1.800   3.385  11.790 -0.0116 -0.5539  0.1794
 1220TIP3    H125151   1.824   3.297  11.760 -2.3836 -0.6413 -1.7143
 1220TIP3    H225152   1.788   3.435  11.709 -0.5636  0.9886  1.1836
 1221TIP3   OH225153   0.616   1.717  11.124  0.0527  0.0198 -0.1268
 1221TIP3    H125154   0.645   1.740  11.213 -0.4133  0.0759  0.0142
 1221TIP3    H225155   0.521   1.706  11.132 -0.1623  1.1894 -0.8743
 1222TIP3   OH225156   5.521   2.345   2.669 -0.0099 -0.5340 -0.0144
 1222TIP3    H125157   5.520   2.422   2.611  2.7843  0.0462  0.5220
 1222TIP3    H225158   5.565   2.277   2.617  0.7403 -0.6164  0.6992
 1223TIP3   OH225159   0.207   6.118   5.932 -0.3116 -0.2323  0.1532
 1223TIP3    H125160   0.225   6.025   5.921 -1.4227 -0.3976 -0.3987
 1223TIP3    H225161   0.276   6.163   5.884 -0.2055 -0.7868 -0.2116
 1224TIP3   OH225162   5.047   1.483  17.156  0.3514 -0.0983  0.3488
 1224TIP3    H125163   5.036   1.388  17.153  2.2931 -0.3835  0.8197
 1224TIP3    H225164   5.078   1.506  17.069  0.9953 -0.0730  0.5810
 1225TIP3   OH225165   2.065   2.033  13.503  0.0081  0.1856 -0.3295
 1225TIP3    H125166   2.101   2.001  13.586  0.3362  0.7255 -0.2554
 1225TIP3    H225167   1.985   1.982  13.490 -0.6417  0.8315  0.8803
 1226TIP3   OH225168   3.670   1.907  16.741  0.2543  0.1486  0.3176
 1226TIP3    H125169   3.626   1.986  16.773  0.2849  0.0079  0.7077
 1226TIP3    H225170   3.762   1.934  16.732  0.3286  0.0617  0.7838
 1227TIP3   OH225171   5.005   1.477  13.247  0.1491 -0.2429  0.3408
 1227TIP3    H125172   4.959   1.543  13.195 -0.6975  0.0224  1.4029
 1227TIP3    H225173   5.020   1.405  13.185 -1.5586 -0.2710 -0.0981
 1228TIP3   OH225174   4.743   4.676  15.725  0.4486 -0.1316  0.2741
 1228TIP3    H125175   4.660   4.664  15.680  1.2182 -0.3485 -1.1376
 1228TIP3    H225176   4.803   4.614  15.683  1.6295  0.8427  0.4625
 1229TIP3   OH225177   0.260   0.348   5.982  0.1202 -0.6833  0.0717
 1229TIP3    H125178   0.184   0.291   5.995  0.0545 -0.2779  1.6999
 1229TIP3    H225179   0.275   0.387   6.068  0.3544  1.5247 -0.9108
 1230TIP3   OH225180   4.101   0.503  13.325 -0.3199 -0.5697  0.3920
 1230TIP3    H125181   4.065   0.444  13.258  0.7338  0.5674 -1.2710
 1230TIP3    H225182   4.152   0.446  13.382  0.1941 -1.3762 -0.8250
 1231TIP3   OH225183   6.404   5.004   1.851  0.6144 -0.3425  0.3502
 1231TIP3    H125184   6.415   4.917   1.889 -1.7728 -0.5067  0.8798
 1231TIP3    H225185   6.440   4.997   1.763  2.1045 -1.3157  1.0096
 1232TIP3   OH225186   2.409   3.724   0.649 -0.0828 -0.3994  0.5372
 1232TIP3    H125187   2.485   3.674   0.620 -0.3084  0.1162 -1.0758
 1232TIP3    H225188   2.410   3.717   0.744  1.0089 -1.7964  0.4501
 1233TIP3   OH225189   0.238   1.512  12.839  0.0885  0.1506 -0.0940
 1233TIP3    H125190   0.214   1.422  12.814  1.1371 -0.2434  0.2770
 1233TIP3    H225191   0.191   1.527  12.921  1.6587 -0.9099  1.0590
 1234TIP3   OH225192   3.292   4.643  13.482  0.3163  0.2787 -0.2340
 1234TIP3    H125193   3.374   4.647  13.432  0.4211 -1.2389 -0.2367
 1234TIP3    H225194   3.317   4.600  13.564 -0.6516 -1.1640 -0.6648
 1235TIP3   OH225195   3.358   5.050  12.038  0.2177 -0.2575  0.8091
 1235TIP3    H125196   3.303   5.052  12.116  0.1889 -1.5933  0.8432
 1235TIP3    H225197   3.305   5.093  11.970  0.1133  0.6054  1.4247
 1236TIP3   OH225198   1.771   3.414   0.075 -0.3228  0.3311 -0.0196
 1236TIP3    H125199   1.787   3.321   0.055  1.4624  0.3235  1.2889
 1236TIP3    H225200   1.707   3.412   0.146 -0.9052  0.1497 -0.5356
 1237TIP3   OH225201   3.974   5.468  13.455  0.0442  0.4787  0.2395
 1237TIP3    H125202   4.000   5.377  13.466 -0.6429  0.1927 -0.3697
 1237TIP3    H225203   4.015   5.495  13.373  0.3094  0.7362  0.4589
 1238TIP3   OH225204   0.810   3.046   1.363 -0.0297  0.0403 -0.2537
 1238TIP3    H125205   0.839   3.137   1.365  1.2822 -0.2775 -2.5054
 1238TIP3    H225206   0.765   3.036   1.279  0.5851 -1.5959 -0.4333
 1239TIP3   OH225207   2.762   4.887   6.212  0.3206  0.2386  0.0700
 1239TIP3    H125208   2.807   4.842   6.284  0.7247  1.0528  0.3332
 1239TIP3    H225209   2.698   4.943   6.256  0.6527  0.8313 -0.1922
 1240TIP3   OH225210   0.583   3.909  13.236  0.1150 -0.0760 -0.6362
 1240TIP3    H125211   0.494   3.921  13.268  0.2001  0.8535 -0.7411
 1240TIP3    H225212   0.577   3.922  13.142  0.1883 -1.0456 -0.7879
 1241TIP3   OH225213   1.772   0.467  15.445 -0.5291  0.0011 -0.1771
 1241TIP3    H125214   1.846   0.528  15.450  1.0215 -1.8517  0.9708
 1241TIP3    H225215   1.797   0.404  15.377 -1.2425 -0.4222 -0.0611
 1242TIP3   OH225216   4.041   3.080   5.493 -0.4675  0.0401 -0.3630
 1242TIP3    H125217   4.073   3.105   5.406 -1.4023  1.4168 -0.3371
 1242TIP3    H225218   3.989   3.155   5.522 -0.7775 -0.7021  1.0811
 1243TIP3   OH225219   6.777   4.876  16.528  0.1956 -0.0100  1.1554
 1243TIP3    H125220   6.720   4.953  16.535  0.7698  0.3642  1.7856
 1243TIP3    H225221   6.742   4.827  16.454  0.4172  1.3782  0.0858
 1244TIP3   OH225222   5.684   0.000   1.833  0.5014  0.1349  0.3996
 1244TIP3    H125223   5.654  -0.069   1.891  0.8444 -1.0420 -0.7666
 1244TIP3    H225224   5.632   0.077   1.857 -0.9253 -0.9094  0.7540
 1245TIP3   OH225225   3.745   2.056   3.097 -0.2710  0.0662 -0.4291
 1245TIP3    H125226   3.767   1.986   3.035 -0.8995 -0.9590  0.4816
 1245TIP3    H225227   3.668   2.098   3.059  0.1709  0.3497 -1.0328
 1246TIP3   OH225228   1.752   0.524   3.918  0.1511 -0.0498  0.3397
 1246TIP3    H125229   1.657   0.514   3.920  0.1712 -1.2080 -1.6510
 1246TIP3    H225230   1.767   0.609   3.878 -0.1199 -1.0981 -2.1653
 1247TIP3   OH225231   5.003   0.439   1.081 -0.0895  0.0072 -0.5392
 1247TIP3    H125232   4.914   0.447   1.117 -0.8611  0.6249 -2.4476
 1247TIP3    H225233   5.040   0.527   1.087  0.3007 -0.1862 -0.0203
 1248TIP3   OH225234   6.711   4.258   0.212 -0.4650 -0.2293 -0.0262
 1248TIP3    H125235   6.726   4.317   0.286 -2.9352  0.4152  0.0477
 1248TIP3    H225236   6.615   4.254   0.204 -0.3328  0.3207 -3.6289
 1249TIP3   OH225237   2.958   0.663   4.725  0.3055  0.3675 -0.1153
 1249TIP3    H125238   2.922   0.614   4.798  1.3528  0.7676  0.6903
 1249TIP3    H225239   3.049   0.633   4.718  1.1567  2.5203  0.7622
 1250TIP3   OH225240   0.194   4.047  16.089  0.1092  0.1208  0.0696
 1250TIP3    H125241   0.254   4.106  16.043  0.8026 -0.2379  0.4894
 1250TIP3    H225242   0.161   3.989  16.020  1.5830 -0.7842  0.0853
 1251TIP3   OH225243   4.283   6.772  15.202 -0.0360  0.2931  0.0326
 1251TIP3    H125244   4.219   6.843  15.199 -2.0619 -1.4477 -0.5357
 1251TIP3    H225245   4.290   6.750  15.295 -3.4716 -2.0631 -0.0601
 1252TIP3   OH225246   2.498   2.088  14.299 -0.0904 -0.5064  0.5614
 1252TIP3    H125247   2.488   2.030  14.374  0.1525 -0.3117  0.7472
 1252TIP3    H225248   2.415   2.134  14.292 -1.4187 -2.9335 -1.3603
 1253TIP3   OH225249   5.699   3.051   0.494  0.1195  1.1761 -0.5302
 1253TIP3    H125250   5.790   3.024   0.509  0.7512  0.9599 -3.8564
 1253TIP3    H225251   5.680   3.111   0.566  2.2675 -0.1093  1.2579
 1254TIP3   OH225252   2.074   1.727  14.905  0.0013  0.0024 -0.1672
 1254TIP3    H125253   2.136   1.661  14.873 -0.5304 -1.3456  1.4608
 1254TIP3    H225254   1.988   1.690  14.884 -0.3108  1.1127 -0.9582
 1255TIP3   OH225255   4.900   0.980   4.788  0.3192  0.7754 -0.3800
 1255TIP3    H125256   4.909   1.075   4.775  3.2162  0.3666 -2.0888
 1255TIP3    H225257   4.922   0.942   4.703 -3.1160 -1.4638 -0.4825
 1256TIP3   OH225258   4.746   6.087  11.424  0.1048  0.4733  0.3520
 1256TIP3    H125259   4.682   6.082  11.495 -0.1899  2.0569  0.2167
 1256TIP3    H225260   4.702   6.137  11.355  0.6822 -0.3512 -0.6489
 1257TIP3   OH225261   5.717   4.821   2.710 -0.3544 -0.7441 -0.1580
 1257TIP3    H125262   5.745   4.847   2.797 -1.4567 -1.0815  0.3162
 1257TIP3    H225263   5.743   4.894   2.653 -0.2819 -0.1957  0.5666
 1258TIP3   OH225264   1.300   1.305   3.112 -0.5743 -0.2083 -0.5914
 1258TIP3    H125265   1.371   1.288   3.050 -0.9468 -1.7713 -0.6320
 1258TIP3    H225266   1.339   1.364   3.177  1.0670 -1.7435 -0.1086
 1259TIP3   OH225267   2.982   0.973   5.680  0.0866 -0.0334 -0.0642
 1259TIP3    H125268   3.061   0.996   5.631  0.2123  0.3690  0.3187
 1259TIP3    H225269   3.015   0.943   5.766 -0.2099  1.0217  0.4338
 1260TIP3   OH225270   4.320   4.876   4.845  0.2883  0.0279  0.1499
 1260TIP3    H125271   4.389   4.933   4.879 -0.4762  1.9528 -1.2703
 1260TIP3    H225272   4.277   4.930   4.778 -3.8594 -0.2464  2.2685
 1261TIP3   OH225273   5.930   0.795   2.441  0.0975  0.0306  0.1412
 1261TIP3    H125274   5.853   0.739   2.433  0.6051 -0.5352 -1.2304
 1261TIP3    H225275   5.906   0.875   2.394 -0.5294  0.9037  1.8669
 1262TIP3   OH225276   3.676   2.860  14.862  0.3298 -0.0863 -0.3178
 1262TIP3    H125277   3.678   2.884  14.955  1.7222  1.6987 -0.7698
 1262TIP3    H225278   3.768   2.855  14.837  0.0775 -3.1007 -1.0446
 1263TIP3   OH225279   3.605   6.429  16.306  0.1529 -0.3700  0.0710
 1263TIP3    H125280   3.533   6.431  16.244  2.1137  0.3957 -2.3481
 1263TIP3    H225281   3.603   6.516  16.347 -0.3515 -0.3840  0.0775
 1264TIP3   OH225282   6.800   5.686   2.537 -0.1626  0.2830 -0.2911
 1264TIP3    H125283   6.771   5.600   2.506  1.6159 -0.3753 -0.2466
 1264TIP3    H225284   6.828   5.732   2.458  1.2239 -0.1499 -0.0916
 1265TIP3   OH225285   5.851   4.249   1.713  0.0599 -0.1925  0.1256
 1265TIP3    H125286   5.826   4.339   1.734 -0.4948 -0.8415  2.6201
 1265TIP3    H225287   5.778   4.195   1.744  0.2133 -1.5152 -1.6441
 1266TIP3   OH225288   2.855   2.825  14.775 -0.2087  0.4558  0.0132
 1266TIP3    H125289   2.787   2.761  14.794  1.4086 -1.0228  1.2488
 1266TIP3    H225290   2.869   2.871  14.858  2.3242 -1.4062  0.7469
 1267TIP3   OH225291   2.511   2.347   0.136 -0.2949  0.2533  0.1033
 1267TIP3    H125292   2.491   2.363   0.228  0.9801 -0.4090  0.5193
 1267TIP3    H225293   2.598   2.308   0.137 -0.9045 -1.2480 -1.2624
 1268TIP3   OH225294   0.019   5.235   1.483 -0.7857 -0.1351  0.2499
 1268TIP3    H125295   0.098   5.238   1.536 -1.3216 -0.1792  1.0617
 1268TIP3    H225296   0.019   5.317   1.434 -1.6409  1.1907  2.3209
 1269TIP3   OH225297   4.812   2.253  16.018 -0.1895  0.5320  0.6128
 1269TIP3    H125298   4.728   2.214  15.994 -0.4690  1.4054  0.1447
 1269TIP3    H225299   4.826   2.227  16.109 -1.1844  0.7640  0.8359
 1270TIP3   OH225300   1.711   1.803  15.333  0.4302  0.0519  0.3038
 1270TIP3    H125301   1.785   1.848  15.292 -0.7521  1.6639 -0.1587
 1270TIP3    H225302   1.732   1.802  15.426  2.0017 -1.4549 -0.0062
 1271TIP3   OH225303   4.937   0.017   2.559  0.1918 -0.1948  0.2755
 1271TIP3    H125304   4.968   0.010   2.649  0.1639  2.4493  0.5653
 1271TIP3    H225305   4.887   0.099   2.557 -1.5150 -1.1757 -1.6865
 1272TIP3   OH225306   1.580   4.283  12.272  0.0720  0.4203  0.1787
 1272TIP3    H125307   1.491   4.277  12.306  0.0379 -1.1177 -0.1043
 1272TIP3    H225308   1.569   4.291  12.177  0.2440 -0.2763  0.0991
 1273TIP3   OH225309   6.437   0.440  14.144  0.1578  0.5614 -0.3691
 1273TIP3    H125310   6.375   0.440  14.071  0.9276 -1.0070 -1.0801
 1273TIP3    H225311   6.524   0.441  14.102  0.6127  0.6911  0.5468
 1274TIP3   OH225312   3.955   4.967   4.012  0.4064  0.3497 -0.5777
 1274TIP3    H125313   3.873   4.946   3.968  0.5848 -2.7044  0.3323
 1274TIP3    H225314   3.979   4.887   4.059  3.7465  1.2014 -0.5439
 1275TIP3   OH225315   4.589   5.731   4.428  0.0653  0.0112 -0.2575
 1275TIP3    H125316   4.598   5.648   4.382  0.1619 -1.1323  1.7064
 1275TIP3    H225317   4.500   5.761   4.408 -0.0461 -0.6727 -0.8009
 1276TIP3   OH225318   5.789   6.033  13.336  0.1284 -0.2728  0.1449
 1276TIP3    H125319   5.856   6.016  13.403  0.5331 -0.3979 -0.2880
 1276TIP3    H225320   5.735   5.954  13.337  0.4666 -0.5112 -0.0597
 1277TIP3   OH225321   0.438   4.923   4.773  0.2410 -0.2389  0.1178
 1277TIP3    H125322   0.446   5.015   4.797  2.5312 -0.2620 -0.3705
 1277TIP3    H225323   0.478   4.876   4.846  0.5529 -0.7460 -0.3785
 1278TIP3   OH225324   2.243   2.588   2.356  0.5260 -0.2917  0.8036
 1278TIP3    H125325   2.320   2.546   2.318  0.8726 -0.9571  2.1554
 1278TIP3    H225326   2.189   2.612   2.282  1.9411 -0.0060 -0.1697
 1279TIP3   OH225327   2.132   0.666  12.355  0.1308 -0.1987  0.1084
 1279TIP3    H125328   2.204   0.603  12.353 -0.3517 -0.7509  0.1912
 1279TIP3    H225329   2.062   0.623  12.404  0.2436  0.8873  1.2989
 1280TIP3   OH225330   1.644   0.013  15.802  0.0150  0.3339  0.4020
 1280TIP3    H125331   1.676   0.102  15.786 -2.0935  1.2060  0.7161
 1280TIP3    H225332   1.712  -0.043  15.765  2.5142  1.9647  2.1797
 1281TIP3   OH225333   4.841   1.424   1.775  0.0826  0.3005 -0.2247
 1281TIP3    H125334   4.834   1.331   1.752 -0.4394  0.5505 -1.0951
 1281TIP3    H225335   4.754   1.448   1.805  0.2531  0.4846  0.1365
 1282TIP3   OH225336   3.458   5.349  13.337  0.2229  0.2877  0.0352
 1282TIP3    H125337   3.380   5.345  13.282  0.8954  2.1490 -1.1557
 1282TIP3    H225338   3.513   5.415  13.296  0.6827  1.9768  3.0417
 1283TIP3   OH225339   6.386   4.996   0.164 -0.2100 -0.3865  0.1592
 1283TIP3    H125340   6.317   5.018   0.227  1.2825  1.1779  1.3427
 1283TIP3    H225341   6.419   4.911   0.192 -1.8093 -1.2964 -0.6030
 1284TIP3   OH225342   2.959   1.283   3.340  0.8338 -0.5040 -0.4479
 1284TIP3    H125343   2.914   1.198   3.338  0.4466 -0.2943 -0.7443
 1284TIP3    H225344   2.914   1.335   3.274  0.9530 -0.0052 -0.1371
 1285TIP3   OH225345   0.899   2.907   2.681  0.9391  0.9821  0.5260
 1285TIP3    H125346   0.964   2.978   2.684  3.1813 -0.9439  0.1903
 1285TIP3    H225347   0.924   2.855   2.605  0.8153 -1.4677  2.0708
 1286TIP3   OH225348   5.788   2.001  10.881 -0.3566  0.1615  0.2194
 1286TIP3    H125349   5.724   2.071  10.865 -1.2005 -0.3290  1.3174
 1286TIP3    H225350   5.769   1.936  10.813  1.0908  1.3686 -1.4541
 1287TIP3   OH225351   2.621   0.797   2.392  0.3167 -0.1635 -0.1522
 1287TIP3    H125352   2.711   0.764   2.402 -0.2035 -1.2142  1.3825
 1287TIP3    H225353   2.594   0.767   2.305  2.2018  2.1622 -1.6799
 1288TIP3   OH225354   4.308   5.849  15.996 -0.1525  0.4870  0.0001
 1288TIP3    H125355   4.314   5.801  15.913  1.8155 -0.1855  0.4752
 1288TIP3    H225356   4.253   5.794  16.052  1.1532 -0.7122  0.1655
 1289TIP3   OH225357   0.852   5.800   1.791  1.3147 -0.6139 -0.0527
 1289TIP3    H125358   0.888   5.857   1.723  0.9684 -1.3183 -0.8381
 1289TIP3    H225359   0.923   5.739   1.811  1.5168 -0.2242  0.4364
 1290TIP3   OH225360   6.270   1.441  14.735  0.4757 -0.3896  0.0291
 1290TIP3    H125361   6.347   1.497  14.743 -0.0839  0.2918  0.9104
 1290TIP3    H225362   6.224   1.475  14.658  0.2133  0.2814  0.4743
 1291TIP3   OH225363   3.258   3.092   3.251  0.3030  0.5536 -0.0979
 1291TIP3    H125364   3.255   2.996   3.247  2.5424  0.4600 -0.7385
 1291TIP3    H225365   3.240   3.120   3.161 -1.4396  0.8155  0.3065
 1292TIP3   OH225366   2.347   5.657  11.809  0.1926  0.1418  0.5879
 1292TIP3    H125367   2.399   5.632  11.733  1.8293  0.0581  1.6708
 1292TIP3    H225368   2.291   5.728  11.778  0.0989 -0.5546 -0.9257
 1293TIP3   OH225369   0.178   5.940   0.495 -0.1049 -0.3640  0.1013
 1293TIP3    H125370   0.125   5.949   0.416 -0.6633 -1.1364  0.3659
 1293TIP3    H225371   0.239   6.013   0.492 -0.2138 -0.3006 -0.9698
 1294TIP3   OH225372   4.170   6.380  15.445  0.4711 -0.2409 -0.7071
 1294TIP3    H125373   4.137   6.465  15.417 -0.9889 -1.1645 -1.9271
 1294TIP3    H225374   4.149   6.321  15.373 -1.4348 -2.2893  1.3728
 1295TIP3   OH225375   1.239   4.897   2.268 -0.3827  0.5315  0.0046
 1295TIP3    H125376   1.307   4.916   2.332 -0.6013  0.2250  0.3307
 1295TIP3    H225377   1.263   4.949   2.192  1.1905 -0.8933 -0.5416
 1296TIP3   OH225378   3.538   4.405  16.172  0.3393 -0.2475  0.1104
 1296TIP3    H125379   3.626   4.404  16.133 -0.7859 -0.3609 -2.6367
 1296TIP3    H225380   3.536   4.326  16.227  1.7136 -0.6190 -0.3123
 1297TIP3   OH225381   2.820   1.133  14.543  0.5791 -0.3985 -0.1543
 1297TIP3    H125382   2.849   1.184  14.467 -0.4560  0.6313  0.1264
 1297TIP3    H225383   2.887   1.065  14.551  0.4124 -0.9091 -2.3397
 1298TIP3   OH225384   2.908   4.343  15.105 -0.1275 -0.1283 -0.3159
 1298TIP3    H125385   2.998   4.362  15.079  0.1121 -0.2062  0.4322
 1298TIP3    H225386   2.880   4.422  15.152  0.6233 -1.2083  2.1596
 1299TIP3   OH225387   4.449   0.682   4.424  0.1226 -0.2480  0.1213
 1299TIP3    H125388   4.395   0.633   4.486 -0.2570  1.7566  1.4714
 1299TIP3    H225389   4.458   0.769   4.464  2.6848  0.0993 -1.0512
 1300TIP3   OH225390   5.349   6.086  14.950  0.4595  0.1078 -0.1083
 1300TIP3    H125391   5.410   6.023  14.989 -0.6605 -1.4554 -0.7592
 1300TIP3    H225392   5.285   6.031  14.904 -1.1137  1.7070  0.0903
 1301TIP3   OH225393   2.598   6.461  13.052  0.2463 -0.0491 -0.2135
 1301TIP3    H125394   2.666   6.423  13.107  0.6992 -0.3642 -0.9665
 1301TIP3    H225395   2.631   6.450  12.962 -0.9524 -0.5217 -0.6217
 1302TIP3   OH225396   4.801   6.546  15.840  0.6108 -0.0510  0.2537
 1302TIP3    H125397   4.888   6.545  15.800  0.9774 -2.7397  0.9400
 1302TIP3    H225398   4.744   6.503  15.776 -0.1355  1.1917  0.0504
 1303TIP3   OH225399   2.865   1.703   6.040 -0.5437 -0.1304 -0.0042
 1303TIP3    H125400   2.789   1.675   5.988 -0.5554 -2.3149  1.0623
 1303TIP3    H225401   2.827   1.737   6.121 -0.4305  0.4715 -0.2008
 1304TIP3   OH225402   5.768   2.657   2.079 -0.3640  0.0348  0.4731
 1304TIP3    H125403   5.863   2.642   2.079 -0.4276 -0.4424 -0.7684
 1304TIP3    H225404   5.746   2.666   2.172  1.3353  3.0921  0.7029
 1305TIP3   OH225405   5.250   4.322  14.594  0.0362  0.8175 -0.4844
 1305TIP3    H125406   5.213   4.263  14.660  0.9139 -0.3041 -0.9535
 1305TIP3    H225407   5.242   4.274  14.512 -0.5722  1.9860 -1.1338
 1306TIP3   OH225408   5.263   3.743  12.313 -0.2873 -0.3419  0.0597
 1306TIP3    H125409   5.326   3.814  12.319 -0.6113  0.0052 -0.5400
 1306TIP3    H225410   5.306   3.678  12.256 -0.4776 -0.0975 -0.3641
 1307TIP3   OH225411   3.151   2.991   5.794 -0.5090  0.1915  0.0889
 1307TIP3    H125412   3.072   3.033   5.829 -1.0153  0.8564 -1.7251
 1307TIP3    H225413   3.205   3.063   5.763  0.4915 -0.3065  0.6361
 1308TIP3   OH225414   1.680   3.008   2.205  0.9741 -0.2037 -0.5248
 1308TIP3    H125415   1.625   2.954   2.262  0.4056  0.1252 -0.7505
 1308TIP3    H225416   1.625   3.026   2.129  1.0887  0.8563 -0.3653
 1309TIP3   OH225417   3.001   1.434  12.961  0.1567  0.0450 -0.1534
 1309TIP3    H125418   2.924   1.383  12.984 -0.2297  0.4663 -0.5112
 1309TIP3    H225419   3.057   1.372  12.913  1.0199 -0.8782  1.9242
 1310TIP3   OH225420   4.788   5.394   5.100  0.1841 -0.3545 -0.0172
 1310TIP3    H125421   4.862   5.350   5.058  0.1005 -0.5592  0.0544
 1310TIP3    H225422   4.825   5.478   5.128 -0.2075  0.5758 -2.1094
 1311TIP3   OH225423   2.240   3.498   4.507 -0.2883 -0.1339 -0.5305
 1311TIP3    H125424   2.171   3.547   4.552  1.5061  2.4130 -0.3036
 1311TIP3    H225425   2.228   3.407   4.536 -1.6495  0.7373  1.9509
 1312TIP3   OH225426   3.513   6.046  11.355 -0.0562  0.1336 -0.1188
 1312TIP3    H125427   3.530   5.954  11.372  2.3983  0.9231  2.4519
 1312TIP3    H225428   3.558   6.065  11.273 -1.9211 -1.1947 -1.5395
 1313TIP3   OH225429   4.749   0.233  13.291 -0.2508  0.2332  0.9854
 1313TIP3    H125430   4.777   0.287  13.218 -1.3335 -1.4109 -0.7399
 1313TIP3    H225431   4.664   0.268  13.317 -1.0542 -0.6879 -0.2759
 1314TIP3   OH225432   5.515   3.969  13.824  0.1340  0.5830 -0.2374
 1314TIP3    H125433   5.452   3.967  13.753  0.6263  1.2576 -0.7120
 1314TIP3    H225434   5.515   3.880  13.860 -0.0046  0.1917 -1.1810
 1315TIP3   OH225435   3.977   1.978   0.576 -0.1898  0.5457 -0.6983
 1315TIP3    H125436   4.069   1.985   0.599 -0.5422  1.7501  0.4952
 1315TIP3    H225437   3.968   2.030   0.496  0.2294  0.0526 -1.0745
 1316TIP3   OH225438   1.308   2.501  16.772 -0.0381  0.0657 -0.3590
 1316TIP3    H125439   1.362   2.498  16.693 -2.1351  2.1251 -1.9902
 1316TIP3    H225440   1.222   2.470  16.744 -0.2084 -1.6630  1.8053
 1317TIP3   OH225441   2.673   6.455   4.605  0.0849 -0.5879 -0.6636
 1317TIP3    H125442   2.580   6.471   4.621  0.2598  0.9915 -1.0154
 1317TIP3    H225443   2.696   6.385   4.665 -1.9473 -3.0098 -2.5163
 1318TIP3   OH225444   5.872   1.969   5.652 -0.0834 -0.0326  0.1234
 1318TIP3    H125445   5.947   1.930   5.696 -0.7370 -0.7645  0.6135
 1318TIP3    H225446   5.809   1.897   5.643 -0.9717  0.7113  0.2746
 1319TIP3   OH225447   6.221   1.366  12.310  0.6492 -0.2629  0.3735
 1319TIP3    H125448   6.148   1.315  12.275  0.1318 -0.2170  1.3621
 1319TIP3    H225449   6.247   1.422  12.236  0.4753 -1.1230 -0.3608
 1320TIP3   OH225450   4.890   4.398   0.332 -0.4260 -0.2103  1.0295
 1320TIP3    H125451   4.953   4.449   0.280 -0.0534 -2.3720 -0.7756
 1320TIP3    H225452   4.944   4.340   0.385 -0.8019 -1.7722 -0.2058
 1321TIP3   OH225453   2.745   1.137   0.416 -0.4951  0.4511 -0.1634
 1321TIP3    H125454   2.783   1.054   0.385  0.6416  1.0434 -0.4203
 1321TIP3    H225455   2.773   1.201   0.351  0.2097  1.3553  0.9878
 1322TIP3   OH225456   0.804   1.695   5.528  0.2815 -0.3634  0.7197
 1322TIP3    H125457   0.889   1.680   5.569  2.1024 -0.2483 -2.7067
 1322TIP3    H225458   0.743   1.641   5.580  2.3194 -0.3596  3.3519
 1323TIP3   OH225459   2.960   1.710  13.852 -0.0488  0.1184 -0.7577
 1323TIP3    H125460   3.040   1.747  13.887 -0.7450  0.1015  0.9397
 1323TIP3    H225461   2.893   1.776  13.869 -0.5979 -0.3167 -1.1710
 1324TIP3   OH225462   6.155   4.327  11.049  0.2282 -0.2786  0.1200
 1324TIP3    H125463   6.246   4.351  11.035  0.2240 -0.2955  0.0631
 1324TIP3    H225464   6.110   4.410  11.062  0.4519 -0.3414  1.3468
 1325TIP3   OH225465   1.763   4.490   0.611 -0.4607  1.0281  0.0103
 1325TIP3    H125466   1.779   4.414   0.667 -1.6167  0.4921 -0.3487
 1325TIP3    H225467   1.667   4.498   0.609 -0.3962  1.7372 -0.9494
 1326TIP3   OH225468   1.954   3.017   5.261  0.2036  0.2407 -0.1068
 1326TIP3    H125469   2.030   2.959   5.265  0.5577  0.7474  0.6756
 1326TIP3    H225470   1.968   3.069   5.182  0.8026  0.4947  0.1564
 1327TIP3   OH225471   4.344   4.569   5.292 -0.4150  0.0032 -0.4411
 1327TIP3    H125472   4.310   4.529   5.372 -2.0814  1.2476 -0.4738
 1327TIP3    H225473   4.311   4.513   5.222  0.9283 -1.0069 -0.3149
 1328TIP3   OH225474   2.187   0.907  14.810  0.0885 -0.2403 -0.5560
 1328TIP3    H125475   2.135   0.829  14.826 -0.4531  0.5409  1.8007
 1328TIP3    H225476   2.142   0.952  14.738 -2.1489  0.0610  0.9517
 1329TIP3   OH225477   5.162   1.582  16.919 -0.3630  0.3587 -0.5260
 1329TIP3    H125478   5.217   1.620  16.987  0.8752  0.6081 -1.6239
 1329TIP3    H225479   5.131   1.657  16.868  0.5940  0.0559 -1.5981
 1330TIP3   OH225480   1.269   1.835   5.681  0.3364  0.0211 -0.1940
 1330TIP3    H125481   1.198   1.871   5.628  0.5177  0.2747 -0.2696
 1330TIP3    H225482   1.230   1.823   5.768  0.2045  0.1722 -0.2313
 1331TIP3   OH225483   0.041   4.219  13.416 -0.0981 -0.0801 -0.0152
 1331TIP3    H125484   0.117   4.176  13.454 -1.2586 -1.7233  0.5707
 1331TIP3    H225485   0.008   4.276  13.486  0.4102  0.4287 -0.1804
 1332TIP3   OH225486   3.982   3.076   1.570 -0.4623  0.2105 -0.3612
 1332TIP3    H125487   3.978   3.019   1.647 -1.6581 -0.7891 -1.1265
 1332TIP3    H225488   4.073   3.108   1.569  0.2254 -1.6159  0.1336
 1333TIP3   OH225489   1.865   4.486  14.088  0.1982  0.0871 -0.2858
 1333TIP3    H125490   1.897   4.502  13.999 -2.3014  0.5872 -1.1808
 1333TIP3    H225491   1.803   4.414  14.079 -0.4058  0.4210  0.9778
 1334TIP3   OH225492   1.762   0.979  14.531  0.2981 -0.3156 -0.5529
 1334TIP3    H125493   1.842   1.032  14.531 -0.9100  1.6171  0.0547
 1334TIP3    H225494   1.728   0.988  14.620 -1.5617  0.4769 -1.3125
 1335TIP3   OH225495   3.250   1.255   4.538  0.3417 -0.2714  0.1140
 1335TIP3    H125496   3.303   1.204   4.599  1.0051  0.4949  0.1836
 1335TIP3    H225497   3.160   1.240   4.567  0.5735 -0.8786  0.5327
 1336TIP3   OH225498   0.871   3.382  15.327 -0.3057 -0.0297 -0.3136
 1336TIP3    H125499   0.795   3.332  15.298 -0.0864 -1.1283  0.9149
 1336TIP3    H225500   0.945   3.344  15.279 -0.4078  0.4849 -0.8883
 1337TIP3   OH225501   4.283   4.799   1.787  0.0141  0.1642  0.2351
 1337TIP3    H125502   4.245   4.836   1.866 -1.0383 -0.1408 -0.1152
 1337TIP3    H225503   4.369   4.841   1.779 -0.7380  1.7857  0.3909
 1338TIP3   OH225504   2.446   1.263  16.140 -0.7223  0.0621  0.2825
 1338TIP3    H125505   2.424   1.180  16.100 -0.6494 -0.2509  0.8737
 1338TIP3    H225506   2.470   1.241  16.230  0.3938  0.5784  0.1377
 1339TIP3   OH225507   2.665   0.433   1.682  0.0650  0.0793 -0.5255
 1339TIP3    H125508   2.626   0.386   1.609  1.6465  0.2550 -1.5263
 1339TIP3    H225509   2.759   0.425   1.669  0.4050  0.1958  1.4542
 1340TIP3   OH225510   4.215   3.433   5.725 -0.3559 -0.4130  0.4424
 1340TIP3    H125511   4.180   3.382   5.798 -0.2837 -1.4743 -0.2445
 1340TIP3    H225512   4.199   3.379   5.648  1.2928 -0.1945 -0.0994
 1341TIP3   OH225513   5.172   1.949   0.078  0.3075 -0.4968  0.4956
 1341TIP3    H125514   5.175   1.920   0.169  0.3446 -0.7528  0.4148
 1341TIP3    H225515   5.079   1.961   0.060  0.3805  1.1681  1.0616
 1342TIP3   OH225516   4.647   0.823  11.630 -0.5448  0.3359 -0.6816
 1342TIP3    H125517   4.721   0.882  11.616 -1.2866  1.6583  0.6991
 1342TIP3    H225518   4.688   0.738  11.649  0.7521  1.4113  1.8822
 1343TIP3   OH225519   5.906   6.325   6.052 -0.4153  0.1868 -0.0557
 1343TIP3    H125520   5.961   6.343   6.129  0.7193 -0.9461 -0.5599
 1343TIP3    H225521   5.817   6.345   6.080 -0.1630 -1.2179  1.8923
 1344TIP3   OH225522   0.925   0.727   5.610  0.4652 -0.0533 -0.1357
 1344TIP3    H125523   0.934   0.820   5.590  1.7903 -0.5292 -1.9660
 1344TIP3    H225524   0.925   0.723   5.706  1.1460  1.7581 -0.0259
 1345TIP3   OH225525   1.661   2.619   2.473  0.2713  0.0172  0.0519
 1345TIP3    H125526   1.736   2.598   2.417  0.0155  0.3726 -0.4296
 1345TIP3    H225527   1.701   2.654   2.554  0.6211  0.4032 -0.2819
 1346TIP3   OH225528   4.482   2.477  13.662 -0.2750  0.1010  0.0497
 1346TIP3    H125529   4.511   2.459  13.751  1.1960 -1.2472 -0.6405
 1346TIP3    H225530   4.458   2.569  13.662  1.6408  0.6565  1.3580
 1347TIP3   OH225531   1.711   0.712  10.401 -0.1008 -0.1514 -0.4477
 1347TIP3    H125532   1.794   0.738  10.441 -1.3780  0.2111  2.1587
 1347TIP3    H225533   1.718   0.617  10.392  0.8474 -0.0526 -0.9157
 1348TIP3   OH225534   6.624   2.796  16.863 -0.1717 -0.5784 -0.1993
 1348TIP3    H125535   6.563   2.841  16.804  0.1745 -0.4990 -0.4984
 1348TIP3    H225536   6.667   2.866  16.911 -0.6971 -0.6546  0.4025
 1349TIP3   OH225537   1.585   6.728  12.818 -0.4102 -0.4091  0.3100
 1349TIP3    H125538   1.604   6.678  12.739 -0.3181  0.2268 -0.0748
 1349TIP3    H225539   1.567   6.661  12.885 -0.1077 -0.9549 -0.1463
 1350TIP3   OH225540   0.395   2.943  15.266  0.3595  0.2353 -0.0527
 1350TIP3    H125541   0.315   2.926  15.317 -0.9635 -2.3415 -2.6625
 1350TIP3    H225542   0.453   2.870  15.288  0.6751  0.3449 -0.5110
 1351TIP3   OH225543   1.408   0.628  13.171 -0.5820  0.4882 -0.2915
 1351TIP3    H125544   1.395   0.721  13.153 -1.3539  0.4495  0.0099
 1351TIP3    H225545   1.321   0.596  13.196 -0.0081  0.0492  1.2773
 1352TIP3   OH225546   0.221   6.491   5.926  0.1787  0.0021 -0.2558
 1352TIP3    H125547   0.235   6.418   5.865  0.0252  0.0026 -0.2921
 1352TIP3    H225548   0.236   6.454   6.013 -2.4821 -0.7639 -0.0453
 1353TIP3   OH225549   5.487   4.264  12.319 -0.3610  0.3767 -0.2345
 1353TIP3    H125550   5.558   4.310  12.363  0.2877  0.8162 -1.6921
 1353TIP3    H225551   5.416   4.327  12.315 -0.0536  0.7000 -0.7356
 1354TIP3   OH225552   1.622   3.445   2.500 -0.2378 -0.2183  0.0134
 1354TIP3    H125553   1.573   3.418   2.578  1.0806  1.5961  1.5614
 1354TIP3    H225554   1.650   3.363   2.460  0.9612 -1.2801  2.7279
 1355TIP3   OH225555   5.242   2.251  12.993 -0.3094 -0.0086 -1.4824
 1355TIP3    H125556   5.304   2.238  13.065 -0.5130  1.2796 -1.0438
 1355TIP3    H225557   5.297   2.265  12.916 -0.0182  1.4004 -1.0484
 1356TIP3   OH225558   2.010   0.139  14.315 -0.1577 -0.7486 -0.6767
 1356TIP3    H125559   1.972   0.200  14.377  2.3853  0.3699 -0.0638
 1356TIP3    H225560   1.961   0.152  14.234 -1.1309  0.4816  0.0834
 1357TIP3   OH225561   3.046   0.301  16.487 -0.4079 -0.3404 -0.3288
 1357TIP3    H125562   2.996   0.255  16.554 -2.6485  0.2038 -1.5188
 1357TIP3    H225563   2.981   0.356  16.442  1.5831  1.6309 -0.9552
 1358TIP3   OH225564   2.184   5.929  11.828 -0.2766 -0.3898 -0.6914
 1358TIP3    H125565   2.182   6.015  11.785  1.2463 -0.3212 -0.6813
 1358TIP3    H225566   2.138   5.871  11.768  0.1351  0.1008 -1.4961
 1359TIP3   OH225567   6.381   3.428  11.060  0.5357  0.8762  0.1032
 1359TIP3    H125568   6.386   3.400  10.969 -1.5192  0.8699 -0.0643
 1359TIP3    H225569   6.416   3.354  11.110  1.6529  0.8701 -0.6665
 1360TIP3   OH225570   1.499   2.924   3.574  0.5405  0.6063  0.3388
 1360TIP3    H125571   1.465   2.999   3.526  1.3788  0.8816  0.1647
 1360TIP3    H225572   1.588   2.913   3.541  1.4037  1.2542  2.3479
 1361TIP3   OH225573   5.875   4.248  13.035 -0.1400  0.2350  0.1093
 1361TIP3    H125574   5.816   4.311  13.078 -0.4650 -0.8078  1.2241
 1361TIP3    H225575   5.961   4.289  13.040 -0.2226  0.2765  1.4902
 1362TIP3   OH225576   0.379   1.367   0.062 -0.6444  0.4894  0.3378
 1362TIP3    H125577   0.420   1.354  -0.023 -0.5609  0.3986  0.3918
 1362TIP3    H225578   0.303   1.422   0.044 -1.2775 -0.4688  0.0347
 1363TIP3   OH225579   3.270   3.873   5.192  0.2883 -0.3875  0.1090
 1363TIP3    H125580   3.205   3.872   5.123  0.9081 -1.7723 -0.5071
 1363TIP3    H225581   3.304   3.783   5.194  0.4415 -0.3322  2.0580
 1364TIP3   OH225582   5.218   1.186  13.898  0.2707  0.0336  0.1291
 1364TIP3    H125583   5.182   1.125  13.962 -2.4261  0.4186 -0.8846
 1364TIP3    H225584   5.211   1.140  13.814 -0.3193  1.1023 -0.4338
 1365TIP3   OH225585   6.625   1.359   2.160  0.0109 -0.5817  0.0009
 1365TIP3    H125586   6.715   1.327   2.157  0.4087  0.4753 -3.7179
 1365TIP3    H225587   6.627   1.429   2.225  1.9960 -0.3089 -0.2850
 1366TIP3   OH225588   2.469   4.483   5.885 -0.1000 -0.5074  0.2550
 1366TIP3    H125589   2.396   4.425   5.904  1.1321 -1.5551  2.1030
 1366TIP3    H225590   2.475   4.540   5.962  0.8537 -0.2774  0.0251
 1367TIP3   OH225591   1.326   2.243  12.370  0.0676  0.3130 -0.3012
 1367TIP3    H125592   1.365   2.235  12.283 -0.1923 -0.0429 -0.3855
 1367TIP3    H225593   1.232   2.234  12.355 -0.2354  2.7661 -0.3181
 1368TIP3   OH225594   2.462   4.829  11.786  0.5802 -0.5375  0.1178
 1368TIP3    H125595   2.446   4.795  11.874  0.7196 -2.6327 -0.6094
 1368TIP3    H225596   2.388   4.887  11.768 -1.0541 -2.3930  0.5191
 1369TIP3   OH225597   5.560   6.746   5.089 -0.1015  0.1683  0.1931
 1369TIP3    H125598   5.580   6.670   5.033 -0.4758 -0.5502  1.0065
 1369TIP3    H225599   5.575   6.714   5.178  0.0291  1.1559  0.5306
 1370TIP3   OH225600   5.934   5.688  11.066 -0.0420 -0.6104 -0.4498
 1370TIP3    H125601   5.866   5.726  11.011  1.0900  1.4605 -0.5015
 1370TIP3    H225602   6.013   5.691  11.012  0.5672 -0.9258  0.3974
 1371TIP3   OH225603   3.339   4.816  16.708  0.0960 -0.2612 -0.2516
 1371TIP3    H125604   3.351   4.872  16.785  0.8768  0.3225 -0.7811
 1371TIP3    H225605   3.254   4.841  16.673 -1.0171 -1.6198  1.2719
 1372TIP3   OH225606   3.774   5.076   6.124  0.2332  0.3135  0.4239
 1372TIP3    H125607   3.804   5.065   6.214 -0.8727  2.7080  1.1425
 1372TIP3    H225608   3.682   5.103   6.132  0.5475  2.1152 -1.3090
 1373TIP3   OH225609   1.795   5.342   2.645 -0.3072 -0.6877  0.0603
 1373TIP3    H125610   1.769   5.294   2.724 -1.7784 -0.5406 -0.2942
 1373TIP3    H225611   1.736   5.309   2.577  0.5257 -0.3645 -0.8387
 1374TIP3   OH225612   1.738   2.739  15.005 -0.0035  0.3155 -0.3872
 1374TIP3    H125613   1.749   2.823  14.961  0.0744 -0.2563 -1.4982
 1374TIP3    H225614   1.654   2.746  15.051  0.9515  1.7311  1.2769
 1375TIP3   OH225615   2.389   1.552   4.581  0.3029  0.4894 -0.0052
 1375TIP3    H125616   2.481   1.542   4.557  0.2311  0.1154 -0.1256
 1375TIP3    H225617   2.348   1.469   4.555  0.0866  0.3515  0.7525
 1376TIP3   OH225618   0.090   2.290   3.780 -0.0160 -0.7961  0.6339
 1376TIP3    H125619   0.088   2.215   3.721  0.0248 -0.2306 -0.1017
 1376TIP3    H225620   0.088   2.366   3.722  1.2179 -0.2199  1.2982
 1377TIP3   OH225621   4.064   5.464  16.335  0.7141  0.3980  0.1207
 1377TIP3    H125622   3.978   5.504  16.320  0.8407  0.7028  0.2064
 1377TIP3    H225623   4.097   5.445  16.247  1.7225  2.7489 -0.0703
 1378TIP3   OH225624   6.762   2.544   2.500  0.0884  0.7838 -0.1284
 1378TIP3    H125625   6.738   2.481   2.432 -0.8170  0.6858  0.2817
 1378TIP3    H225626   6.730   2.628   2.467  2.1243  1.2488 -1.1291
 1379TIP3   OH225627   6.571   0.545   0.637 -0.2922  0.1745 -0.3460
 1379TIP3    H125628   6.621   0.467   0.663 -2.4991 -1.2179 -0.0868
 1379TIP3    H225629   6.528   0.520   0.555 -2.3692  0.4677  0.6061
 1380TIP3   OH225630   4.963   2.843   3.291  0.4904  0.3391 -0.0539
 1380TIP3    H125631   5.006   2.758   3.284  0.0616 -0.2836  3.0846
 1380TIP3    H225632   5.034   2.904   3.309  0.4966 -0.0041  1.1754
 1381TIP3   OH225633   5.272   2.537   0.869 -0.4885 -0.5625  0.0208
 1381TIP3    H125634   5.342   2.516   0.807 -0.0470 -1.6434  0.8399
 1381TIP3    H225635   5.205   2.580   0.816 -0.3763 -1.9523 -1.3241
 1382TIP3   OH225636   1.494   4.102  14.233  0.0877 -0.5926  0.2907
 1382TIP3    H125637   1.424   4.038  14.247  1.3935 -1.7611  2.0007
 1382TIP3    H225638   1.548   4.064  14.164 -0.8597  0.2564 -0.9524
 1383TIP3   OH225639   6.027   3.167  10.545  0.0108 -0.0022  0.4697
 1383TIP3    H125640   6.059   3.225  10.476 -0.5387  0.3354  0.4998
 1383TIP3    H225641   6.004   3.225  10.617 -0.5825 -0.2559  0.4880
 1384TIP3   OH225642   4.101   6.054  16.300  0.5920 -0.6935  0.5307
 1384TIP3    H125643   4.177   6.058  16.357 -1.0700  1.2443  2.7765
 1384TIP3    H225644   4.035   6.006  16.351 -1.4877  2.4894  1.0828
 1385TIP3   OH225645   1.014   0.613   6.270  0.0911 -0.0297 -0.2000
 1385TIP3    H125646   1.087   0.583   6.216  0.8455 -1.0844  1.3336
 1385TIP3    H225647   1.032   0.705   6.287  0.5777 -0.0480 -0.6010
 1386TIP3   OH225648   5.625   0.128  11.697 -0.3321 -0.0868 -0.2452
 1386TIP3    H125649   5.536   0.103  11.723 -0.8927 -0.4474 -2.2556
 1386TIP3    H225650   5.646   0.069  11.625  0.4743  1.6803 -1.5616
 1387TIP3   OH225651   2.599   0.221   2.307 -0.2482  0.0694 -0.1639
 1387TIP3    H125652   2.683   0.260   2.281 -0.7642  0.9611 -0.5223
 1387TIP3    H225653   2.614   0.127   2.299  1.6860  0.0141  2.6703
 1388TIP3   OH225654   2.000   1.917   5.722 -0.0598 -0.0059 -0.1650
 1388TIP3    H125655   1.936   1.988   5.731 -0.4525 -0.4887  0.9535
 1388TIP3    H225656   1.974   1.853   5.788 -0.4682 -1.7698 -1.9366
 1389TIP3   OH225657   6.669   1.077  16.041  0.8504 -0.0591  0.0242
 1389TIP3    H125658   6.666   1.020  16.118  0.2475  1.6571  1.3356
 1389TIP3    H225659   6.725   1.031  15.979  0.4094 -2.0444  1.0260
 1390TIP3   OH225660   2.255   0.486   3.797  0.4672 -0.5133  0.2071
 1390TIP3    H125661   2.181   0.525   3.750  1.6201 -0.4956 -1.7262
 1390TIP3    H225662   2.216   0.422   3.856 -1.1783  0.6070  0.3881
 1391TIP3   OH225663   0.160   0.455   2.827  0.1787  0.2702  0.3374
 1391TIP3    H125664   0.141   0.485   2.916 -0.2353  1.4844 -0.1270
 1391TIP3    H225665   0.255   0.443   2.826  0.0833 -0.6804  1.1965
 1392TIP3   OH225666   0.440   6.766  12.754 -0.0266 -0.3905  0.1935
 1392TIP3    H125667   0.349   6.784  12.779 -0.4480 -1.5123 -0.4748
 1392TIP3    H225668   0.451   6.812  12.671 -0.8626 -2.4511 -1.1198
 1393TIP3   OH225669   2.571   0.839   0.749  0.2347 -0.0265 -0.3538
 1393TIP3    H125670   2.488   0.810   0.786  1.1066 -1.9286  0.3041
 1393TIP3    H225671   2.586   0.925   0.787 -0.1649 -0.8056  1.7249
 1394TIP3   OH225672   4.925   2.100  10.780 -0.8643  0.6768 -0.3761
 1394TIP3    H125673   4.852   2.160  10.765 -0.9585  0.4282 -0.9510
 1394TIP3    H225674   4.969   2.134  10.857 -2.0288  0.4161  0.4440
 1395TIP3   OH225675   4.446   3.904  16.144 -0.4907 -0.8596 -0.0575
 1395TIP3    H125676   4.504   3.926  16.218 -0.6063 -2.3657  0.5143
 1395TIP3    H225677   4.371   3.962  16.155  0.4520  0.4427 -0.2457
 1396TIP3   OH225678   6.633   0.167  10.279 -0.1055  0.0861 -0.5993
 1396TIP3    H125679   6.600   0.126  10.359  0.4083  1.3626  0.3028
 1396TIP3    H225680   6.727   0.146  10.279  0.0218  0.6414 -0.5046
 1397TIP3   OH225681   1.413   0.619   3.245 -0.2528  0.7167  0.0433
 1397TIP3    H125682   1.489   0.644   3.191 -1.4064 -1.3482 -2.7958
 1397TIP3    H225683   1.434   0.532   3.277  0.2852  1.7944  2.9432
 1398TIP3   OH225684   4.743   3.371   0.721  0.4755 -0.5446  0.2847
 1398TIP3    H125685   4.705   3.285   0.740  0.1777 -0.4040  0.3286
 1398TIP3    H225686   4.800   3.356   0.645 -0.4682 -0.5450 -0.4306
 1399TIP3   OH225687   5.552   5.416  11.256  0.0464 -0.2362  0.3199
 1399TIP3    H125688   5.622   5.478  11.239 -0.6549  1.3395  2.6874
 1399TIP3    H225689   5.572   5.381  11.343 -1.0693 -1.2620  0.1900
 1400TIP3   OH225690   1.384   3.061  14.593  0.1492 -0.4372 -0.9073
 1400TIP3    H125691   1.471   3.083  14.560  1.1086  0.7955  2.0885
 1400TIP3    H225692   1.330   3.137  14.572  0.4023 -0.2261 -0.7990
 1401TIP3   OH225693   5.216   1.639  12.095  0.0143  0.5851 -0.2395
 1401TIP3    H125694   5.191   1.654  12.003  2.7725 -1.2020 -1.4182
 1401TIP3    H225695   5.188   1.549  12.112  0.1087  0.6829  0.4283
 1402TIP3   OH225696   0.290   6.016  15.861 -0.0665  0.2832 -0.0775
 1402TIP3    H125697   0.247   6.046  15.941 -1.2184 -0.7203 -0.2906
 1402TIP3    H225698   0.381   6.043  15.871 -0.0110 -0.4821  1.9247
 1403TIP3   OH225699   2.381   3.616  12.247 -0.2616 -0.0778  0.7580
 1403TIP3    H125700   2.375   3.564  12.327 -2.2034 -0.3829  0.4664
 1403TIP3    H225701   2.327   3.693  12.264  1.0022  0.9034  0.4706
 1404TIP3   OH225702   6.540   6.536   0.482 -0.5163 -0.3692 -0.1739
 1404TIP3    H125703   6.525   6.617   0.531 -1.6273 -0.0221 -1.0449
 1404TIP3    H225704   6.636   6.528   0.477 -0.2895 -0.9492  2.8537
 1405TIP3   OH225705   2.891   1.441  15.962  0.9406 -0.4098 -0.0527
 1405TIP3    H125706   2.907   1.347  15.957 -0.7752 -0.7482  0.0776
 1405TIP3    H225707   2.971   1.478  16.000  3.1275 -1.3152 -3.3816
 1406TIP3   OH225708   5.989   3.238  14.412 -0.2003  0.6383  0.3513
 1406TIP3    H125709   6.050   3.237  14.486  0.8939 -3.2467 -0.3426
 1406TIP3    H225710   6.028   3.178  14.348 -2.6751  1.3444 -2.0286
 1407TIP3   OH225711   0.493   0.676   1.401  0.1620 -0.4789 -0.0733
 1407TIP3    H125712   0.431   0.747   1.386  0.1666 -0.0833  1.5701
 1407TIP3    H225713   0.557   0.684   1.331 -0.1755  0.7558 -0.2614
 1408TIP3   OH225714   2.595   5.279  15.753  0.5377 -0.0124 -0.5109
 1408TIP3    H125715   2.679   5.273  15.800 -0.3266  0.4784  1.1696
 1408TIP3    H225716   2.565   5.189  15.745 -1.2812 -0.0109  3.7603
 1409TIP3   OH225717   4.790   6.314   0.410 -0.2194 -0.3248 -0.0673
 1409TIP3    H125718   4.726   6.243   0.403 -0.1752 -0.3363 -0.3616
 1409TIP3    H225719   4.737   6.391   0.429 -0.2882 -0.3967  0.0392
 1410TIP3   OH225720   5.539   5.491  11.917 -0.3814  0.4987  0.6937
 1410TIP3    H125721   5.527   5.533  11.832  1.0835  1.0464  0.7363
 1410TIP3    H225722   5.600   5.548  11.964  1.0491 -1.2291  1.0501
 1411TIP3   OH225723   5.579   6.481  15.700  0.3986 -1.2437  0.1491
 1411TIP3    H125724   5.515   6.480  15.629  0.0446  0.5571  0.4136
 1411TIP3    H225725   5.661   6.455  15.658  0.1535 -0.3855 -0.8953
 1412TIP3   OH225726   0.733   0.630   0.826  0.2738 -0.3651 -0.4659
 1412TIP3    H125727   0.810   0.682   0.805 -0.3429  0.9713  0.4157
 1412TIP3    H225728   0.685   0.623   0.743 -0.6736  2.3237 -0.2636
 1413TIP3   OH225729   0.016   4.712   2.776  0.4458  0.6857  0.1170
 1413TIP3    H125730   0.075   4.762   2.832 -0.3014  2.2542 -0.4374
 1413TIP3    H225731  -0.059   4.769   2.762 -0.8879 -0.9578  0.1883
 1414TIP3   OH225732   1.078   0.965  15.820  0.2576 -0.5002 -0.0413
 1414TIP3    H125733   1.131   1.002  15.890  0.3895 -0.6948 -0.0375
 1414TIP3    H225734   1.129   0.979  15.740  0.3985 -0.8548 -0.0125
 1415TIP3   OH225735   5.836   0.022  11.437  0.3251 -0.0717 -0.3767
 1415TIP3    H125736   5.883   0.067  11.507 -0.8015 -0.9093  0.9607
 1415TIP3    H225737   5.900   0.014  11.367  1.3975  1.0567  0.4413
 1416TIP3   OH225738   1.144   6.712   4.845  0.2585 -0.0643  0.1348
 1416TIP3    H125739   1.168   6.627   4.882  0.4385  0.7273  1.9637
 1416TIP3    H225740   1.107   6.760   4.919 -1.6328  0.7937 -1.3016
 1417TIP3   OH225741   1.721   5.596   0.650 -0.2945 -0.1834 -0.1959
 1417TIP3    H125742   1.767   5.635   0.724 -1.1284  0.0224  0.2287
 1417TIP3    H225743   1.764   5.511   0.637  0.7041  0.3209 -0.3216
 1418TIP3   OH225744   5.050   5.067   5.613  0.3140  0.0570 -0.8037
 1418TIP3    H125745   5.144   5.075   5.630 -0.1688  0.3887  2.1029
 1418TIP3    H225746   5.026   4.983   5.652 -0.9480  0.9620  0.4704
 1419TIP3   OH225747   0.540   0.776  11.309 -0.5024  0.0000 -0.4401
 1419TIP3    H125748   0.618   0.785  11.256 -0.8381 -1.3488 -1.2201
 1419TIP3    H225749   0.476   0.834  11.268 -0.2685  0.2129 -0.5050
 1420TIP3   OH225750   1.898   1.356  16.306  0.2161  0.7105 -0.7658
 1420TIP3    H125751   1.957   1.322  16.239  0.3498 -0.0347 -0.2859
 1420TIP3    H225752   1.831   1.289  16.316  1.0824  0.0312  0.9635
 1421TIP3   OH225753   1.924   4.576   3.250 -0.2533  0.1403 -0.3230
 1421TIP3    H125754   1.858   4.623   3.199  0.8075  1.2268 -0.7479
 1421TIP3    H225755   2.008   4.603   3.212  0.5472  0.4083  1.5186
 1422TIP3   OH225756   4.289   0.365  14.371  0.2075  0.4610 -0.0828
 1422TIP3    H125757   4.343   0.302  14.324 -1.3345 -1.0688  0.1250
 1422TIP3    H225758   4.337   0.448  14.363  1.7380 -0.4892 -1.2861
 1423TIP3   OH225759   4.295   0.405   0.668 -0.3035 -0.2042  0.5198
 1423TIP3    H125760   4.272   0.435   0.580 -1.7332  0.2803  1.0221
 1423TIP3    H225761   4.339   0.480   0.708  0.0165 -0.2955  0.3391
 1424TIP3   OH225762   0.830   1.966  15.207  0.1782 -0.5093  0.0204
 1424TIP3    H125763   0.811   1.894  15.267 -0.7665 -1.7774 -1.7149
 1424TIP3    H225764   0.750   1.978  15.157  0.7991  0.7837 -0.7338
 1425TIP3   OH225765   1.748   5.455  10.455 -0.0109  0.0175  0.0567
 1425TIP3    H125766   1.754   5.369  10.496  1.2175  0.9266  1.9341
 1425TIP3    H225767   1.662   5.489  10.481 -0.1649 -0.3147 -0.0182
 1426TIP3   OH225768   1.645   1.153   3.598  0.4453  0.5133 -0.3501
 1426TIP3    H125769   1.605   1.068   3.577 -0.9023  1.1118 -0.3244
 1426TIP3    H225770   1.610   1.213   3.532 -0.8816  1.6310  1.2738
 1427TIP3   OH225771   1.266   1.289  15.088 -0.4961  0.5012  0.1557
 1427TIP3    H125772   1.273   1.280  14.993  2.6604 -0.7358  0.3953
 1427TIP3    H225773   1.270   1.383  15.104 -1.2289  0.7310 -0.8980
 1428TIP3   OH225774   3.109   6.703  13.210 -0.0669 -0.2503  0.2014
 1428TIP3    H125775   3.053   6.728  13.137 -1.1981 -0.5104  0.9707
 1428TIP3    H225776   3.141   6.786  13.245 -0.7876 -0.0492  0.3909
 1429TIP3   OH225777   0.108   2.184   4.319  0.0439  0.3244  0.1146
 1429TIP3    H125778   0.043   2.221   4.259 -1.5362 -1.5276  0.5805
 1429TIP3    H225779   0.186   2.172   4.265 -0.4138  1.3433 -0.8233
 1430TIP3   OH225780   0.732   3.959   3.461 -0.2576  0.0054  0.0366
 1430TIP3    H125781   0.817   3.988   3.428  0.7962 -0.8725  1.8418
 1430TIP3    H225782   0.708   3.886   3.404 -0.5339  1.1493 -1.3761
 1431TIP3   OH225783   6.707   2.747   2.765 -0.2556  0.3791 -0.1198
 1431TIP3    H125784   6.729   2.821   2.708 -1.8621  0.0501 -1.2326
 1431TIP3    H225785   6.611   2.744   2.765 -0.2650 -0.6379  1.3326
 1432TIP3   OH225786   6.180   2.591  13.498 -0.2556 -0.0799 -0.2793
 1432TIP3    H125787   6.263   2.548  13.521 -0.6848 -0.3993  0.7640
 1432TIP3    H225788   6.141   2.535  13.432 -0.5155 -0.9686  0.6131
 1433TIP3   OH225789   0.053   5.928  14.866  0.3134  0.0450 -1.0612
 1433TIP3    H125790   0.056   6.019  14.894  2.2669  0.7079 -3.1235
 1433TIP3    H225791   0.122   5.884  14.916  0.9818  0.2899 -1.7342
 1434TIP3   OH225792   3.299   3.764   0.948 -0.1798  0.2193  1.0061
 1434TIP3    H125793   3.237   3.694   0.931 -0.5525  0.6595  0.5074
 1434TIP3    H225794   3.338   3.742   1.032 -0.9170 -0.1334  1.2652
 1435TIP3   OH225795   0.020   0.078   1.548 -0.3320 -0.9013  0.5424
 1435TIP3    H125796   0.064   0.035   1.475  0.7724  0.8798  0.0827
 1435TIP3    H225797   0.022   0.171   1.525 -0.6676 -0.3751  2.4803
 1436TIP3   OH225798   6.569   5.339  15.194 -0.4490 -0.2679 -0.4702
 1436TIP3    H125799   6.524   5.404  15.140 -2.7079 -1.5874 -0.2934
 1436TIP3    H225800   6.636   5.303  15.137 -1.4378 -0.1805 -1.7256
 1437TIP3   OH225801   5.964   1.503  13.752  0.2022  0.0239  0.3685
 1437TIP3    H125802   5.998   1.488  13.664 -1.3002 -0.6987 -0.1315
 1437TIP3    H225803   6.016   1.446  13.809 -0.3431 -1.3020 -0.4176
 1438TIP3   OH225804   2.512   5.364   2.567 -0.6076  0.3036 -0.3109
 1438TIP3    H125805   2.529   5.293   2.629  0.2794  0.0345 -0.8370
 1438TIP3    H225806   2.492   5.319   2.485 -0.9568  0.6649 -0.4270
 1439TIP3   OH225807   1.397   3.645  14.705 -0.1492  0.3376 -0.3790
 1439TIP3    H125808   1.312   3.604  14.719  0.5655 -0.4016  2.2723
 1439TIP3    H225809   1.427   3.611  14.620 -1.7282 -0.7185 -0.5490
 1440TIP3   OH225810   2.209   0.154  16.919 -0.0032 -0.0516  0.5422
 1440TIP3    H125811   2.127   0.105  16.920  0.1192 -0.2952 -0.3814
 1440TIP3    H225812   2.186   0.239  16.882  0.5519 -0.9182 -1.9708
 1441TIP3   OH225813   2.968   2.570  14.011 -0.4850  0.5335 -0.2656
 1441TIP3    H125814   3.062   2.572  14.026 -0.8203 -0.6795  2.6801
 1441TIP3    H225815   2.959   2.535  13.922  1.8180 -0.1245 -0.3172
 1442TIP3   OH225816   4.060   0.057   2.139 -0.3765  0.0780  0.4063
 1442TIP3    H125817   4.111   0.094   2.067 -0.7093  0.2562  0.2614
 1442TIP3    H225818   4.053  -0.036   2.118  0.7909 -0.1511  0.9690
 1443TIP3   OH225819   2.360   0.013   4.367 -0.1127  0.2462  0.3718
 1443TIP3    H125820   2.438   0.066   4.386  2.1268 -2.6241 -0.0583
 1443TIP3    H225821   2.388  -0.046   4.298 -3.1414 -0.1142 -0.6724
 1444TIP3   OH225822   4.838   0.922   2.614 -0.1174 -0.3429 -0.3898
 1444TIP3    H125823   4.886   0.946   2.534  0.5535  0.1125  0.1319
 1444TIP3    H225824   4.793   0.841   2.592 -0.3338  0.0344 -1.3860
 1445TIP3   OH225825   5.687   2.056  12.067  0.4715  0.3969  0.0488
 1445TIP3    H125826   5.730   1.981  12.026  3.7733  0.7642  2.4646
 1445TIP3    H225827   5.740   2.076  12.144 -2.8455  2.4662  2.0616
 1446TIP3   OH225828   5.211   4.496  15.510 -0.0831  0.0042 -0.0528
 1446TIP3    H125829   5.150   4.560  15.472 -1.4274 -1.6799 -0.8631
 1446TIP3    H225830   5.229   4.530  15.598 -2.2386  0.5931  0.2314
 1447TIP3   OH225831   2.556   3.012   0.474  0.0369  0.1948  0.6393
 1447TIP3    H125832   2.546   3.084   0.412 -2.7288 -1.7218 -1.3336
 1447TIP3    H225833   2.475   3.011   0.524  0.4317 -1.0057  1.2991
 1448TIP3   OH225834   4.238   6.053  15.296 -0.3033 -0.1924  0.3508
 1448TIP3    H125835   4.232   6.005  15.214 -1.6824  2.7998 -1.4800
 1448TIP3    H225836   4.154   6.098  15.304 -0.2807 -0.4561  3.5462
 1449TIP3   OH225837   1.108   6.559  15.526 -0.1297  0.1011  1.0019
 1449TIP3    H125838   1.152   6.533  15.445  0.2792  1.7477  0.6538
 1449TIP3    H225839   1.093   6.653  15.516 -0.4474  0.2638  2.6796
 1450TIP3   OH225840   0.411   6.307   5.014  0.5153  0.3406 -0.5844
 1450TIP3    H125841   0.427   6.219   4.981 -1.3586  0.3434 -1.5804
 1450TIP3    H225842   0.476   6.318   5.084 -0.4135 -2.5460  0.8971
 1451TIP3   OH225843   2.895   4.145   2.178  0.5780 -0.1672  0.2273
 1451TIP3    H125844   2.902   4.239   2.162 -1.0354  0.5570  3.0680
 1451TIP3    H225845   2.817   4.117   2.131 -1.5155  0.9660  2.7623
 1452TIP3   OH225846   1.533   5.544   2.390  0.1733  0.4809 -0.2464
 1452TIP3    H125847   1.548   5.452   2.411 -0.8535  0.2243 -0.5943
 1452TIP3    H225848   1.580   5.559   2.308  2.0068  0.8040  0.8146
 1453TIP3   OH225849   6.802   0.087  10.826 -0.0747 -0.5086  0.0622
 1453TIP3    H125850   6.710   0.100  10.848  0.4156  1.5142  1.2022
 1453TIP3    H225851   6.844   0.169  10.853  1.9070 -1.0198 -1.3029
 1454TIP3   OH225852   0.847   6.313  12.842  0.1436  0.0285 -0.7591
 1454TIP3    H125853   0.838   6.370  12.765 -0.1383 -0.3142 -0.9859
 1454TIP3    H225854   0.899   6.239  12.811  0.1067 -0.0674 -0.5947
 1455TIP3   OH225855   3.604   5.036  12.743  0.0539 -0.8183  0.0668
 1455TIP3    H125856   3.622   5.000  12.656 -0.5533 -0.0478 -0.4003
 1455TIP3    H225857   3.553   4.968  12.787  1.8305 -1.9445  0.4780
 1456TIP3   OH225858   4.133   2.208   0.842  0.2776  0.1095  0.0511
 1456TIP3    H125859   4.148   2.225   0.749  1.0795  0.9085  0.3051
 1456TIP3    H225860   4.166   2.119   0.856 -2.1964 -1.0448 -0.9248
 1457TIP3   OH225861   1.567   3.709   2.755 -0.0998  0.0212  0.3888
 1457TIP3    H125862   1.575   3.695   2.849 -1.5293  0.9418  0.6756
 1457TIP3    H225863   1.510   3.785   2.746 -0.0498 -0.0816 -1.2346
 1458TIP3   OH225864   3.040   1.204  15.992  0.2933  0.4669 -0.1270
 1458TIP3    H125865   3.025   1.156  16.074 -0.9773 -1.1391 -1.2163
 1458TIP3    H225866   3.122   1.251  16.006 -0.2935  0.9209  2.3517
 1459TIP3   OH225867   6.748   0.427   1.772  0.2125  0.4761  0.3598
 1459TIP3    H125868   6.667   0.441   1.820 -0.2393  1.8968 -0.7359
 1459TIP3    H225869   6.776   0.338   1.796 -1.4768  0.0893  1.0217
 1460TIP3   OH225870   0.561   2.631  14.210 -0.3293  0.3269  0.4652
 1460TIP3    H125871   0.653   2.603  14.211 -1.1668 -2.8797  1.7060
 1460TIP3    H225872   0.538   2.632  14.117  0.6707  0.0568  0.1942
 1461TIP3   OH225873   2.470   1.139   3.444 -0.1476  0.2206  0.4290
 1461TIP3    H125874   2.433   1.052   3.460  1.6184 -0.6620 -0.0941
 1461TIP3    H225875   2.444   1.190   3.521 -0.5412 -1.0037  1.1393
 1462TIP3   OH225876   2.148   5.327  13.678  0.7609 -0.0101 -0.4994
 1462TIP3    H125877   2.115   5.241  13.652  0.3209  0.2042 -0.6522
 1462TIP3    H225878   2.224   5.341  13.621  0.4865 -0.0421 -0.8745
 1463TIP3   OH225879   6.354   5.948  12.998  0.5614 -0.4069 -0.4939
 1463TIP3    H125880   6.303   5.873  13.028  1.6631 -0.9380  0.1395
 1463TIP3    H225881   6.444   5.927  13.023  1.0287  0.6996 -1.1685
 1464TIP3   OH225882   6.419   5.343  12.573  0.6573  0.1685 -0.5485
 1464TIP3    H125883   6.496   5.396  12.556  1.9393 -0.8634  1.6792
 1464TIP3    H225884   6.420   5.276  12.505  1.5943  0.2857 -0.6532
 1465TIP3   OH225885   6.431   5.949  11.673 -0.7357 -0.4166  0.1411
 1465TIP3    H125886   6.361   5.978  11.614 -1.2701 -2.1120 -0.1066
 1465TIP3    H225887   6.399   5.970  11.761 -1.0643 -0.2032 -0.0276
 1466TIP3   OH225888   3.171   3.687  11.488 -0.1464  0.2024  0.0210
 1466TIP3    H125889   3.097   3.716  11.435 -0.2719  1.7602  0.9761
 1466TIP3    H225890   3.198   3.765  11.536  1.7175 -0.4877  0.1822
 1467TIP3   OH225891   6.193   3.405   1.116  0.1247  0.0287 -0.2983
 1467TIP3    H125892   6.155   3.341   1.176 -0.2288  0.0375 -0.5111
 1467TIP3    H225893   6.237   3.352   1.050  0.2621  0.0131 -0.1937
 1468TIP3   OH225894   6.635   4.951   3.273 -0.2734 -0.2913 -0.4165
 1468TIP3    H125895   6.685   4.997   3.205 -2.0167  0.5209 -1.1961
 1468TIP3    H225896   6.598   4.875   3.229 -0.9168 -0.0899 -0.2329
 1469TIP3   OH225897   4.251   4.477   1.333 -0.4133 -0.1729  0.2042
 1469TIP3    H125898   4.275   4.554   1.280 -0.6998 -0.6471 -0.6436
 1469TIP3    H225899   4.330   4.422   1.331 -0.9119 -0.9016 -1.0672
 1470TIP3   OH225900   0.161   1.868   0.712  0.2393  0.4392 -0.8922
 1470TIP3    H125901   0.209   1.825   0.640  0.3123 -0.9520 -0.0592
 1470TIP3    H225902   0.223   1.932   0.747  1.4238 -1.1094 -0.0309
 1471TIP3   OH225903   0.902   2.851   3.152 -0.0657 -0.1004  0.3706
 1471TIP3    H125904   0.955   2.896   3.217 -1.6864 -0.8714  2.3106
 1471TIP3    H225905   0.937   2.762   3.149  0.3443  0.0726 -0.2426
 1472TIP3   OH225906   1.697   5.353   5.333  0.0891 -0.2859 -0.0963
 1472TIP3    H125907   1.709   5.393   5.247 -1.2701  0.2261 -0.0772
 1472TIP3    H225908   1.605   5.327   5.335 -0.3014  0.9890  1.6936
 1473TIP3   OH225909   0.184   5.665   0.834 -0.8083  0.4884  0.3335
 1473TIP3    H125910   0.275   5.653   0.807 -0.0038  2.6765  1.8829
 1473TIP3    H225911   0.133   5.630   0.760  1.1777 -2.9205  0.3670
 1474TIP3   OH225912   2.888   0.609  17.000 -0.1921  0.1185 -0.2997
 1474TIP3    H125913   2.887   0.516  17.023  1.2962 -0.0252 -0.7125
 1474TIP3    H225914   2.926   0.652  17.077 -1.8221  0.5430  0.3083
 1475TIP3   OH225915   0.007   0.234  12.339 -0.2679  0.2399 -0.0245
 1475TIP3    H125916   0.007   0.242  12.244  1.5273  1.3623  0.0252
 1475TIP3    H225917  -0.007   0.323  12.371 -0.0020  0.0082  0.7665
 1476TIP3   OH225918   1.629   3.497   5.085 -0.3779 -0.2119 -0.3212
 1476TIP3    H125919   1.586   3.483   5.169  0.9554 -1.0082  0.2555
 1476TIP3    H225920   1.603   3.421   5.032  0.1149 -0.5794 -0.0464
 1477TIP3   OH225921   2.145   3.294   3.874 -0.5077  0.2034  0.6329
 1477TIP3    H125922   2.222   3.319   3.823 -1.1221  0.9923  0.0526
 1477TIP3    H225923   2.180   3.259   3.956  0.5258 -1.5289 -0.4929
 1478TIP3   OH225924   0.781   6.122  13.470  0.7314  0.5662  0.6542
 1478TIP3    H125925   0.748   6.182  13.403  0.7403  1.3975  1.3802
 1478TIP3    H225926   0.706   6.067  13.491  0.8594 -0.0367 -0.3756
 1479TIP3   OH225927   5.314   5.480  12.069  0.5109 -0.2104 -0.2568
 1479TIP3    H125928   5.401   5.488  12.030  0.4741  2.7114  0.0076
 1479TIP3    H225929   5.256   5.468  11.994  1.0623 -2.0794 -0.4413
 1480TIP3   OH225930   3.860   3.296  14.565 -0.0523 -0.2567 -0.1408
 1480TIP3    H125931   3.800   3.280  14.492 -0.5045  1.4021 -0.1672
 1480TIP3    H225932   3.823   3.244  14.637 -0.8252 -0.2407 -0.5061
 1481TIP3   OH225933   3.799   3.008  15.761  0.5665 -0.3352  0.3328
 1481TIP3    H125934   3.727   3.036  15.818  0.6183 -1.1249  0.7894
 1481TIP3    H225935   3.762   3.013  15.672  0.5551  1.1211  0.3945
 1482TIP3   OH225936   6.418   2.234   5.264  0.4714  0.2600 -0.1076
 1482TIP3    H125937   6.449   2.247   5.354  1.0476  0.1918 -0.2931
 1482TIP3    H225938   6.388   2.142   5.262 -1.3953  0.7986  0.5474
 1483TIP3   OH225939   4.163   3.868   5.618  0.1499 -0.7925 -0.2103
 1483TIP3    H125940   4.183   3.879   5.525 -0.6761  1.4638 -0.1844
 1483TIP3    H225941   4.246   3.885   5.663  0.3544 -1.0106 -0.5061
 1484TIP3   OH225942   3.318   0.743   4.403 -0.4930  1.0568 -0.1827
 1484TIP3    H125943   3.238   0.784   4.369 -1.3876 -0.7610 -0.4187
 1484TIP3    H225944   3.331   0.781   4.489 -1.5842  1.4195 -0.1709
 1485TIP3   OH225945   1.262   2.888   5.490  0.2156  0.3092  0.1237
 1485TIP3    H125946   1.271   2.900   5.584 -3.0431  1.3846  0.4526
 1485TIP3    H225947   1.241   2.976   5.457 -0.3678 -0.3320 -1.3134
 1486TIP3   OH225948   0.584   6.655  16.164 -0.1707 -0.1330  0.7648
 1486TIP3    H125949   0.630   6.730  16.125  1.5547 -0.8723  1.2849
 1486TIP3    H225950   0.495   6.686  16.176  0.4295  1.7602  0.7027
 1487TIP3   OH225951   0.982   6.370  11.575  1.2057  0.0556  0.9495
 1487TIP3    H125952   1.004   6.423  11.651 -1.5599  2.8507  0.0382
 1487TIP3    H225953   0.998   6.428  11.500  0.6177 -1.3748 -0.3400
 1488TIP3   OH225954   4.185   1.084  11.696 -0.5002  0.6170  0.2362
 1488TIP3    H125955   4.152   1.091  11.606  0.6438  0.6125 -0.2064
 1488TIP3    H225956   4.226   0.998  11.700  1.6485  1.5596 -0.0407
 1489TIP3   OH225957   3.258   0.969  14.573 -0.0152  0.0222 -0.1190
 1489TIP3    H125958   3.353   0.975  14.585 -0.2036  1.0567  1.0274
 1489TIP3    H225959   3.234   1.054  14.534 -0.7211  0.6320  1.5580
 1490TIP3   OH225960   4.570   4.857  16.750 -0.2185 -0.5161  0.2818
 1490TIP3    H125961   4.621   4.797  16.695  1.0345  1.1440 -0.4425
 1490TIP3    H225962   4.596   4.836  16.840  1.4484 -0.0112 -0.0539
 1491TIP3   OH225963   2.850   1.212  15.211  0.3445  0.3180  0.1425
 1491TIP3    H125964   2.840   1.136  15.268  1.2867  0.8176  1.0148
 1491TIP3    H225965   2.939   1.206  15.178  0.3815  0.9688  0.1155
 1492TIP3   OH225966   0.578   3.589  12.625 -0.2976  0.3671  0.4587
 1492TIP3    H125967   0.576   3.499  12.659 -1.3523  0.4168  0.5439
 1492TIP3    H225968   0.502   3.631  12.663 -0.9706  0.7032 -1.1816
 1493TIP3   OH225969   3.846   5.627  16.301  0.7520  0.1037  0.2329
 1493TIP3    H125970   3.856   5.705  16.247 -0.2199  0.8553  1.1043
 1493TIP3    H225971   3.828   5.660  16.389  1.1262 -1.0991  0.7877
 1494TIP3   OH225972   5.293   3.987  11.239 -0.0462 -0.2177  0.0678
 1494TIP3    H125973   5.322   3.959  11.153  0.9718 -1.5111  0.7968
 1494TIP3    H225974   5.198   4.001  11.230 -0.0619 -0.9848 -1.0772
 1495TIP3   OH225975   0.989   1.810  15.986  0.3303 -0.5091  0.0077
 1495TIP3    H125976   0.946   1.827  15.902 -1.3006 -1.1539  0.6801
 1495TIP3    H225977   0.949   1.872  16.047  1.4808 -0.0669  0.3497
 1496TIP3   OH225978   3.402   3.164   3.840 -0.2259 -1.1378  0.1751
 1496TIP3    H125979   3.339   3.237   3.835 -0.8838 -1.5618  1.5695
 1496TIP3    H225980   3.366   3.097   3.782  0.9822  0.0201 -2.0274
 1497TIP3   OH225981   6.531   1.211  16.742 -0.7370 -0.9604  0.1747
 1497TIP3    H125982   6.512   1.153  16.816 -0.0937 -2.0359 -0.4692
 1497TIP3    H225983   6.501   1.162  16.665  0.2012 -0.6263 -0.4192
 1498TIP3   OH225984   1.734   5.185   4.320  0.0980 -0.3608 -0.3316
 1498TIP3    H125985   1.815   5.228   4.294  0.2318 -1.6136 -2.1751
 1498TIP3    H225986   1.668   5.254   4.316  1.0670  0.7843  1.6380
 1499TIP3   OH225987   2.375   4.396  12.464 -0.1938  0.2116  0.6348
 1499TIP3    H125988   2.337   4.452  12.532 -0.0865 -0.3986  1.2113
 1499TIP3    H225989   2.299   4.353  12.423 -0.2972  0.9550  0.0119
 1500TIP3   OH225990   5.012   0.774  11.359  0.2681 -0.2372  0.1706
 1500TIP3    H125991   4.964   0.856  11.365  1.2972  0.3571  0.6995
 1500TIP3    H225992   5.082   0.792  11.297  0.1010 -0.9336 -0.2297
 1501TIP3   OH225993   2.218   0.961  12.845 -0.3825 -0.2703 -0.2099
 1501TIP3    H125994   2.265   0.918  12.917  0.7237  1.8366  0.4141
 1501TIP3    H225995   2.287   0.986  12.783 -1.0543  0.1329 -0.8055
 1502TIP3   OH225996   4.265   2.899   6.509  0.2203  0.0602 -0.0262
 1502TIP3    H125997   4.268   2.992   6.489  1.7531  0.5653  2.2309
 1502TIP3    H225998   4.211   2.892   6.588  1.5835 -0.7018  0.8844
 1503TIP3   OH225999   2.672   5.542  13.277  0.2506  0.4783 -0.0586
 1503TIP3    H126000   2.679   5.448  13.260  0.0080  0.0756  1.7989
 1503TIP3    H226001   2.731   5.557  13.351 -0.2677  1.6546  0.1396
 1504TIP3   OH226002   2.632   4.338  14.010 -0.3069  0.1710  0.3882
 1504TIP3    H126003   2.577   4.310  14.083 -0.1074 -1.7271 -0.1294
 1504TIP3    H226004   2.717   4.357  14.049 -0.6130  0.6324  0.8377
 1505TIP3   OH226005   2.128   5.277  11.758  0.2203 -0.2132  0.5405
 1505TIP3    H126006   2.036   5.292  11.781  0.2577  0.7671  0.1154
 1505TIP3    H226007   2.130   5.191  11.718 -0.4396 -0.4282  0.9623
 1506TIP3   OH226008   4.498   1.295   0.536 -0.2723  0.6723  0.6659
 1506TIP3    H126009   4.518   1.307   0.443 -1.1695  1.2419  0.5245
 1506TIP3    H226010   4.520   1.204   0.554  1.7008  1.0555  0.3844
 1507TIP3   OH226011   2.905   4.745   0.184 -0.4867 -0.0512 -0.1340
 1507TIP3    H126012   2.911   4.671   0.245  1.4644  1.0150  1.0687
 1507TIP3    H226013   2.812   4.767   0.182 -0.8570 -1.3880  0.9095
 1508TIP3   OH226014   6.746   0.395  11.397 -0.6399 -0.1645 -0.2375
 1508TIP3    H126015   6.800   0.437  11.464 -1.8078 -0.5574  0.9836
 1508TIP3    H226016   6.669   0.451  11.389 -0.9326 -0.6059 -0.6060
 1509TIP3   OH226017   3.816   5.117  11.638  0.0243  0.5321  0.9267
 1509TIP3    H126018   3.868   5.147  11.563 -0.7503 -2.0405 -0.7627
 1509TIP3    H226019   3.881   5.084  11.700  0.6081  1.4980  0.8511
 1510TIP3   OH226020   2.549   5.057   2.571  0.2474  0.2564  0.5465
 1510TIP3    H126021   2.519   5.109   2.645  0.9782  0.2391  0.8593
 1510TIP3    H226022   2.477   4.996   2.554  0.3295 -0.1742  1.6582
 1511TIP3   OH226023   0.611   5.495  15.502  0.0092  0.3912 -0.1360
 1511TIP3    H126024   0.648   5.417  15.545 -0.0464  0.4241 -0.0277
 1511TIP3    H226025   0.645   5.491  15.413  1.5137  1.2348  0.3650
 1512TIP3   OH226026   5.082   1.637   6.458 -0.1151  0.0537 -0.4488
 1512TIP3    H126027   5.010   1.692   6.489 -0.1983  0.6929 -1.6979
 1512TIP3    H226028   5.044   1.549   6.451 -0.2747  0.0280  0.5484
 1513TIP3   OH226029   5.908   2.020  12.623 -0.2766  0.9239  0.1236
 1513TIP3    H126030   5.892   2.071  12.702  1.0185  3.9313 -1.3813
 1513TIP3    H226031   5.882   2.079  12.551  0.2067 -1.0068 -1.7370
 1514TIP3   OH226032   6.172   6.182  13.343 -0.2537  0.3963 -0.5032
 1514TIP3    H126033   6.177   6.277  13.339  2.6168  0.3041 -2.5670
 1514TIP3    H226034   6.117   6.158  13.268 -0.5482  0.3967 -0.2897
 1515TIP3   OH226035   3.454   5.679  16.462  0.3763  0.0819 -0.4306
 1515TIP3    H126036   3.512   5.753  16.481 -1.4255  0.6675  4.0560
 1515TIP3    H226037   3.394   5.712  16.396  1.0139  1.8356 -0.1877
 1516TIP3   OH226038   1.639   2.885   3.115  0.0470  0.3736  0.3965
 1516TIP3    H126039   1.719   2.857   3.071 -0.2500  1.2617 -0.7616
 1516TIP3    H226040   1.568   2.845   3.064 -0.2760  0.2664  0.9193
 1517TIP3   OH226041   5.624   5.085  12.115 -0.3416 -0.0382  0.8021
 1517TIP3    H126042   5.638   5.022  12.044 -2.2049  0.2496  0.1062
 1517TIP3    H226043   5.532   5.073  12.140 -0.5214  1.8093  1.2096
 1518TIP3   OH226044   4.698   2.029   0.541 -0.4596 -0.5395 -0.2117
 1518TIP3    H126045   4.659   1.956   0.493  0.2359  0.6581 -2.7188
 1518TIP3    H226046   4.690   2.104   0.483 -2.5597  1.8655  2.8896
 1519TIP3   OH226047   5.408   1.170   3.660 -0.5744  0.3422  0.0520
 1519TIP3    H126048   5.353   1.112   3.608 -0.5829  1.2410 -0.9796
 1519TIP3    H226049   5.497   1.144   3.639 -0.5756  0.7760 -0.5207
 1520TIP3   OH226050   2.784   2.466  14.543 -0.0084  0.0430  0.2882
 1520TIP3    H126051   2.752   2.556  14.533 -1.9111 -0.6427 -0.2474
 1520TIP3    H226052   2.724   2.425  14.605  0.8760 -0.8496  0.5857
 1521TIP3   OH226053   2.140   4.893  12.277 -0.8436  0.6494 -0.0582
 1521TIP3    H126054   2.171   4.950  12.208 -0.1871 -2.5780 -2.6838
 1521TIP3    H226055   2.176   4.930  12.357  0.9391  2.8752 -1.7629
 1522TIP3   OH226056   1.413   2.122  12.935 -0.1534 -0.3007  0.6273
 1522TIP3    H126057   1.376   2.037  12.914  2.5921 -2.0068  2.0316
 1522TIP3    H226058   1.415   2.124  13.031 -2.1217  2.3546  0.7218
 1523TIP3   OH226059   2.278   0.344   5.900  0.0989 -0.4938  0.6403
 1523TIP3    H126060   2.256   0.265   5.950 -0.8380 -0.5483  0.1591
 1523TIP3    H226061   2.231   0.414   5.945 -1.2401 -0.6348 -0.4828
 1524TIP3   OH226062   5.863   2.662   3.051  0.6362 -0.1704  0.4204
 1524TIP3    H126063   5.958   2.662   3.036  0.4918 -2.7221 -1.2885
 1524TIP3    H226064   5.847   2.580   3.098 -0.7423 -0.0331  0.2116
 1525TIP3   OH226065   5.240   3.930  15.322  0.1452  0.1678 -0.2530
 1525TIP3    H126066   5.209   3.989  15.390  2.4261  1.7192 -0.4661
 1525TIP3    H226067   5.164   3.917  15.265 -1.4217 -0.0836  1.7712
 1526TIP3   OH226068   2.532   2.123   3.696 -0.4861 -0.0033  0.3916
 1526TIP3    H126069   2.489   2.037   3.692  0.8438 -0.6792  0.1111
 1526TIP3    H226070   2.591   2.118   3.770  1.3068 -0.1939 -0.9726
 1527TIP3   OH226071   6.530   1.737  15.922  0.3258  0.2341 -0.1359
 1527TIP3    H126072   6.605   1.679  15.909  0.1821  0.1549 -0.6478
 1527TIP3    H226073   6.496   1.752  15.833 -1.5723 -1.4748  0.2192
 1528TIP3   OH226074   0.735   5.329  12.488 -0.2464 -1.0584 -0.5122
 1528TIP3    H126075   0.803   5.392  12.511  0.0777 -0.5332 -2.7233
 1528TIP3    H226076   0.675   5.378  12.432 -1.2878 -2.1059 -0.3506
 1529TIP3   OH226077   5.521   2.114  14.606  0.4944  0.5078  0.0855
 1529TIP3    H126078   5.523   2.117  14.702 -2.4576 -0.5011  0.2691
 1529TIP3    H226079   5.515   2.205  14.579  1.2351  0.7935  0.8385
 1530TIP3   OH226080   6.737   2.707  14.571  0.9315  0.1766 -0.5226
 1530TIP3    H126081   6.778   2.675  14.651 -1.5222  1.4592  1.4091
 1530TIP3    H226082   6.781   2.790  14.553  1.6590 -0.2351 -0.7075
 1531TIP3   OH226083   4.735   4.862  12.507  0.1221 -0.5479  0.0534
 1531TIP3    H126084   4.643   4.845  12.488  0.3093 -0.0241 -1.4676
 1531TIP3    H226085   4.782   4.814  12.439  0.9982 -1.1579  1.0693
 1532TIP3   OH226086   1.845   4.784  11.135 -0.4427  0.1795 -0.3177
 1532TIP3    H126087   1.819   4.694  11.159  1.3723 -0.5633 -1.0205
 1532TIP3    H226088   1.906   4.773  11.063 -1.4471  2.1063 -1.5333
 1533TIP3   OH226089   4.428   2.264   4.566  0.1744 -0.2864 -0.0874
 1533TIP3    H126090   4.419   2.170   4.546  1.4770  0.1446 -3.2897
 1533TIP3    H226091   4.522   2.276   4.579  0.1650  0.7620 -0.9335
 1534TIP3   OH226092   3.409   6.454  10.874 -0.0327 -0.3802  0.2938
 1534TIP3    H126093   3.427   6.365  10.904  0.7717 -0.2264  0.2904
 1534TIP3    H226094   3.333   6.444  10.817 -1.0508 -0.7972  1.6771
 1535TIP3   OH226095   2.414   4.766  11.356  0.1077  0.3154  0.4037
 1535TIP3    H126096   2.480   4.810  11.302  0.2793  1.0236  1.1629
 1535TIP3    H226097   2.464   4.719  11.422 -0.0918 -0.7857 -0.2102
 1536TIP3   OH226098   2.518   1.837   3.345  0.3474  0.5424  0.3403
 1536TIP3    H126099   2.518   1.838   3.441 -0.0585 -1.6599  0.4302
 1536TIP3    H226100   2.547   1.924   3.320  1.9288  0.7274  2.4880
 1537TIP3   OH226101   3.171   1.791   2.779  0.1063  0.1388  0.0876
 1537TIP3    H126102   3.171   1.696   2.783 -0.2970  0.1294 -0.0671
 1537TIP3    H226103   3.157   1.812   2.687 -1.8674  0.3329  0.3802
 1538TIP3   OH226104   3.791   5.544  13.948  0.3287 -0.6322 -0.1447
 1538TIP3    H126105   3.870   5.529  14.000  0.3209  0.8189  0.3208
 1538TIP3    H226106   3.719   5.524  14.008  0.3197 -1.8186 -0.5259
 1539TIP3   OH226107   2.998   1.231  11.504 -0.1248 -0.0457  0.0469
 1539TIP3    H126108   3.068   1.202  11.446 -1.2947 -1.1916 -0.8577
 1539TIP3    H226109   2.954   1.151  11.531 -1.3534  0.6701  0.2391
 1540TIP3   OH226110   3.208   4.953   1.299 -0.0284 -0.0827  0.1442
 1540TIP3    H126111   3.243   5.042   1.300  0.1940 -0.1733  0.5453
 1540TIP3    H226112   3.266   4.903   1.357 -1.3752 -0.0328  1.5850
 1541TIP3   OH226113   2.670   0.622  11.765  0.3069 -0.0114 -0.5385
 1541TIP3    H126114   2.629   0.624  11.679 -0.1432 -2.8520 -0.4901
 1541TIP3    H226115   2.600   0.647  11.826  0.0461 -0.0504 -0.8208
 1542TIP3   OH226116   3.253   1.498   5.420  0.2158 -0.4995  0.8950
 1542TIP3    H126117   3.171   1.455   5.445  0.3452 -0.2133  1.8415
 1542TIP3    H226118   3.225   1.582   5.382 -0.1460 -2.0073 -2.5360
 1543TIP3   OH226119   3.208   5.468  14.550  0.1515 -0.0698  0.1743
 1543TIP3    H126120   3.237   5.391  14.598 -0.2269 -0.1152  0.3281
 1543TIP3    H226121   3.234   5.542  14.606  1.7303  0.0011 -0.5826
 1544TIP3   OH226122   4.674   4.085   4.386 -0.2049  0.3449  0.2663
 1544TIP3    H126123   4.602   4.135   4.423  1.1479  1.0326  2.1177
 1544TIP3    H226124   4.715   4.145   4.323 -0.1698  0.6371  0.5610
 1545TIP3   OH226125   0.115   6.810   2.741 -0.0188 -0.5168  0.1573
 1545TIP3    H126126   0.108   6.885   2.799 -1.7634  1.7396 -2.6979
 1545TIP3    H226127   0.032   6.763   2.751 -0.6030  0.2486 -0.8792
 1546TIP3   OH226128   3.042   3.390   0.479 -0.4605  0.1558  0.5484
 1546TIP3    H126129   2.957   3.352   0.500 -0.5512  0.6209  1.0431
 1546TIP3    H226130   3.051   3.379   0.384 -1.1719  0.3149  0.4615
 1547TIP3   OH226131   5.689   0.185   4.772  0.2993 -0.5580 -0.3903
 1547TIP3    H126132   5.729   0.232   4.699  1.8840 -0.8517  0.2504
 1547TIP3    H226133   5.759   0.178   4.837 -0.7756 -1.2038  0.7347
 1548TIP3   OH226134   4.669   0.958  12.202  0.4619  0.0509 -0.0371
 1548TIP3    H126135   4.654   0.923  12.114 -0.7491  0.5429 -0.0420
 1548TIP3    H226136   4.592   0.932  12.252  1.1201 -0.1974  0.8937
 1549TIP3   OH226137   6.522   1.296  13.126  0.3938  0.2150  0.0283
 1549TIP3    H126138   6.481   1.378  13.098  1.4509  1.3334  1.5790
 1549TIP3    H226139   6.499   1.233  13.058 -1.9826  1.3198 -0.2927
 1550TIP3   OH226140   0.590   6.747   2.707 -0.1861  0.3091 -0.2370
 1550TIP3    H126141   0.574   6.656   2.680 -1.0681  0.4321 -0.1581
 1550TIP3    H226142   0.503   6.788   2.705 -0.0683  0.7162  1.3096
 1551TIP3   OH226143   4.978   0.216   3.713 -0.2651  0.1568  0.9581
 1551TIP3    H126144   4.922   0.293   3.716 -1.6533 -0.6998 -1.0662
 1551TIP3    H226145   4.999   0.199   3.805 -0.6963  2.3606  1.5229
 1552TIP3   OH226146   6.597   5.988  15.771 -0.1870 -0.7983 -0.3487
 1552TIP3    H126147   6.527   5.936  15.732  0.2397 -1.3515 -0.3994
 1552TIP3    H226148   6.652   5.924  15.817  0.3346 -0.3884 -0.3822
 1553TIP3   OH226149   1.341   0.247   5.549 -0.3075  0.0633 -0.4261
 1553TIP3    H126150   1.301   0.332   5.530  1.3348  0.5548 -1.9709
 1553TIP3    H226151   1.428   0.252   5.509 -0.0280 -2.2265 -0.2401
 1554TIP3   OH226152   6.678   5.430  17.108 -0.3608 -0.2573  0.8170
 1554TIP3    H126153   6.702   5.421  17.016  0.6910 -1.2837  1.1660
 1554TIP3    H226154   6.673   5.341  17.141 -1.3825  0.0689  1.6126
 1555TIP3   OH226155   0.727   6.681   0.997 -0.2454 -0.1897  0.8338
 1555TIP3    H126156   0.656   6.745   0.999  1.1394  1.4984 -0.5171
 1555TIP3    H226157   0.683   6.596   1.004 -2.3331  0.8046  0.6138
 1556TIP3   OH226158   1.760   4.475   5.162  0.1508 -0.0900  0.9661
 1556TIP3    H126159   1.763   4.422   5.082  1.5666 -1.0671  1.6368
 1556TIP3    H226160   1.699   4.546   5.140 -0.1457 -0.7884 -0.6868
 1557TIP3   OH226161   5.639   3.910   5.332 -0.3804 -0.2414  0.5263
 1557TIP3    H126162   5.677   3.997   5.323  2.9350 -1.7301 -4.2375
 1557TIP3    H226163   5.562   3.912   5.275  0.0696 -0.4954 -0.1113
 1558TIP3   OH226164   0.063   2.334   3.381  0.5639  0.3495 -1.0161
 1558TIP3    H126165   0.074   2.400   3.450  2.3554 -2.5401  1.7743
 1558TIP3    H226166  -0.019   2.290   3.404 -0.4379  1.2593 -2.6513
 1559TIP3   OH226167   4.267   0.142   2.559  0.1919  0.8125  0.6432
 1559TIP3    H126168   4.245   0.235   2.553  0.0118  0.7260 -0.2065
 1559TIP3    H226169   4.197   0.098   2.510  1.5418  0.4138 -0.9869
 1560TIP3   OH226170   5.298   6.355   4.324  0.3011 -0.3122  0.0846
 1560TIP3    H126171   5.268   6.307   4.402 -2.4170  0.9966 -0.0257
 1560TIP3    H226172   5.325   6.440   4.358  1.9317 -0.7146 -0.1169
 1561TIP3   OH226173   0.952   5.610   4.622  0.8153  0.4820 -0.4397
 1561TIP3    H126174   1.004   5.552   4.678 -2.8681 -2.6173  0.2182
 1561TIP3    H226175   0.879   5.638   4.678  0.2952  2.4349 -1.9951
 1562TIP3   OH226176   4.445   4.361   3.349 -0.5535  0.0256  0.5827
 1562TIP3    H126177   4.443   4.311   3.267 -2.0066  1.2958 -0.2066
 1562TIP3    H226178   4.401   4.444   3.328 -2.2909 -0.1805  3.0105
 1563TIP3   OH226179   0.581   6.146  16.605  0.3181  0.3451  0.2321
 1563TIP3    H126180   0.558   6.239  16.602  0.0745  0.2734 -0.4022
 1563TIP3    H226181   0.496   6.101  16.610  0.4213  0.1476  0.2066
 1564TIP3   OH226182   0.289   2.202  10.955 -0.2106  0.5888 -0.6896
 1564TIP3    H126183   0.262   2.132  10.896 -0.2176 -1.0050  1.1269
 1564TIP3    H226184   0.272   2.168  11.043  3.4369  1.2496  0.4604
 1565TIP3   OH226185   0.439   2.907   4.199  0.3287 -0.6388 -0.1840
 1565TIP3    H126186   0.428   2.829   4.254  1.0617 -1.6588 -1.4210
 1565TIP3    H226187   0.500   2.879   4.131 -2.2643 -0.2377 -2.9014
 1566TIP3   OH226188   3.696   5.039  15.013 -0.5858 -0.5446 -0.3337
 1566TIP3    H126189   3.659   5.027  14.925  0.5137 -1.6535 -0.6642
 1566TIP3    H226190   3.623   5.073  15.065 -0.8041  1.8851 -2.0689
 1567TIP3   OH226191   4.672   3.240   5.169  0.3269  0.6068  0.0823
 1567TIP3    H126192   4.668   3.147   5.193 -2.1183  1.2211  2.6088
 1567TIP3    H226193   4.636   3.244   5.081  0.5608 -0.8234 -0.1064
 1568TIP3   OH226194   0.866   2.936  16.959  0.9595 -0.6887 -0.0837
 1568TIP3    H126195   0.819   2.865  16.915 -0.3758 -0.5557  1.0591
 1568TIP3    H226196   0.902   2.895  17.038 -2.5299  0.4358  2.3328
 1569TIP3   OH226197   4.829   0.716  15.258  0.3241 -0.4263  0.5448
 1569TIP3    H126198   4.864   0.628  15.267 -0.4341 -0.8178 -0.2867
 1569TIP3    H226199   4.775   0.728  15.336 -1.5329 -1.6308 -0.5066
 1570TIP3   OH226200   4.214   5.316  11.863 -0.1582 -0.3599  0.2346
 1570TIP3    H126201   4.175   5.257  11.928  0.1333 -1.9993 -1.0069
 1570TIP3    H226202   4.185   5.281  11.779  1.6971  0.0486 -0.6219
 1571TIP3   OH226203   2.835   6.637  13.048  0.1964  0.1463 -0.2153
 1571TIP3    H126204   2.750   6.652  13.007  0.7318  1.3083 -0.9857
 1571TIP3    H226205   2.869   6.726  13.063  2.7825 -0.1638 -3.2130
 1572TIP3   OH226206   3.529   4.621  12.131 -0.1808 -0.1935  0.5306
 1572TIP3    H126207   3.552   4.575  12.050 -0.5532  0.7633 -0.1272
 1572TIP3    H226208   3.556   4.560  12.201 -1.0227 -1.5871 -0.3036
 1573TIP3   OH226209   5.496   3.688  11.458 -0.1245  0.1447 -0.1468
 1573TIP3    H126210   5.560   3.740  11.409 -0.1234 -0.1637 -0.4785
 1573TIP3    H226211   5.549   3.643  11.525  0.0338 -0.2358 -0.5239
 1574TIP3   OH226212   5.467   6.820   0.493  0.1883  0.0089 -0.2690
 1574TIP3    H126213   5.494   6.842   0.404  1.7504  0.0238  0.1813
 1574TIP3    H226214   5.402   6.750   0.482  0.6905 -0.2970 -1.4083
 1575TIP3   OH226215   2.032   3.684  13.619 -0.0928 -0.4605  0.2420
 1575TIP3    H126216   2.096   3.726  13.561 -0.4268 -0.3236 -0.0303
 1575TIP3    H226217   1.963   3.748  13.629  0.3755 -0.1398  1.5181
 1576TIP3   OH226218   4.728   5.274   4.247  0.3341 -0.4037  0.2760
 1576TIP3    H126219   4.705   5.181   4.247 -0.0544 -0.3062 -0.2438
 1576TIP3    H226220   4.814   5.277   4.205  1.9037 -0.8923  3.1649
 1577TIP3   OH226221   2.145   6.354   1.754  0.1325 -0.2876  0.2006
 1577TIP3    H126222   2.222   6.382   1.803 -0.9032  2.6307  0.3384
 1577TIP3    H226223   2.179   6.289   1.692  3.1063  2.0743 -0.9233
 1578TIP3   OH226224   2.201   4.512  11.689  0.4034 -0.4516 -0.8243
 1578TIP3    H126225   2.151   4.446  11.737  0.7061 -0.9722 -1.2069
 1578TIP3    H226226   2.264   4.546  11.754  0.4635 -0.7727 -0.7127
 1579TIP3   OH226227   1.270   1.796   0.725  0.0623  0.2465  0.1204
 1579TIP3    H126228   1.327   1.735   0.678  0.9530  0.7473  0.5185
 1579TIP3    H226229   1.238   1.856   0.658 -0.1749 -0.1602 -0.1391
 1580TIP3   OH226230   5.576   3.140   4.715  0.0847 -0.6825  0.5572
 1580TIP3    H126231   5.514   3.078   4.677  0.4427 -1.4106  1.1289
 1580TIP3    H226232   5.533   3.172   4.794  0.0479 -0.4678  0.4512
 1581TIP3   OH226233   4.217   2.989  12.733 -0.1830 -0.2208 -0.3585
 1581TIP3    H126234   4.165   2.918  12.696  0.2182 -1.4518  1.2958
 1581TIP3    H226235   4.279   2.945  12.791  0.1705  1.4909  0.6348
 1582TIP3   OH226236   2.119   2.457  14.345  0.0674 -0.2865 -0.1469
 1582TIP3    H126237   2.044   2.413  14.385 -1.1680  0.2594 -1.7655
 1582TIP3    H226238   2.096   2.550  14.346  1.8557  0.1931  1.5948
 1583TIP3   OH226239   0.484   1.723  12.140 -0.6631  0.3277  0.0478
 1583TIP3    H126240   0.543   1.777  12.192  0.9031  0.3457 -1.6460
 1583TIP3    H226241   0.445   1.784  12.077 -0.9572 -0.0585 -0.1495
 1584TIP3   OH226242   1.641   3.915   1.085 -0.2823  0.3641 -0.2544
 1584TIP3    H126243   1.706   3.953   1.026 -1.3459  0.3792 -1.4646
 1584TIP3    H226244   1.599   3.990   1.126  1.6080  0.3434  1.9107
 1585TIP3   OH226245   6.721   1.573  15.110  0.8978 -0.3263 -0.7183
 1585TIP3    H126246   6.743   1.497  15.163  0.6501 -0.3566 -0.6555
 1585TIP3    H226247   6.670   1.538  15.037  0.5606 -0.1934 -0.5494
 1586TIP3   OH226248   5.516   0.929  16.572 -0.2178 -0.8475 -0.2724
 1586TIP3    H126249   5.560   1.014  16.578 -2.1636  0.1387  1.3264
 1586TIP3    H226250   5.553   0.877  16.644 -2.5059  0.5099  2.0741
 1587TIP3   OH226251   4.856   1.244  12.103 -0.1169 -0.3166 -0.8747
 1587TIP3    H126252   4.935   1.278  12.061  1.4786 -0.3935  1.8943
 1587TIP3    H226253   4.887   1.176  12.162 -2.2392 -0.2639  0.3891
 1588TIP3   OH226254   5.777   6.483   5.829  0.1696  0.2328 -0.2881
 1588TIP3    H126255   5.809   6.445   5.911 -1.8880 -1.5057 -0.1801
 1588TIP3    H226256   5.832   6.443   5.762 -0.4551 -1.2656  0.0270
 1589TIP3   OH226257   1.103   4.692   5.189  0.6301 -0.2466 -0.4879
 1589TIP3    H126258   1.131   4.633   5.119  1.7466 -1.2454  0.7499
 1589TIP3    H226259   1.176   4.694   5.251 -0.9615 -0.8789  1.5683
 1590TIP3   OH226260   4.713   3.744  12.727  0.3177 -0.3569  0.3946
 1590TIP3    H126261   4.781   3.730  12.660  1.1082 -0.3141  1.1789
 1590TIP3    H226262   4.633   3.707  12.687  0.8409 -0.6210 -0.4435
 1591TIP3   OH226263   3.416   2.516  11.599  0.3046  0.1897 -0.4539
 1591TIP3    H126264   3.373   2.597  11.628  0.1116 -0.3024  0.6683
 1591TIP3    H226265   3.506   2.525  11.631 -0.7046 -1.8964  3.7296
 1592TIP3   OH226266   4.622   2.168   5.747  0.6394 -0.3308  0.4476
 1592TIP3    H126267   4.693   2.231   5.759  0.2726 -0.2071  2.2788
 1592TIP3    H226268   4.666   2.084   5.737  1.0755 -0.2006  1.1861
 1593TIP3   OH226269   2.924   3.185   5.494  0.8106  0.5450  0.2668
 1593TIP3    H126270   2.909   3.105   5.444  1.9431  1.1508 -1.0880
 1593TIP3    H226271   2.894   3.163   5.583 -0.0608 -0.9582 -0.3565
 1594TIP3   OH226272   0.215   6.451  16.760 -0.5590 -0.3863 -0.7209
 1594TIP3    H126273   0.177   6.410  16.838  1.7646 -2.0394 -0.3614
 1594TIP3    H226274   0.228   6.542  16.785 -2.1604 -0.2837 -0.1127
 1595TIP3   OH226275   5.026   5.340   2.498  0.3348  0.1601  0.3637
 1595TIP3    H126276   4.977   5.316   2.419 -0.6423  0.2011  0.9372
 1595TIP3    H226277   5.117   5.349   2.468 -0.0126  0.1605 -0.7474
 1596TIP3   OH226278   4.353   4.326   0.385  0.0904  0.4500  0.5592
 1596TIP3    H126279   4.285   4.259   0.388 -0.0660  0.6019  0.4282
 1596TIP3    H226280   4.306   4.409   0.396  0.2720  0.5447  0.6325
 1597TIP3   OH226281   6.621   0.475  15.114 -0.3474 -0.5328  0.3500
 1597TIP3    H126282   6.644   0.386  15.142  1.7641  0.1112  0.8126
 1597TIP3    H226283   6.576   0.512  15.190  0.3888 -0.6334  0.8516
 1598TIP3   OH226284   0.499   1.755  16.796  0.0233  0.3860  0.0425
 1598TIP3    H126285   0.424   1.696  16.791  0.5359 -0.5584  2.4202
 1598TIP3    H226286   0.466   1.832  16.843 -0.2425  1.4142 -1.7319
 1599TIP3   OH226287   3.626   5.493  14.157 -0.0608 -0.4513 -0.0635
 1599TIP3    H126288   3.561   5.427  14.134  0.0764 -0.4775 -0.3808
 1599TIP3    H226289   3.591   5.536  14.235 -0.6149 -0.2386 -0.4281
 1600TIP3   OH226290   4.288   6.063   6.111 -0.6858  0.5511 -0.8998
 1600TIP3    H126291   4.276   6.092   6.202  0.3881 -1.9026  0.1078
 1600TIP3    H226292   4.299   6.144   6.061  0.2174  1.9198  1.3824
 1601TIP3   OH226293   3.576   5.300   2.475  0.0530 -0.0472  0.2429
 1601TIP3    H126294   3.573   5.219   2.423 -4.6944  1.4786 -2.5138
 1601TIP3    H226295   3.562   5.271   2.565  0.1824 -2.3748 -0.4166
 1602TIP3   OH226296   6.690   5.152  13.349 -0.2002  0.1292  0.6445
 1602TIP3    H126297   6.656   5.237  13.377 -0.5956  0.4263 -0.7087
 1602TIP3    H226298   6.674   5.095  13.424  0.7647  1.4002  1.8770
 1603TIP3   OH226299   4.994   3.036  12.666 -0.1301  0.0807 -0.4392
 1603TIP3    H126300   4.928   3.086  12.616 -2.3491 -2.0732  0.1413
 1603TIP3    H226301   5.035   2.979  12.600  0.9276  1.1345 -0.7260
 1604TIP3   OH226302   4.112   5.008  15.265  0.5327 -0.0048  0.1058
 1604TIP3    H126303   4.133   5.050  15.348 -0.5554 -1.0483  0.9350
 1604TIP3    H226304   4.040   5.059  15.229  0.9829  0.4287 -0.1822
 1605TIP3   OH226305   3.131   6.617   0.334 -0.2552  0.2563  0.3703
 1605TIP3    H126306   3.128   6.641   0.242  1.7272 -1.6541 -0.2732
 1605TIP3    H226307   3.065   6.548   0.343 -0.4036  0.3980  0.3796
 1606TIP3   OH226308   0.673   0.911  11.508  0.2241  0.1007  0.0794
 1606TIP3    H126309   0.626   0.859  11.442  1.3705 -0.5672 -0.2509
 1606TIP3    H226310   0.655   1.002  11.485  0.3810 -0.1265 -0.9955
 1607TIP3   OH226311   3.389   6.026   0.739  0.0247  0.1720  0.5948
 1607TIP3    H126312   3.320   6.092   0.742  1.2223  1.6019 -0.8589
 1607TIP3    H226313   3.346   5.946   0.710 -0.5712  1.8847 -3.9802
 1608TIP3   OH226314   3.213   3.540  12.612 -0.1198  0.1815 -0.1503
 1608TIP3    H126315   3.137   3.524  12.556 -1.6355  2.0809  1.1982
 1608TIP3    H226316   3.250   3.623  12.579 -0.1408  0.5435  0.7087
 1609TIP3   OH226317   3.324   5.949  16.252  0.1838 -0.2263 -0.0950
 1609TIP3    H126318   3.282   5.996  16.179 -1.2003  1.0810  1.4568
 1609TIP3    H226319   3.339   5.861  16.218 -1.0365  0.1549 -1.7539
 1610TIP3   OH226320   3.820   6.247  15.479  0.2492 -0.1901 -0.1247
 1610TIP3    H126321   3.746   6.190  15.457 -0.0888  0.0154  0.4467
 1610TIP3    H226322   3.781   6.334  15.490  0.7272  0.1197 -0.7686
 1611TIP3   OH226323   0.589   2.678   3.034 -0.3013  0.1949  0.3147
 1611TIP3    H126324   0.567   2.657   2.943  2.2171 -0.2195 -0.2660
 1611TIP3    H226325   0.550   2.606   3.084  1.4194 -1.6727 -0.8590
 1612TIP3   OH226326   2.147   4.727  11.332  0.6018 -0.2394 -0.3446
 1612TIP3    H126327   2.107   4.737  11.246 -0.5595  0.1221  0.2233
 1612TIP3    H226328   2.240   4.747  11.317  0.3547  0.1671 -1.4333
 1613TIP3   OH226329   4.596   6.028   5.408 -0.0026 -0.0574 -0.2426
 1613TIP3    H126330   4.544   6.109   5.414 -0.8187 -0.6871  2.9585
 1613TIP3    H226331   4.533   5.958   5.423  0.7431 -1.3767 -2.7286
 1614TIP3   OH226332   4.278   4.364   5.106  0.2434 -0.5308 -0.2699
 1614TIP3    H126333   4.333   4.372   5.028  1.9708 -1.2668  0.8226
 1614TIP3    H226334   4.307   4.283   5.148 -2.4125 -1.5620 -0.1632
 1615TIP3   OH226335   6.655   1.811   2.767 -0.0963 -0.4291  0.0631
 1615TIP3    H126336   6.713   1.885   2.752 -1.8615  0.5117 -2.8185
 1615TIP3    H226337   6.672   1.752   2.694 -0.3602 -1.8055  1.0705
 1616TIP3   OH226338   0.936   4.981   2.036 -0.2347  0.2144 -0.0159
 1616TIP3    H126339   1.021   5.026   2.033 -0.8055  1.2691 -0.9910
 1616TIP3    H226340   0.949   4.902   1.984 -0.1223  0.8900 -1.0480
 1617TIP3   OH226341   3.732   5.774  14.648 -0.1123  0.3215  0.5121
 1617TIP3    H126342   3.776   5.845  14.603 -0.8712 -0.2104 -1.1754
 1617TIP3    H226343   3.802   5.715  14.674  0.4022  0.9692  0.6128
 1618TIP3   OH226344   6.576   2.062   3.084  0.2288 -0.2643  0.4620
 1618TIP3    H126345   6.583   2.133   3.020 -0.4241  0.9204  1.6558
 1618TIP3    H226346   6.578   2.107   3.169 -0.0124 -1.7017  1.2455
 1619TIP3   OH226347   4.144   3.186  13.933 -0.0029  0.1326  0.1092
 1619TIP3    H126348   4.178   3.225  13.853 -0.5915 -0.1969 -0.3015
 1619TIP3    H226349   4.053   3.166  13.915  0.1343 -0.9579  0.4803
 1620TIP3   OH226350   2.549   4.359  17.073 -0.2593 -0.6069  0.1880
 1620TIP3    H126351   2.486   4.410  17.021  0.0940 -0.2919  0.0619
 1620TIP3    H226352   2.623   4.346  17.014  0.2116 -0.1086  0.6579
 1621TIP3   OH226353   2.099   5.329   4.505 -0.4080 -0.3016  0.2397
 1621TIP3    H126354   2.105   5.423   4.522 -0.6911 -0.2594  0.1256
 1621TIP3    H226355   2.075   5.291   4.590 -0.7037 -0.2203  0.1968
 1622TIP3   OH226356   1.272   1.106   2.038 -0.1040 -0.6666 -0.3791
 1622TIP3    H126357   1.187   1.148   2.027  0.1947 -0.0805 -0.4832
 1622TIP3    H226358   1.272   1.033   1.976 -0.4228 -0.5056 -0.5656
 1623TIP3   OH226359   6.423   2.917  16.721 -0.1317 -0.4149  0.1657
 1623TIP3    H126360   6.350   2.976  16.741  0.7535  1.5198 -1.8390
 1623TIP3    H226361   6.437   2.927  16.627  0.6231 -3.2774 -0.0951
 1624TIP3   OH226362   6.288   0.207  10.516 -0.0041 -0.0490 -0.0108
 1624TIP3    H126363   6.380   0.194  10.541  0.0361  1.6984  0.9985
 1624TIP3    H226364   6.291   0.278  10.452 -0.6433 -0.0476 -0.0410
 1625TIP3   OH226365   2.208   6.727   0.267 -0.3620  0.3691  0.2714
 1625TIP3    H126366   2.136   6.754   0.323 -0.7509 -0.6038  0.2580
 1625TIP3    H226367   2.189   6.636   0.246  0.7392  0.1783  0.0554
 1626TIP3   OH226368   5.351   4.615  14.818  0.5216 -0.5053 -0.3625
 1626TIP3    H126369   5.357   4.645  14.909  0.7970 -0.4163 -0.4101
 1626TIP3    H226370   5.362   4.520  14.824  4.8970 -0.2121 -0.6687
 1627TIP3   OH226371   2.252   6.082   3.426 -0.2795  0.0609  0.1311
 1627TIP3    H126372   2.233   6.063   3.334  0.2390  1.7972 -0.3701
 1627TIP3    H226373   2.228   6.174   3.437 -2.0677 -0.5841  2.2469
 1628TIP3   OH226374   0.104   3.512   0.572  0.2470  0.0672 -0.3137
 1628TIP3    H126375   0.166   3.447   0.537  0.0462  0.5777 -1.6493
 1628TIP3    H226376   0.047   3.461   0.630  1.3720 -0.5637  0.2919
 1629TIP3   OH226377   0.877   2.596   6.449 -0.7409  0.1928 -0.0945
 1629TIP3    H126378   0.894   2.643   6.530 -1.0647  2.8728 -1.4575
 1629TIP3    H226379   0.796   2.634   6.415 -2.1230 -2.7404 -0.4306
 1630TIP3   OH226380   5.682   2.320   4.157 -0.0594 -0.2144 -0.6560
 1630TIP3    H126381   5.689   2.252   4.091  2.1995 -0.6496 -0.0272
 1630TIP3    H226382   5.760   2.374   4.145 -0.5223  0.7641  0.4977
 1631TIP3   OH226383   0.285   6.544   0.152 -0.4308  0.8816  0.1739
 1631TIP3    H126384   0.271   6.622   0.097 -0.4058  0.8698  0.1506
 1631TIP3    H226385   0.202   6.497   0.148 -0.5741  1.1032  0.4976
 1632TIP3   OH226386   2.425   3.844  13.708  0.2147  0.6622 -0.0888
 1632TIP3    H126387   2.443   3.769  13.651  1.9845  1.5499 -0.7615
 1632TIP3    H226388   2.330   3.854  13.704  0.0719 -0.7466 -1.0130
 1633TIP3   OH226389   3.644   2.806  13.799  0.1835  0.3050  0.6385
 1633TIP3    H126390   3.665   2.733  13.857  1.6499  0.8269  0.8030
 1633TIP3    H226391   3.702   2.877  13.828  0.9588  0.5791 -1.4489
 1634TIP3   OH226392   5.203   3.916  13.957 -0.3624 -0.9192 -0.1170
 1634TIP3    H126393   5.130   3.875  13.910 -1.4911  1.1919 -0.3295
 1634TIP3    H226394   5.271   3.928  13.890 -1.6049  1.2167 -1.1036
 1635TIP3   OH226395   3.878   3.154  16.164 -0.0995  0.0114 -0.0411
 1635TIP3    H126396   3.793   3.156  16.209  0.5691 -0.6008  1.3079
 1635TIP3    H226397   3.879   3.070  16.118  0.3159 -0.6314  1.0970
 1636TIP3   OH226398   2.036   6.502   0.461  0.9514 -0.3321 -0.3514
 1636TIP3    H126399   1.959   6.508   0.405  1.9388  0.4724 -1.6811
 1636TIP3    H226400   2.028   6.417   0.503 -1.6973  0.5337  1.1647
 1637TIP3   OH226401   6.174   1.081   2.847 -0.2293 -0.8763 -0.4607
 1637TIP3    H126402   6.140   1.064   2.935 -2.7068 -1.9923 -1.5469
 1637TIP3    H226403   6.149   1.172   2.829  1.4029 -0.2086  0.3903
 1638TIP3   OH226404   2.032   5.301  16.012  0.3310  0.6198  0.2592
 1638TIP3    H126405   2.015   5.212  16.043  0.6750 -0.2346 -1.8149
 1638TIP3    H226406   2.126   5.313  16.023  0.5126  0.1791 -0.7332
 1639TIP3   OH226407   2.725   3.210   6.194  0.2107 -0.1056  0.3623
 1639TIP3    H126408   2.817   3.209   6.168  0.7034  2.0946  1.7725
 1639TIP3    H226409   2.682   3.263   6.126  0.0946 -0.6185  0.0339
 1640TIP3   OH226410   0.300   0.683  10.745 -0.1005  0.2202 -0.3828
 1640TIP3    H126411   0.321   0.711  10.656  0.0990  1.1833 -0.0401
 1640TIP3    H226412   0.379   0.637  10.775  0.4950  1.3757 -0.1106
 1641TIP3   OH226413   3.453   3.806   2.767 -0.6879 -0.3622 -0.4498
 1641TIP3    H126414   3.443   3.898   2.744  0.6135  0.0229  0.4444
 1641TIP3    H226415   3.368   3.781   2.803 -0.6338  0.8873  0.6111
 1642TIP3   OH226416   1.340   6.126  16.047 -0.2018 -0.1660 -0.4779
 1642TIP3    H126417   1.353   6.108  15.954 -1.1469 -0.6221 -0.5313
 1642TIP3    H226418   1.395   6.202  16.064 -0.1858  0.0577 -1.4579
 1643TIP3   OH226419   4.147   1.134  11.978  0.6211  0.2627  0.0614
 1643TIP3    H126420   4.106   1.070  12.036 -0.4838  2.2160  1.5617
 1643TIP3    H226421   4.138   1.095  11.891  1.1591 -2.1676  1.0086
 1644TIP3   OH226422   6.250   5.569   5.512 -0.3422  0.1566  0.6816
 1644TIP3    H126423   6.236   5.655   5.550 -1.7863  0.2485  0.0211
 1644TIP3    H226424   6.164   5.526   5.516  0.2221 -1.0559  0.5246
 1645TIP3   OH226425   0.283   0.468   0.185 -0.2780  0.1742 -0.4077
 1645TIP3    H126426   0.211   0.418   0.148 -0.4160  0.3825 -0.4239
 1645TIP3    H226427   0.274   0.556   0.147 -0.2899  0.3272 -0.0553
 1646TIP3   OH226428   0.171   2.034   3.480 -0.2425  0.0453 -0.2669
 1646TIP3    H126429   0.185   1.947   3.441 -1.3285 -0.5565  0.6335
 1646TIP3    H226430   0.195   2.095   3.410 -2.2256 -0.9943 -1.9647
 1647TIP3   OH226431   2.718   5.552  14.694 -0.2774  0.5884 -0.1360
 1647TIP3    H126432   2.650   5.583  14.755  0.1437 -0.0600  0.6949
 1647TIP3    H226433   2.702   5.600  14.613 -0.5972  1.7924  0.6218
 1648TIP3   OH226434   3.005   5.600  16.116 -0.2808  0.1181 -0.1791
 1648TIP3    H126435   3.034   5.690  16.101  0.7070  0.0399  1.0421
 1648TIP3    H226436   2.910   5.602  16.107 -0.2127  1.1505 -0.7404
 1649TIP3   OH226437   3.099   6.636  16.916  0.6476  0.2062  0.0959
 1649TIP3    H126438   3.108   6.647  16.821 -0.1293 -0.3264 -0.0488
 1649TIP3    H226439   3.054   6.715  16.946 -0.0134 -0.0805 -0.1311
 1650TIP3   OH226440   1.688   1.071   5.180  0.3506 -0.2631 -0.7671
 1650TIP3    H126441   1.746   1.117   5.240 -0.1708  1.5145 -1.5228
 1650TIP3    H226442   1.630   1.020   5.236 -0.0110  1.2104  0.2709
 1651TIP3   OH226443   1.515   6.585   3.303 -0.2303  0.4770 -0.1215
 1651TIP3    H126444   1.586   6.630   3.350 -0.2257  1.8385 -1.3796
 1651TIP3    H226445   1.502   6.504   3.353  2.2257  0.1592  0.1313
 1652TIP3   OH226446   6.363   1.711   4.003 -0.0439  0.3045 -0.0577
 1652TIP3    H126447   6.323   1.648   3.943  0.8234  0.3902 -0.7310
 1652TIP3    H226448   6.315   1.699   4.085  0.4411 -1.5941 -0.0079
 1653TIP3   OH226449   0.665   5.444   3.022 -0.0106  0.2393  0.4145
 1653TIP3    H126450   0.619   5.526   3.009  1.2905  0.7263 -1.5900
 1653TIP3    H226451   0.597   5.382   3.049 -0.9907  1.9498  2.0803
 1654TIP3   OH226452   0.274   5.328   5.004  0.3899 -0.1410 -0.2029
 1654TIP3    H126453   0.193   5.283   5.029 -0.1389  0.9536  0.1782
 1654TIP3    H226454   0.252   5.374   4.923  1.8695 -3.0330 -2.4327
 1655TIP3   OH226455   4.950   2.128   2.248 -0.0860 -0.2044  0.1067
 1655TIP3    H126456   4.929   2.035   2.259 -1.6302  0.0813 -0.0735
 1655TIP3    H226457   4.944   2.143   2.153 -2.0011  0.4924  0.2927
 1656TIP3   OH226458   2.221   4.086  15.813  0.3186  0.5553  0.0427
 1656TIP3    H126459   2.243   4.087  15.720  0.5576  1.2045  0.1015
 1656TIP3    H226460   2.136   4.041  15.818  0.9806 -0.7749 -0.3303
 1657TIP3   OH226461   4.971   6.169   6.103  0.0058 -0.8176  0.3523
 1657TIP3    H126462   5.039   6.182   6.169 -0.6741  2.8590  0.5222
 1657TIP3    H226463   4.889   6.163   6.153 -0.1941 -1.6156 -0.0433
 1658TIP3   OH226464   4.953   5.150  11.605 -0.2189 -0.4117  0.0756
 1658TIP3    H126465   4.894   5.224  11.617 -0.2520 -0.5944  1.2042
 1658TIP3    H226466   4.987   5.160  11.516  2.0309  2.6542  1.1048
 1659TIP3   OH226467   5.493   2.694   1.116 -0.5414 -0.0567  0.4805
 1659TIP3    H126468   5.483   2.623   1.180 -2.8238  0.5141  0.8592
 1659TIP3    H226469   5.407   2.736   1.114 -0.5385  0.0580 -2.8907
 1660TIP3   OH226470   0.919   6.332  15.671 -0.0404 -0.2843 -0.2675
 1660TIP3    H126471   0.938   6.242  15.642  0.9757 -0.6334  1.3871
 1660TIP3    H226472   1.005   6.373  15.679 -0.3948  0.2999  0.6284
 1661TIP3   OH226473   0.833   0.499  13.193  0.3294 -0.1649 -0.4236
 1661TIP3    H126474   0.739   0.489  13.179  0.3325 -2.5247  0.7801
 1661TIP3    H226475   0.840   0.558  13.268 -0.2487 -0.9620  0.2670
 1662TIP3   OH226476   0.916   0.532  11.951  0.3744  0.6536 -0.5184
 1662TIP3    H126477   0.925   0.444  11.917  1.7592  0.9547 -0.9551
 1662TIP3    H226478   0.983   0.583  11.907  1.7195  1.2454  1.9911
 1663TIP3   OH226479   3.978   0.193  14.865  0.2950 -0.2525 -0.3088
 1663TIP3    H126480   4.043   0.226  14.803 -0.1710 -0.1922 -0.7816
 1663TIP3    H226481   3.997   0.238  14.947  0.7611 -0.1376 -0.4794
 1664TIP3   OH226482   3.482   3.810   4.122  0.7112  0.1864 -0.6336
 1664TIP3    H126483   3.397   3.852   4.114  0.0030 -0.8382  0.9731
 1664TIP3    H226484   3.545   3.883   4.120 -0.1851  0.9633 -1.7125
 1665TIP3   OH226485   3.275   1.808  15.678 -0.3236 -0.3727 -0.5009
 1665TIP3    H126486   3.351   1.855  15.711 -1.2529  0.6736  0.2400
 1665TIP3    H226487   3.200   1.863  15.702 -1.2738 -1.0726 -1.7397
 1666TIP3   OH226488   3.008   4.556   2.700 -0.2817  0.4738  0.2740
 1666TIP3    H126489   3.037   4.641   2.666 -1.4907  1.5340  1.7471
 1666TIP3    H226490   3.052   4.547   2.784 -0.6945 -0.0275  0.4440
 1667TIP3   OH226491   3.407   0.547   0.351  0.0341  0.3651 -0.0253
 1667TIP3    H126492   3.404   0.457   0.319 -1.1024 -0.0754  1.2338
 1667TIP3    H226493   3.409   0.601   0.271  1.6220 -0.7629 -0.7971
 1668TIP3   OH226494   5.247   5.757   1.848 -0.2808 -0.3572  0.0539
 1668TIP3    H126495   5.327   5.730   1.803 -0.6447  0.1356 -0.9201
 1668TIP3    H226496   5.277   5.798   1.929  0.5216  0.8291 -0.8178
 1669TIP3   OH226497   3.268   5.771  11.935 -0.0742  0.4948  0.0284
 1669TIP3    H126498   3.228   5.824  12.004 -0.6273  2.5664 -1.7698
 1669TIP3    H226499   3.197   5.717  11.902  0.5105 -1.6086  1.9258
 1670TIP3   OH226500   5.613   0.255   5.328 -0.3347 -0.4248  0.0674
 1670TIP3    H126501   5.561   0.333   5.348 -1.4498 -1.1591  0.1034
 1670TIP3    H226502   5.691   0.263   5.383 -0.7614  0.3205  0.5763
 1671TIP3   OH226503   2.958   1.243  16.922  0.5053 -0.5709 -0.2902
 1671TIP3    H126504   2.905   1.173  16.960  1.4218 -0.4292  1.3510
 1671TIP3    H226505   3.044   1.232  16.962  1.1939  0.3628 -1.4480
 1672TIP3   OH226506   6.206   6.097   3.873 -0.0982  0.2109 -0.1101
 1672TIP3    H126507   6.120   6.056   3.863  0.7783 -1.1588 -3.6098
 1672TIP3    H226508   6.264   6.026   3.899  0.3995  0.6331 -0.0390
 1673TIP3   OH226509   3.595   4.680  13.758  0.3326 -0.4054 -0.1305
 1673TIP3    H126510   3.632   4.629  13.830  0.6475  0.1135  0.0833
 1673TIP3    H226511   3.670   4.700  13.702  0.3551  0.4638  0.1869
 1674TIP3   OH226512   1.094   0.658  14.424  0.3265  0.3566 -0.3670
 1674TIP3    H126513   1.132   0.629  14.507  0.6138 -1.3786 -1.0682
 1674TIP3    H226514   0.999   0.660  14.440  0.3245 -0.7343 -0.2151
 1675TIP3   OH226515   1.418   3.900  10.872 -0.0414 -0.0913  0.0160
 1675TIP3    H126516   1.443   3.992  10.884 -0.7129 -0.1249  2.1380
 1675TIP3    H226517   1.501   3.852  10.874  0.2256  0.3716  0.1004
 1676TIP3   OH226518   3.508   4.476  11.250  0.0111 -0.3455  0.1562
 1676TIP3    H126519   3.465   4.503  11.169 -1.0628  1.0358  1.1428
 1676TIP3    H226520   3.577   4.542  11.263 -0.7552  0.2957  1.0878
 1677TIP3   OH226521   4.645   3.537   5.042 -0.5357  0.5564 -0.0327
 1677TIP3    H126522   4.647   3.447   5.074 -0.6801  0.3592 -0.5691
 1677TIP3    H226523   4.653   3.590   5.121  0.3044  0.0667  0.2282
 1678TIP3   OH226524   6.688   0.754   0.361 -0.4021 -0.8768 -0.1511
 1678TIP3    H126525   6.771   0.760   0.409 -1.2881 -1.4633  1.5366
 1678TIP3    H226526   6.641   0.835   0.385 -0.5602 -0.8348 -0.6023
 1679TIP3   OH226527   0.273   1.131  11.843 -0.4932  0.3672 -0.3433
 1679TIP3    H126528   0.321   1.082  11.910  0.0897 -1.0748 -1.7405
 1679TIP3    H226529   0.198   1.167  11.890 -0.6735 -1.4523  0.8986
 1680TIP3   OH226530   3.195   2.230  12.732  0.6568  0.3836  0.3988
 1680TIP3    H126531   3.239   2.306  12.771 -0.4737  0.9511  0.6157
 1680TIP3    H226532   3.266   2.173  12.703  1.5364  1.8245 -0.3610
 1681TIP3   OH226533   5.699   6.339  16.579 -0.3347  0.3405  0.3683
 1681TIP3    H126534   5.651   6.321  16.498 -1.6446  0.3186  1.1269
 1681TIP3    H226535   5.637   6.386  16.635  0.6809  0.7344  1.2158
 1682TIP3   OH226536   3.095   5.651  13.886 -0.0965  0.5859 -0.4309
 1682TIP3    H126537   3.059   5.673  13.972 -0.5040  3.1135 -1.1361
 1682TIP3    H226538   3.136   5.732  13.856  1.6983 -0.7593 -1.8579
 1683TIP3   OH226539   2.674   2.096  12.873  0.1065  0.0302 -0.1786
 1683TIP3    H126540   2.604   2.041  12.838  0.0105 -0.3484  0.5952
 1683TIP3    H226541   2.652   2.185  12.845 -0.5670 -0.1144 -0.1149
 1684TIP3   OH226542   1.397   5.497   3.762  0.1652 -0.1964  0.2242
 1684TIP3    H126543   1.446   5.539   3.832  0.7119 -1.1422  0.4249
 1684TIP3    H226544   1.463   5.455   3.707 -0.3204 -0.2616 -0.3263
 1685TIP3   OH226545   1.924   2.504   3.740 -0.2973 -0.4243  0.1141
 1685TIP3    H126546   1.849   2.559   3.716 -1.0286 -0.6889  1.6848
 1685TIP3    H226547   1.940   2.523   3.832  1.1824 -0.8548 -0.0275
 1686TIP3   OH226548   0.412   1.987  16.969 -0.5610  0.2456 -0.2584
 1686TIP3    H126549   0.500   2.025  16.967 -0.8189  0.9429  0.5968
 1686TIP3    H226550   0.410   1.937  17.050 -1.1693  0.8236  0.0934
 1687TIP3   OH226551   2.501   1.415  13.158  0.6181 -0.1128  0.1406
 1687TIP3    H126552   2.498   1.511  13.156  1.3357 -0.0946 -0.8552
 1687TIP3    H226553   2.432   1.387  13.098 -0.0268 -0.2493  0.9231
 1688TIP3   OH226554   3.650   4.595   4.466 -0.6468  0.0746 -0.3845
 1688TIP3    H126555   3.576   4.555   4.420 -0.2506 -0.2362 -0.7671
 1688TIP3    H226556   3.706   4.628   4.395 -0.4579  0.3724 -0.0957
 1689TIP3   OH226557   1.421   3.420   5.734 -0.4618  0.1319 -0.2007
 1689TIP3    H126558   1.352   3.482   5.712 -0.5473  0.2708  0.4491
 1689TIP3    H226559   1.389   3.374   5.811  1.1561  1.8552  1.5952
 1690TIP3   OH226560   2.534   2.599  12.622  0.4034  0.2463 -0.8367
 1690TIP3    H126561   2.449   2.566  12.592 -0.2563 -0.1798  1.3744
 1690TIP3    H226562   2.516   2.635  12.709  3.0162 -2.6627  1.1011
 1691TIP3   OH226563   1.738   0.470  13.343 -0.1416  0.5441  0.4118
 1691TIP3    H126564   1.744   0.422  13.426 -0.8545  0.2711  0.3157
 1691TIP3    H226565   1.671   0.537  13.359 -1.2790 -0.3672 -0.3345
 1692TIP3   OH226566   5.075   3.368   4.296  0.1665 -0.5754  0.3420
 1692TIP3    H126567   5.002   3.398   4.242  0.3824  3.3670  1.8827
 1692TIP3    H226568   5.153   3.386   4.243  0.3164  2.4209  1.3543
 1693TIP3   OH226569   4.576   1.859  12.826  0.0220 -0.1711 -0.3230
 1693TIP3    H126570   4.535   1.912  12.895 -1.3382 -1.0271 -0.4373
 1693TIP3    H226571   4.632   1.920  12.779 -2.9120  1.7330 -1.6587
 1694TIP3   OH226572   3.421   5.874  12.236 -0.0512 -0.1100 -0.3953
 1694TIP3    H126573   3.396   5.945  12.178  2.0084  2.0806  1.2023
 1694TIP3    H226574   3.490   5.828  12.189  0.7341  0.8720 -0.2321
 1695TIP3   OH226575   0.866   0.937  14.674  0.4691 -0.0683  0.5868
 1695TIP3    H126576   0.829   0.875  14.737  0.3477  2.3375  3.0908
 1695TIP3    H226577   0.824   1.020  14.695  1.6681  1.1924 -1.6626
 1696TIP3   OH226578   5.846   5.850  11.985 -0.2406  0.2087 -0.5255
 1696TIP3    H126579   5.751   5.851  11.993 -0.3597  2.2746 -1.4188
 1696TIP3    H226580   5.862   5.838  11.891  0.3673  0.2137 -0.4268
 1697TIP3   OH226581   1.396   2.233   2.086 -0.2285 -0.1951  0.7593
 1697TIP3    H126582   1.370   2.321   2.110  1.8042  0.2412  1.5791
 1697TIP3    H226583   1.376   2.179   2.162 -2.7190 -0.7772 -0.2207
 1698TIP3   OH226584   0.146   3.036   2.107 -0.0188  0.6212 -0.3422
 1698TIP3    H126585   0.202   3.022   2.031  0.4497  0.2140  0.0646
 1698TIP3    H226586   0.065   3.071   2.072 -0.0750 -0.2430 -1.1044
 1699TIP3   OH226587   1.674   6.600  14.011 -0.3065 -0.5155 -0.3651
 1699TIP3    H126588   1.588   6.631  13.983  1.0563  0.9112 -3.5503
 1699TIP3    H226589   1.707   6.668  14.069  0.4531  1.5351 -2.9736
 1700TIP3   OH226590   4.755   2.823  12.347 -0.2636  0.7273 -0.2666
 1700TIP3    H126591   4.676   2.804  12.397 -0.7059  1.9101 -0.4975
 1700TIP3    H226592   4.726   2.877  12.274  0.7142  0.9379 -0.5200
 1701TIP3   OH226593   1.762   3.801   5.639 -0.1529  0.4322 -0.0361
 1701TIP3    H126594   1.718   3.729   5.684 -0.7002  1.2052  0.6938
 1701TIP3    H226595   1.808   3.848   5.708 -0.8082  1.4972 -0.3057
 1702TIP3   OH226596   4.216   0.001   0.873 -0.2175  0.6316  0.1297
 1702TIP3    H126597   4.300   0.026   0.911 -0.1907 -2.1052  2.2306
 1702TIP3    H226598   4.153   0.008   0.944 -0.9389 -1.0884 -0.2611
 1703TIP3   OH226599   2.867   6.627  12.263 -0.2218 -0.1970  0.1783
 1703TIP3    H126600   2.926   6.607  12.190 -1.2118 -2.5401 -0.0832
 1703TIP3    H226601   2.795   6.676  12.224  1.6020  3.1137  0.5774
 1704TIP3   OH226602   4.296   1.195  11.376 -0.5904 -0.7584  0.0312
 1704TIP3    H126603   4.250   1.133  11.320 -1.1275 -2.5562  2.2881
 1704TIP3    H226604   4.386   1.163  11.377  0.0510  0.7965 -1.7370
 1705TIP3   OH226605   1.634   2.375   5.710  0.6740 -0.2814 -0.0773
 1705TIP3    H126606   1.699   2.315   5.674  1.1086 -0.8645  1.5867
 1705TIP3    H226607   1.569   2.318   5.752 -2.3324  0.1160 -3.6754
 1706TIP3   OH226608   5.091   3.422  12.311  0.3648 -0.0010  0.4666
 1706TIP3    H126609   5.081   3.512  12.280 -0.1253 -1.0987 -2.9171
 1706TIP3    H226610   5.005   3.398  12.346  0.1131  0.4028  0.1278
 1707TIP3   OH226611   4.279   3.237   4.181 -0.1770 -0.5065  0.2199
 1707TIP3    H126612   4.221   3.299   4.226 -0.2768  1.0305 -1.8394
 1707TIP3    H226613   4.237   3.223   4.096  0.9047 -1.8354 -0.1239
 1708TIP3   OH226614   4.958   2.240  11.642 -0.4215 -0.0073  0.1270
 1708TIP3    H126615   5.021   2.310  11.663 -0.1490  0.1061 -1.0020
 1708TIP3    H226616   4.904   2.277  11.572 -1.8604 -0.0550  1.1764
 1709TIP3   OH226617   2.536   2.316   5.382 -0.0005  0.5497 -0.3466
 1709TIP3    H126618   2.585   2.243   5.419 -0.8574 -0.8916 -1.8918
 1709TIP3    H226619   2.458   2.275   5.343 -0.2287  2.1980 -1.7600
 1710TIP3   OH226620   1.526   1.550  12.471  0.5113 -0.2593  0.0423
 1710TIP3    H126621   1.611   1.557  12.429  0.1127 -2.1768 -1.2474
 1710TIP3    H226622   1.472   1.502  12.407 -1.4152  0.5597  0.9816
 1711TIP3   OH226623   5.286   1.788   0.691  0.6293 -0.0762  0.0990
 1711TIP3    H126624   5.367   1.824   0.727 -0.0741 -0.7922  2.6340
 1711TIP3    H226625   5.302   1.694   0.685  0.2740 -0.1203 -0.2267
 1712TIP3   OH226626   3.915   6.454   0.619  0.8943 -0.1530 -0.1269
 1712TIP3    H126627   3.926   6.360   0.639  1.9731 -0.1891 -0.8009
 1712TIP3    H226628   3.824   6.462   0.592  0.7534 -0.9949  0.0491
 1713TIP3   OH226629   0.324   3.112  15.988  0.0548 -0.5833  0.5328
 1713TIP3    H126630   0.400   3.124  15.931  0.5682 -1.1168  1.0881
 1713TIP3    H226631   0.270   3.189  15.973  0.2707 -0.6293 -0.5364
 1714TIP3   OH226632   0.295   2.514   4.057  0.0382 -0.2029  0.3950
 1714TIP3    H126633   0.375   2.463   4.067  0.1017 -0.3479 -0.7121
 1714TIP3    H226634   0.252   2.509   4.142  0.2261 -1.8049  0.4346
 1715TIP3   OH226635   2.698   0.899   4.752 -0.7658 -0.0489 -0.2013
 1715TIP3    H126636   2.763   0.970   4.751 -1.6793  0.8457  1.1919
 1715TIP3    H226637   2.712   0.854   4.835 -1.7427 -0.0036  0.0033
 1716TIP3   OH226638   6.404   4.851  12.132  0.1427  0.2912 -0.1356
 1716TIP3    H126639   6.330   4.898  12.172  0.4577  0.2505  0.5129
 1716TIP3    H226640   6.369   4.765  12.112  0.6034 -0.5932  2.4022
 1717TIP3   OH226641   5.883   6.098   3.284  0.2412 -0.1614 -0.7210
 1717TIP3    H126642   5.975   6.094   3.260  0.4806 -0.9913  0.2839
 1717TIP3    H226643   5.866   6.192   3.296  0.7497  0.0598 -1.6277
 1718TIP3   OH226644   2.907   2.927   5.410 -0.8014  0.2442 -0.1989
 1718TIP3    H126645   2.980   2.865   5.410  1.1073  2.3650  1.5141
 1718TIP3    H226646   2.829   2.871   5.407  0.7730 -2.3234  2.1349
 1719TIP3   OH226647   1.230   3.484   6.114 -0.1357  0.2159  0.1844
 1719TIP3    H126648   1.144   3.503   6.078 -0.7578  0.4868  1.7274
 1719TIP3    H226649   1.243   3.551   6.181  1.0551 -0.1425  0.3310
 1720TIP3   OH226650   0.171   2.251   0.388  0.0156 -0.3799  0.5202
 1720TIP3    H126651   0.223   2.251   0.308 -0.6429 -0.7791  0.0844
 1720TIP3    H226652   0.214   2.315   0.445  1.9181 -1.8194  0.7961
 1721TIP3   OH226653   0.925   0.042  14.120  0.4377 -0.0600 -0.2016
 1721TIP3    H126654   0.959   0.131  14.107  1.7877 -0.4812  0.2924
 1721TIP3    H226655   0.868   0.027  14.045 -1.8346  2.1220  0.9210
 1722TIP3   OH226656   6.143   4.162  11.388  0.1574  0.0963 -0.4002
 1722TIP3    H126657   6.082   4.221  11.431 -0.6452 -0.4038 -0.8177
 1722TIP3    H226658   6.147   4.086  11.446 -0.7675 -0.4916 -1.0786
 1723TIP3   OH226659   1.866   1.819   1.537 -0.3914 -0.0794 -0.7061
 1723TIP3    H126660   1.805   1.816   1.611  0.3195  1.0180 -0.0581
 1723TIP3    H226661   1.810   1.829   1.461 -1.2503 -2.6722 -0.5318
 1724TIP3   OH226662   5.576   6.833  16.686 -0.2232 -0.0754 -0.5090
 1724TIP3    H126663   5.516   6.893  16.728 -0.9148 -2.0294  1.4883
 1724TIP3    H226664   5.529   6.802  16.609 -2.5608 -2.6183  1.7331
 1725TIP3   OH226665   0.655   4.765  12.138  0.4025  0.0423 -0.0148
 1725TIP3    H126666   0.673   4.752  12.232  0.5826  1.0107  0.0944
 1725TIP3    H226667   0.671   4.680  12.099 -0.0282 -0.4702  0.8895
 1726TIP3   OH226668   1.628   1.138  14.180  0.1185  0.3382 -0.5861
 1726TIP3    H126669   1.592   1.049  14.177 -1.3121  0.9079 -1.0551
 1726TIP3    H226670   1.660   1.154  14.091  1.2211 -0.0297 -0.2661
 1727TIP3   OH226671   3.818   0.970   0.462 -0.1831 -0.0891 -0.1892
 1727TIP3    H126672   3.909   0.941   0.470 -0.5279 -1.3760 -0.6384
 1727TIP3    H226673   3.815   1.019   0.380 -0.0483 -0.7318 -0.5868
 1728TIP3   OH226674   1.290   6.659  10.967  0.2876 -0.1526 -0.2202
 1728TIP3    H126675   1.340   6.649  10.886 -1.5698 -0.3365 -1.3883
 1728TIP3    H226676   1.310   6.580  11.017  0.2117 -0.8074 -1.2033
 1729TIP3   OH226677   2.940   3.560  12.146 -0.0005 -0.0077  0.0372
 1729TIP3    H126678   2.881   3.485  12.151  1.1003 -1.1429 -2.4437
 1729TIP3    H226679   2.916   3.614  12.221 -3.2232 -1.0981 -0.0602
 1730TIP3   OH226680   5.198   6.405   3.890 -0.1851 -0.1797  0.1895
 1730TIP3    H126681   5.277   6.459   3.892  0.5885 -1.0848 -2.2633
 1730TIP3    H226682   5.199   6.357   3.973  0.7749  1.2343  1.0318
 1731TIP3   OH226683   1.137   6.626  13.925  0.1207  0.1818 -0.3126
 1731TIP3    H126684   1.074   6.612  13.995  0.1016  0.5190 -0.2629
 1731TIP3    H226685   1.105   6.571  13.853  1.6163 -2.3438  0.8043
 1732TIP3   OH226686   0.377   4.571   3.479 -0.8100  0.1987 -0.4961
 1732TIP3    H126687   0.447   4.510   3.455  0.7433  0.0901  3.4418
 1732TIP3    H226688   0.297   4.518   3.477  0.0650 -1.1907  0.0048
 1733TIP3   OH226689   2.988   0.778   3.769 -0.2509 -0.8175  0.0205
 1733TIP3    H126690   2.958   0.869   3.769  1.4507 -0.2019  0.6643
 1733TIP3    H226691   3.009   0.761   3.861  1.2603 -1.1933 -0.3742
 1734TIP3   OH226692   2.781   4.215   3.874  0.6053  0.0135 -0.0521
 1734TIP3    H126693   2.813   4.305   3.880  0.2045  0.2658 -1.3387
 1734TIP3    H226694   2.739   4.198   3.958  0.5597  1.0795  0.1463
 1735TIP3   OH226695   0.035   1.247   2.178  0.1525  0.9864  0.0458
 1735TIP3    H126696   0.087   1.243   2.098 -0.8505  1.1562 -0.6200
 1735TIP3    H226697   0.001   1.158   2.189  0.4003  0.9288  0.3663
 1736TIP3   OH226698   2.191   1.625  16.381 -0.2903  0.5516  0.6264
 1736TIP3    H126699   2.097   1.632  16.394 -0.7247 -0.0282 -1.7353
 1736TIP3    H226700   2.220   1.715  16.362 -0.4838  0.6216  0.6645
 1737TIP3   OH226701   2.516   4.179  12.604  0.2916 -1.0660 -0.0887
 1737TIP3    H126702   2.584   4.219  12.550  0.4317  2.5695  2.3914
 1737TIP3    H226703   2.435   4.223  12.578 -0.0163 -0.9379  1.0363
 1738TIP3   OH226704   1.086   0.074   3.148  0.0273  0.0250  0.4456
 1738TIP3    H126705   1.037  -0.007   3.161 -0.1177  0.3594  2.4519
 1738TIP3    H226706   1.063   0.127   3.225  2.2745  0.8401  0.6150
 1739TIP3   OH226707   5.171   3.865   6.884  0.0910 -0.1340  0.7292
 1739TIP3    H126708   5.101   3.855   6.949 -0.6957  2.0892  0.3103
 1739TIP3    H226709   5.130   3.913   6.811  2.0545  1.4401  0.5638
 1740TIP3   OH226710   6.817   6.153   4.532  0.1032 -0.1606  0.2392
 1740TIP3    H126711   6.778   6.069   4.511 -0.4168  0.2785 -0.6351
 1740TIP3    H226712   6.745   6.208   4.562  0.5789 -0.2707  1.6448
 1741TIP3   OH226713   1.336   2.976  15.788 -0.1142  0.0267  0.1960
 1741TIP3    H126714   1.413   3.015  15.828  0.0797 -2.9943  3.1633
 1741TIP3    H226715   1.275   2.962  15.860 -1.5304 -1.8927 -1.2519
 1742TIP3   OH226716   5.157   2.178   5.602  0.1176  0.1702 -0.3187
 1742TIP3    H126717   5.079   2.167   5.656 -0.4302 -2.7067 -1.5285
 1742TIP3    H226718   5.126   2.226   5.525 -0.2323 -0.1363 -0.3685
 1743TIP3   OH226719   6.638   5.843   3.649  0.1795  0.1847  0.0881
 1743TIP3    H126720   6.712   5.878   3.599  0.5198 -0.4826  0.1179
 1743TIP3    H226721   6.633   5.899   3.727  1.0483 -0.1395  0.3936
 1744TIP3   OH226722   6.148   1.397  14.974  0.0868 -0.4420  0.0919
 1744TIP3    H126723   6.186   1.418  14.888 -0.1720 -0.0899  0.0605
 1744TIP3    H226724   6.068   1.349  14.954 -2.3269  3.2188 -0.0866
 1745TIP3   OH226725   4.485   5.090  11.994  0.3636 -0.1490  0.3730
 1745TIP3    H126726   4.513   5.114  11.906 -0.1611 -0.6785  0.0515
 1745TIP3    H226727   4.473   4.995  11.990 -1.8127  0.0673  0.3748
 1746TIP3   OH226728   5.174   3.471   4.025 -0.5646  0.7498  0.6315
 1746TIP3    H126729   5.139   3.392   3.985 -1.5600  1.4365  0.1077
 1746TIP3    H226730   5.266   3.450   4.043 -0.7354 -0.4142  0.2402
 1747TIP3   OH226731   5.460   3.763  13.240  0.1445  0.5842  0.3122
 1747TIP3    H126732   5.419   3.759  13.154  0.3333 -0.2553  0.2581
 1747TIP3    H226733   5.554   3.770  13.223  0.2332 -0.2167  0.4474
 1748TIP3   OH226734   3.310   1.326  15.591 -0.2199  0.2099 -0.5490
 1748TIP3    H126735   3.230   1.358  15.550 -0.4099 -0.6026 -0.8151
 1748TIP3    H226736   3.348   1.266  15.526 -0.0804 -0.4287  0.1137
 1749TIP3   OH226737   5.297   2.156   3.553 -0.5432  0.1453  0.4391
 1749TIP3    H126738   5.321   2.066   3.529  1.6193  0.8518 -0.2953
 1749TIP3    H226739   5.299   2.157   3.649 -1.4206 -0.7705  0.4807
 1750TIP3   OH226740   2.238   1.753  12.874 -0.3701  0.0483 -0.3924
 1750TIP3    H126741   2.204   1.840  12.895  0.5191  0.4413 -0.5386
 1750TIP3    H226742   2.160   1.702  12.850 -1.1155  0.3068  1.3170
 1751TIP3   OH226743   3.257   2.736  12.030 -0.5944 -0.8787 -0.4206
 1751TIP3    H126744   3.307   2.662  11.997 -0.5237 -1.6556  1.3417
 1751TIP3    H226745   3.212   2.703  12.108 -0.5243  0.9134  0.4459
 1752TIP3   OH226746   2.444   6.029  14.062  0.1837  0.2296  1.0726
 1752TIP3    H126747   2.389   6.077  14.124  0.7092  0.4237  1.3949
 1752TIP3    H226748   2.519   6.087  14.047 -0.6158  0.8365 -0.8598
 1753TIP3   OH226749   5.418   0.863  12.085 -0.5187 -0.3303  0.4321
 1753TIP3    H126750   5.503   0.819  12.094 -1.0266 -1.0774  1.9033
 1753TIP3    H226751   5.354   0.796  12.110 -1.5093  0.3867 -0.1319
 1754TIP3   OH226752   4.704   6.097   0.636  0.3503 -0.0204  0.3096
 1754TIP3    H126753   4.733   6.034   0.570 -0.5241  1.2140 -1.3174
 1754TIP3    H226754   4.635   6.051   0.684 -2.1997  0.4503 -2.5961
 1755TIP3   OH226755   3.399   6.698   3.730 -0.7454 -0.3899 -0.2405
 1755TIP3    H126756   3.427   6.607   3.738 -0.7826 -0.3906 -0.1106
 1755TIP3    H226757   3.308   6.694   3.702 -0.3858 -0.3826 -1.4828
 1756TIP3   OH226758   2.918   4.298   3.466  0.0036 -0.0535 -0.2231
 1756TIP3    H126759   2.924   4.302   3.562  1.7360  1.5107 -0.3380
 1756TIP3    H226760   2.884   4.384   3.441  0.8357  0.0573 -1.0525
 1757TIP3   OH226761   2.483   5.054   4.594  0.4939  0.5991 -0.0064
 1757TIP3    H126762   2.511   5.034   4.683 -0.1045  2.2734  0.6071
 1757TIP3    H226763   2.451   4.971   4.559  0.9071 -0.1229  1.2750
 1758TIP3   OH226764   0.647   1.741   5.828 -0.1304  0.0237 -0.2196
 1758TIP3    H126765   0.615   1.654   5.803 -1.6126  0.0556  1.3826
 1758TIP3    H226766   0.578   1.777   5.885 -0.0869  2.7363 -1.7239
 1759TIP3   OH226767   3.664   6.622  15.760  0.2183 -0.1888 -0.2275
 1759TIP3    H126768   3.692   6.530  15.759  1.5810  0.1617 -2.6713
 1759TIP3    H226769   3.604   6.629  15.687 -0.4931  0.7363  0.4269
 1760TIP3   OH226770   0.540   0.380   5.135 -0.4240  0.0993 -0.4488
 1760TIP3    H126771   0.511   0.299   5.177  0.7023  0.2664  0.7348
 1760TIP3    H226772   0.579   0.351   5.053  0.1722 -0.6056  0.0655
 1761TIP3   OH226773   6.794   1.405   5.587  0.1002 -0.3003  0.3469
 1761TIP3    H126774   6.789   1.482   5.530  0.8720 -0.3702  0.1712
 1761TIP3    H226775   6.707   1.397   5.625 -0.3324 -0.0472 -0.5671
 1762TIP3   OH226776   4.686   3.236   3.866  0.1556  0.4133  0.0174
 1762TIP3    H126777   4.593   3.214   3.870  0.3198 -0.1850  0.9449
 1762TIP3    H226778   4.688   3.331   3.855 -0.5608  0.4278 -0.0485
 1763TIP3   OH226779   1.373   3.660  13.826  0.4020  0.3994  0.3576
 1763TIP3    H126780   1.306   3.713  13.869 -0.6435  0.2040 -0.9697
 1763TIP3    H226781   1.406   3.715  13.755 -0.5860 -0.6093 -0.9352
 1764TIP3   OH226782   4.389   2.782   1.073 -0.3297  0.8041  0.4739
 1764TIP3    H126783   4.445   2.817   1.004 -1.0613  2.4030  0.6478
 1764TIP3    H226784   4.304   2.770   1.031  0.0266 -1.3821  0.2714
 1765TIP3   OH226785   1.314   0.568  12.538 -0.2425 -0.4387 -0.4509
 1765TIP3    H126786   1.299   0.563  12.632  1.0693 -0.9280 -0.2385
 1765TIP3    H226787   1.338   0.659  12.522  0.7539 -0.6260 -0.0907
 1766TIP3   OH226788   3.890   3.624  12.426 -0.7951 -0.4673 -0.5329
 1766TIP3    H126789   3.849   3.539  12.410 -0.1957 -0.8756  0.0304
 1766TIP3    H226790   3.970   3.603  12.474 -0.6895  0.4241 -0.3013
 1767TIP3   OH226791   0.941   0.777   2.321 -0.1596 -0.2268 -0.0691
 1767TIP3    H126792   0.955   0.849   2.260  2.7331 -1.6270 -1.2905
 1767TIP3    H226793   1.020   0.777   2.376 -0.2267 -2.2216  0.0969
 1768TIP3   OH226794   0.772   5.559  10.956 -0.0193 -0.1544  0.3806
 1768TIP3    H126795   0.702   5.578  11.019  0.0656 -2.9106  1.4391
 1768TIP3    H226796   0.807   5.645  10.933 -2.9968  1.2696  0.6386
 1769TIP3   OH226797   5.146   1.430  10.757  0.7154 -0.3820 -0.4622
 1769TIP3    H126798   5.213   1.495  10.733 -0.9201  0.7484 -2.2871
 1769TIP3    H226799   5.187   1.346  10.739  1.0696  0.3145 -3.5297
 1770TIP3   OH226800   5.898   2.663   0.766 -0.0103 -0.1013  0.6929
 1770TIP3    H126801   5.966   2.608   0.805 -0.1078 -1.1148 -0.4923
 1770TIP3    H226802   5.818   2.636   0.809  0.0577 -0.3633  0.6601
 1771TIP3   OH226803   6.643   0.052   6.735 -0.1577 -1.1436 -0.2791
 1771TIP3    H126804   6.676   0.074   6.648 -0.1061 -3.0175 -0.7879
 1771TIP3    H226805   6.548   0.057   6.727 -0.1626  2.0930  0.5792
 1772TIP3   OH226806   0.623   1.223  13.886 -0.2844  0.1001 -0.7003
 1772TIP3    H126807   0.562   1.173  13.832 -0.7495 -1.1860  0.9327
 1772TIP3    H226808   0.577   1.235  13.969  0.3931  2.0609 -0.5510
 1773TIP3   OH226809   0.591   5.934  13.553  0.2021  0.6544  0.2707
 1773TIP3    H126810   0.498   5.933  13.578  0.3662  1.2328  0.9184
 1773TIP3    H226811   0.627   5.855  13.594 -0.4623 -0.8624 -1.8788
 1774TIP3   OH226812   2.524   5.663  14.874 -0.1855  0.5204 -0.0037
 1774TIP3    H126813   2.452   5.726  14.865  0.8477  1.6849 -0.5041
 1774TIP3    H226814   2.542   5.662  14.968  0.3129  1.6356 -0.0644
 1775TIP3   OH226815   4.601   4.072  13.754  0.0881  0.0510 -0.5679
 1775TIP3    H126816   4.682   4.102  13.796  0.0809  0.8089 -1.0793
 1775TIP3    H226817   4.537   4.141  13.774  0.0804  0.4172 -1.8073
 1776TIP3   OH226818   5.807   1.356  12.404  0.1850 -0.2508 -0.2110
 1776TIP3    H126819   5.722   1.400  12.393 -0.7712 -1.2489  2.3506
 1776TIP3    H226820   5.856   1.415  12.462  0.7196 -0.3331 -0.5760
 1777TIP3   OH226821   2.551   1.307   2.665  0.6670  0.1864 -0.1485
 1777TIP3    H126822   2.478   1.342   2.614  0.4963  1.1959  0.7350
 1777TIP3    H226823   2.566   1.374   2.733  0.7410 -1.1903  1.2431
 1778TIP3   OH226824   3.083   5.018   1.958  0.3420  0.0015 -0.1752
 1778TIP3    H126825   3.074   4.965   2.037 -2.3274  0.3783 -0.1210
 1778TIP3    H226826   3.175   5.010   1.934  0.7541 -1.9209  1.7082
 1779TIP3   OH226827   0.905   5.991   4.018  0.0429 -0.6180 -0.1510
 1779TIP3    H126828   0.939   6.005   4.106 -1.4328 -0.1067  0.3605
 1779TIP3    H226829   0.824   6.042   4.015 -0.7236 -1.8555 -1.2907
 1780TIP3   OH226830   2.790   5.944   6.921 -0.0675 -0.0799  0.7233
 1780TIP3    H126831   2.779   5.991   6.838  2.1053  1.2387  1.0966
 1780TIP3    H226832   2.736   5.865   6.911 -0.5270  0.4398 -1.5979
 1781TIP3   OH226833   3.302   1.518   6.097 -0.8053 -0.0126  0.4847
 1781TIP3    H126834   3.216   1.547   6.065  0.2964  2.1859 -0.7317
 1781TIP3    H226835   3.294   1.423   6.105 -2.0926 -0.4988 -3.8469
 1782TIP3   OH226836   2.575   6.767  10.789  0.5694 -0.1502 -0.1611
 1782TIP3    H126837   2.597   6.771  10.696 -1.2697 -0.3658 -0.6527
 1782TIP3    H226838   2.610   6.848  10.826  3.0181 -0.9392 -0.6060
 1783TIP3   OH226839   6.072   3.353   5.304 -0.1025 -0.4684 -0.1687
 1783TIP3    H126840   6.164   3.374   5.291 -0.0371 -1.0228 -0.6163
 1783TIP3    H226841   6.054   3.282   5.242 -0.7319 -0.6242  0.1845
 1784TIP3   OH226842   3.028   3.803   6.076  0.0495 -0.5444  0.1027
 1784TIP3    H126843   2.994   3.870   6.136 -0.1522  0.1035 -0.7146
 1784TIP3    H226844   2.950   3.754   6.049  0.1166 -0.7150  0.2159
 1785TIP3   OH226845   5.719   2.128   3.930 -0.3842  0.4376  0.2036
 1785TIP3    H126846   5.768   2.189   3.875  0.6812 -1.4308 -1.0261
 1785TIP3    H226847   5.629   2.132   3.897  0.1204 -0.1974 -1.2982
 1786TIP3   OH226848   6.272   2.169  11.586  0.1223  0.1093 -0.3245
 1786TIP3    H126849   6.334   2.242  11.587  0.9340 -0.5040 -2.0637
 1786TIP3    H226850   6.313   2.103  11.531 -1.7956 -0.5917 -1.0160
 1787TIP3   OH226851   4.244   4.258  12.985 -0.3526 -0.4272  0.1878
 1787TIP3    H126852   4.251   4.352  12.969 -0.3756 -0.0393  2.1754
 1787TIP3    H226853   4.334   4.225  12.976 -0.2671 -0.1209 -0.0567
 1788TIP3   OH226854   1.307   5.605  11.738  0.2390 -0.1817 -0.0932
 1788TIP3    H126855   1.390   5.567  11.766 -0.3697 -1.3186  0.1989
 1788TIP3    H226856   1.275   5.546  11.670  0.4544  1.1520 -1.4151
 1789TIP3   OH226857   4.992   2.538   3.392 -0.6724  0.5425 -0.4973
 1789TIP3    H126858   5.013   2.445   3.390 -1.4197  0.3734 -0.8370
 1789TIP3    H226859   5.037   2.572   3.469 -0.6810 -0.1646 -0.1817
 1790TIP3   OH226860   2.536   6.546  10.981  0.2462  0.5236  0.1933
 1790TIP3    H126861   2.549   6.590  10.897 -0.6146 -0.5462 -0.5268
 1790TIP3    H226862   2.442   6.534  10.988  0.4496 -1.1287  0.3870
 1791TIP3   OH226863   4.518   6.218  10.892 -0.6981  0.3089  0.8481
 1791TIP3    H126864   4.469   6.158  10.948  0.6956 -2.4293 -0.6623
 1791TIP3    H226865   4.539   6.292  10.949 -2.5591 -0.5659  2.7991
 1792TIP3   OH226866   3.161   4.181  16.262  0.0729  0.0865  0.0220
 1792TIP3    H126867   3.147   4.264  16.309  0.1886 -0.2062  0.5816
 1792TIP3    H226868   3.072   4.147  16.248  0.0042  0.4749 -0.5318
 1793TIP3   OH226869   2.851   3.662  12.380 -0.3677  0.3285 -0.6637
 1793TIP3    H126870   2.924   3.618  12.424 -1.4728 -2.4128 -1.3755
 1793TIP3    H226871   2.779   3.656  12.443 -0.5623  1.1000 -0.8075
 1794TIP3   OH226872   3.823   1.356   3.547  0.3913 -0.0115 -0.1551
 1794TIP3    H126873   3.791   1.409   3.474  1.3746  1.5148  0.4549
 1794TIP3    H226874   3.773   1.387   3.623 -0.1605 -1.1194 -0.0554
 1795TIP3   OH226875   5.840   5.482   3.895  0.0184 -0.1180 -0.4248
 1795TIP3    H126876   5.918   5.439   3.859 -0.2413  0.0306 -1.1750
 1795TIP3    H226877   5.832   5.563   3.845 -0.3135  0.1273  0.0182
 1796TIP3   OH226878   0.482   5.549   5.806 -0.6516 -0.2023  0.7910
 1796TIP3    H126879   0.476   5.510   5.893  0.0976 -2.2710 -0.0302
 1796TIP3    H226880   0.576   5.554   5.788 -0.7413  1.4754  0.6015
 1797TIP3   OH226881   3.221   3.559   5.173  0.2622 -0.8392  0.0608
 1797TIP3    H126882   3.278   3.506   5.116 -0.2836  0.7726 -2.1225
 1797TIP3    H226883   3.148   3.500   5.194  0.1880 -1.3420 -1.4465
 1798TIP3   OH226884   0.717   3.120  10.812  0.2368  0.0063  0.0656
 1798TIP3    H126885   0.682   3.081  10.892 -0.8733 -1.2568 -0.9779
 1798TIP3    H226886   0.799   3.073  10.796  0.0133 -0.3700  0.0027
 1799TIP3   OH226887   0.374   3.699  10.671 -0.3865  0.0499 -0.1750
 1799TIP3    H126888   0.317   3.660  10.738 -0.6928  0.9831  0.1271
 1799TIP3    H226889   0.416   3.772  10.716  0.3884 -0.1026 -0.6491
 1800TIP3   OH226890   0.833   3.893  15.792  0.3399  0.2322 -0.1150
 1800TIP3    H126891   0.828   3.982  15.757  1.0867 -0.1299 -1.2015
 1800TIP3    H226892   0.927   3.878  15.806  0.0693  0.7154  3.1164
 1801TIP3   OH226893   3.539   1.025   1.302 -0.5414 -0.7851  0.2222
 1801TIP3    H126894   3.484   0.955   1.267 -1.0624 -0.1285 -0.2967
 1801TIP3    H226895   3.620   1.021   1.251 -1.3300  0.2251 -1.1586
 1802TIP3   OH226896   0.745   3.605  11.614 -0.0592  0.0340  0.4430
 1802TIP3    H126897   0.771   3.615  11.522 -0.0464 -0.4658  0.3911
 1802TIP3    H226898   0.765   3.514  11.635 -2.7044 -0.7333  0.0773
 1803TIP3   OH226899   6.685   1.218  15.499 -0.3028 -0.6520  0.1726
 1803TIP3    H126900   6.761   1.161  15.501  0.3633  0.2491  1.4546
 1803TIP3    H226901   6.629   1.187  15.570  1.1219  1.6277  2.4250
 1804TIP3   OH226902   0.196   3.275   3.236  0.1182  0.0120  0.1115
 1804TIP3    H126903   0.207   3.180   3.231  0.6604 -0.0230  1.4547
 1804TIP3    H226904   0.105   3.288   3.262 -0.0999 -0.1150 -0.5808
 1805TIP3   OH226905   2.141   0.628   5.016  0.0355 -0.2050 -0.1300
 1805TIP3    H126906   2.196   0.568   4.964 -0.3287 -0.0374 -0.7232
 1805TIP3    H226907   2.085   0.671   4.951  0.8190  1.3664  0.1914
 1806TIP3   OH226908   6.321   0.422  15.514 -0.0459 -0.3666  0.2408
 1806TIP3    H126909   6.363   0.410  15.600  0.5914 -0.0046 -0.0111
 1806TIP3    H226910   6.236   0.381  15.523 -0.8778  1.5308  1.7348
 1807TIP3   OH226911   2.559   0.688  12.194  0.4412 -0.0433  0.9712
 1807TIP3    H126912   2.498   0.734  12.137  1.3022  1.2904  1.0992
 1807TIP3    H226913   2.606   0.628  12.136  0.0045 -0.0565  0.6264
 1808TIP3   OH226914   1.459   1.072  16.480  0.3294  0.1431 -0.0479
 1808TIP3    H126915   1.499   1.115  16.556  0.5933 -0.4485  0.1592
 1808TIP3    H226916   1.533   1.035  16.432  0.0254 -1.2819  0.5355
 1809TIP3   OH226917   2.888   4.403  16.078 -0.0322  0.6656 -0.1205
 1809TIP3    H126918   2.881   4.473  16.013 -0.2676  0.8990  0.1546
 1809TIP3    H226919   2.878   4.447  16.162  0.0651  0.3352  0.0671
 1810TIP3   OH226920   5.370   5.750  13.547 -0.3956 -0.2651  0.3141
 1810TIP3    H126921   5.415   5.807  13.609 -1.5143  0.6532  0.3181
 1810TIP3    H226922   5.340   5.809  13.478  1.4274 -1.3423 -1.5192
 1811TIP3   OH226923   6.592   5.191   5.683  0.1316 -0.4563  0.4807
 1811TIP3    H126924   6.631   5.170   5.768  0.5425 -0.0878  0.3845
 1811TIP3    H226925   6.660   5.170   5.619  0.7236  1.5291  0.4010
 1812TIP3   OH226926   1.702   3.150  16.394  0.0253 -0.2404  0.1279
 1812TIP3    H126927   1.754   3.228  16.412 -0.7436  0.6688 -1.3675
 1812TIP3    H226928   1.711   3.096  16.473  0.0516  1.6425  1.4875
 1813TIP3   OH226929   1.039   0.544   5.882 -0.0895  0.1399 -0.5490
 1813TIP3    H126930   1.106   0.477   5.868  0.9027  1.4248 -2.1918
 1813TIP3    H226931   1.082   0.610   5.938 -0.7722 -0.1284  0.3213
 1814TIP3   OH226932   1.530   3.879   0.384  0.0552  0.2703 -0.1057
 1814TIP3    H126933   1.588   3.846   0.315  1.6873  0.4560  1.1102
 1814TIP3    H226934   1.532   3.811   0.451 -0.2246  0.8119  0.4562
 1815TIP3   OH226935   2.207   1.782   2.983  0.0000  0.7038  0.3954
 1815TIP3    H126936   2.243   1.853   2.930 -0.5637  0.2880 -0.5803
 1815TIP3    H226937   2.123   1.815   3.014 -0.2233  0.5002  0.0127
 1816TIP3   OH226938   5.176   4.984   2.077  0.4905  0.2591  0.1570
 1816TIP3    H126939   5.115   4.913   2.054  1.4064 -1.1857  1.9347
 1816TIP3    H226940   5.123   5.043   2.131  0.3798 -0.4988  0.9100
 1817TIP3   OH226941   5.218   3.351  11.550  0.2233 -0.1891 -0.0261
 1817TIP3    H126942   5.128   3.383  11.559  0.5437  0.3043  1.6957
 1817TIP3    H226943   5.256   3.408  11.484 -0.8411 -0.7348 -1.1727
 1818TIP3   OH226944   0.659   5.590  16.963 -0.0637 -0.1197 -0.3300
 1818TIP3    H126945   0.567   5.590  16.937  0.0059 -1.7932 -0.6655
 1818TIP3    H226946   0.697   5.515  16.919  1.4336  0.4210 -0.0261
 1819TIP3   OH226947   4.848   1.267   0.500 -0.1250  0.7151 -0.1073
 1819TIP3    H126948   4.848   1.341   0.439  2.8514  1.9109  1.1302
 1819TIP3    H226949   4.803   1.299   0.578  1.4380  1.4271  0.5475
 1820TIP3   OH226950   4.427   0.217  14.151  0.6752 -0.1952 -0.5268
 1820TIP3    H126951   4.347   0.241  14.104  0.4981  1.2083  0.4310
 1820TIP3    H226952   4.454   0.134  14.111 -0.9619 -0.4397 -1.2103
 1821TIP3   OH226953   3.174   6.713  15.669  0.4144 -0.1360  0.1307
 1821TIP3    H126954   3.128   6.685  15.590  1.2008 -1.4802  0.1223
 1821TIP3    H226955   3.161   6.808  15.672  1.1396  0.0982 -2.1266
 1822TIP3   OH226956   6.235   4.249   6.299  0.5808  0.4831  0.3176
 1822TIP3    H126957   6.148   4.278   6.327 -0.4338 -1.7574 -0.2962
 1822TIP3    H226958   6.220   4.162   6.261  3.2919 -0.5968  1.4748
 1823TIP3   OH226959   0.625   5.709   0.617 -0.7865  0.3605  0.2044
 1823TIP3    H126960   0.693   5.666   0.565 -0.0578 -0.2146  1.5807
 1823TIP3    H226961   0.673   5.768   0.675 -1.4512 -0.0026  1.1546
 1824TIP3   OH226962   5.911   2.684   1.077  0.0112  0.3955  0.1846
 1824TIP3    H126963   5.861   2.637   1.144  0.8720 -1.0749 -0.1573
 1824TIP3    H226964   5.992   2.709   1.121  0.1990  0.2135 -0.0552
 1825TIP3   OH226965   3.405   0.384  14.551 -0.0421  0.6107  0.6877
 1825TIP3    H126966   3.412   0.409  14.643  1.1834 -0.2363  0.8521
 1825TIP3    H226967   3.389   0.467  14.505  0.4931  1.2185  1.5505
 1826TIP3   OH226968   5.816   0.933   6.029  0.1694  0.2200 -0.7583
 1826TIP3    H126969   5.816   0.845   5.992  1.3525 -0.3965  0.6652
 1826TIP3    H226970   5.729   0.942   6.070  0.3585 -0.6161 -0.1580
 1827TIP3   OH226971   5.023   1.911  13.286 -0.1579  0.3809 -0.7207
 1827TIP3    H126972   5.082   1.987  13.290  0.5509 -0.0608 -2.0834
 1827TIP3    H226973   4.997   1.906  13.194 -0.3948 -0.8679 -0.6058
 1828TIP3   OH226974   1.208   4.049   1.891 -0.0341 -0.4220  0.1289
 1828TIP3    H126975   1.197   3.964   1.934 -3.0517 -1.0960 -1.7142
 1828TIP3    H226976   1.209   4.029   1.797 -0.3875  1.5501 -0.3486
 1829TIP3   OH226977   0.874   3.751   4.833  0.2219  0.1462 -0.1984
 1829TIP3    H126978   0.838   3.709   4.754  2.1743  0.0141 -1.0819
 1829TIP3    H226979   0.903   3.837   4.803  2.0909 -0.3618  0.0524
 1830TIP3   OH226980   3.758   6.130  13.823 -0.5619 -0.1333 -0.3968
 1830TIP3    H126981   3.686   6.144  13.761 -0.4833  2.9166  0.0560
 1830TIP3    H226982   3.830   6.183  13.788  0.6558 -1.1461  0.4920
 1831TIP3   OH226983   6.474   0.919   4.365 -0.1840  0.5299 -0.1230
 1831TIP3    H126984   6.456   0.825   4.365 -1.1797  0.6930 -0.8595
 1831TIP3    H226985   6.561   0.928   4.404  0.4041 -0.7995 -1.0639
 1832TIP3   OH226986   6.067   5.091   2.970  0.6193  0.6023  0.1813
 1832TIP3    H126987   6.041   5.006   2.933  2.0281  0.0735  0.3371
 1832TIP3    H226988   6.062   5.152   2.896  2.1244 -0.1709 -0.6064
 1833TIP3   OH226989   3.485   4.518   1.184 -0.4516  0.1009  0.5657
 1833TIP3    H126990   3.577   4.535   1.165 -1.0075  0.9829 -1.6128
 1833TIP3    H226991   3.469   4.430   1.150 -0.2903 -0.2885  1.4770
 1834TIP3   OH226992   4.216   2.650  13.535 -0.5557 -0.7265  0.3398
 1834TIP3    H126993   4.196   2.738  13.503  0.7387 -0.9834 -1.3406
 1834TIP3    H226994   4.291   2.663  13.593 -0.3588 -0.7201  0.0849
 1835TIP3   OH226995   3.032   2.464  12.690  0.3339 -0.5701 -0.0419
 1835TIP3    H126996   3.069   2.375  12.688  3.5812  0.6185  0.9664
 1835TIP3    H226997   2.980   2.466  12.771  1.7869 -1.0606  0.9505
 1836TIP3   OH226998   6.413   4.933   2.659 -0.0552  0.4899 -0.4319
 1836TIP3    H126999   6.334   4.931   2.606 -0.4146  0.5908  0.0908
 1836TIP3    H227000   6.458   5.014   2.634 -0.0224  0.3455 -0.8550
 1837TIP3   OH227001   3.271   0.313   5.142  0.0513 -0.3941 -0.2080
 1837TIP3    H127002   3.323   0.274   5.212  0.9827 -0.1531 -0.7421
 1837TIP3    H227003   3.195   0.256   5.134  0.0624 -0.5749  0.8137
 1838TIP3   OH227004   3.532   6.221  15.080 -0.4070  0.2038 -0.3022
 1838TIP3    H127005   3.546   6.277  15.003  2.4558 -0.7200 -0.5698
 1838TIP3    H227006   3.455   6.258  15.122  0.5266  3.5234 -1.1752
 1839TIP3   OH227007   2.823   5.423   3.107 -0.4229  0.6704  0.2884
 1839TIP3    H127008   2.899   5.475   3.083 -1.9989  1.5765 -3.5917
 1839TIP3    H227009   2.770   5.481   3.162 -0.1178  1.5221 -0.2976
 1840TIP3   OH227010   3.663   0.193   3.449 -0.0845  0.4187  0.1690
 1840TIP3    H127011   3.644   0.110   3.494  4.3204  1.0319  3.9528
 1840TIP3    H227012   3.604   0.256   3.489 -0.6064 -0.1768  0.3644
 1841TIP3   OH227013   2.674   5.302   3.606 -0.3385 -0.2515  0.3857
 1841TIP3    H127014   2.664   5.243   3.681  0.4314  0.0880  0.7661
 1841TIP3    H227015   2.734   5.256   3.547  2.6466  1.3150  1.9907
 1842TIP3   OH227016   4.763   2.469  10.305  0.0751 -0.4799 -0.1478
 1842TIP3    H127017   4.823   2.525  10.354 -0.7795 -0.1434  0.5375
 1842TIP3    H227018   4.715   2.529  10.249  0.7809 -0.8187 -1.1629
 1843TIP3   OH227019   4.290   3.653  12.726 -0.2685  0.4743  0.3907
 1843TIP3    H127020   4.365   3.596  12.716  0.7537  1.5167  1.7208
 1843TIP3    H227021   4.234   3.633  12.651  1.5397 -0.0071 -0.8962
 1844TIP3   OH227022   2.974   3.599   1.143  0.0277 -0.5292 -0.3464
 1844TIP3    H127023   2.949   3.691   1.144  0.2132 -0.4771  0.7828
 1844TIP3    H227024   3.015   3.586   1.057 -0.6427  0.2556 -0.7953
 1845TIP3   OH227025   1.527   3.800  17.000 -0.1986 -0.4915  0.1000
 1845TIP3    H127026   1.546   3.708  17.017 -1.4779 -0.5754  1.2498
 1845TIP3    H227027   1.561   3.846  17.076 -1.2410 -0.2491  0.4432
 1846TIP3   OH227028   6.813   4.122  12.736  0.2322  0.3947 -0.2499
 1846TIP3    H127029   6.718   4.113  12.732  0.3791 -4.4254  0.7094
 1846TIP3    H227030   6.834   4.104  12.828  2.1511 -2.0390 -1.0772
 1847TIP3   OH227031   2.388   6.690   4.075 -0.1714  0.3684  0.2060
 1847TIP3    H127032   2.439   6.761   4.036 -0.7241  0.3393 -0.6138
 1847TIP3    H227033   2.427   6.610   4.040 -0.3281  0.3215  0.1346
 1848TIP3   OH227034   3.092   5.730   3.266 -0.2293 -0.6996 -0.4220
 1848TIP3    H127035   3.145   5.802   3.301 -1.8673  0.9565 -1.1647
 1848TIP3    H227036   3.093   5.743   3.171  0.0571 -2.1389 -0.6369
 1849TIP3   OH227037   5.914   4.558   5.039  0.0794  0.2809  0.2649
 1849TIP3    H127038   5.820   4.579   5.031 -0.3503 -1.8262 -0.8211
 1849TIP3    H227039   5.958   4.625   4.988 -0.9907  0.2893 -0.6805
 1850TIP3   OH227040   2.743   0.064  11.811  0.2791  0.4400 -0.2849
 1850TIP3    H127041   2.660   0.026  11.838  1.1041 -1.0982  0.1976
 1850TIP3    H227042   2.782  -0.001  11.753  1.2903  0.9872 -0.2539
 1851TIP3   OH227043   6.616   6.720  10.585  0.1976  0.0110 -0.0669
 1851TIP3    H127044   6.584   6.654  10.522  0.9457  1.0657 -1.6013
 1851TIP3    H227045   6.700   6.686  10.615  0.1501 -0.1828 -0.1507
 1852TIP3   OH227046   5.776   0.536  11.985 -0.0703  0.5085 -0.1265
 1852TIP3    H127047   5.844   0.486  11.940 -0.3821  0.2959 -0.3578
 1852TIP3    H227048   5.705   0.474  11.998 -0.1493  0.6815  0.2837
 1853TIP3   OH227049   1.357   6.050  16.679 -0.0699 -0.5739  0.3052
 1853TIP3    H127050   1.394   6.091  16.601  1.4330 -0.2221  1.1625
 1853TIP3    H227051   1.363   5.956  16.661  2.8189 -0.6247  1.0093
 1854TIP3   OH227052   2.209   5.402  15.627  0.3348  0.2669  0.0587
 1854TIP3    H127053   2.223   5.350  15.548  0.9843 -0.2511  0.5055
 1854TIP3    H227054   2.114   5.414  15.631  0.3172  0.6265 -0.9954
 1855TIP3   OH227055   5.193   2.558   4.659 -0.2608 -0.7337  0.6162
 1855TIP3    H127056   5.233   2.495   4.719  1.1153 -0.4062  0.0673
 1855TIP3    H227057   5.156   2.504   4.590 -0.7284 -1.0376  1.0964
 1856TIP3   OH227058   2.287   3.868   2.517  0.1567 -0.6472  0.1554
 1856TIP3    H127059   2.290   3.863   2.421  0.4506 -2.2443  0.2244
 1856TIP3    H227060   2.275   3.778   2.546  2.7848 -0.5960  1.7163
 1857TIP3   OH227061   2.894   3.124  11.906 -0.0959 -0.6652  0.1526
 1857TIP3    H127062   2.799   3.112  11.905 -0.2989  0.7882 -0.1209
 1857TIP3    H227063   2.907   3.217  11.887  1.3670 -0.7134  0.7705
 1858TIP3   OH227064   6.022   4.708   2.080 -0.2536  0.2433 -0.2035
 1858TIP3    H127065   5.999   4.738   1.992 -0.5595 -0.5353 -0.3943
 1858TIP3    H227066   5.951   4.649   2.104  0.2793 -0.2384  0.2143
 1859TIP3   OH227067   1.544   0.925   1.194 -0.1316  0.8128  0.7667
 1859TIP3    H127068   1.538   1.013   1.231  1.1346  1.1413  0.2242
 1859TIP3    H227069   1.562   0.869   1.269  1.8397  1.3969  0.7731
 1860TIP3   OH227070   1.632   1.166   1.698 -0.3110 -0.1147  0.6089
 1860TIP3    H127071   1.541   1.143   1.679 -0.4768 -0.0784  1.3104
 1860TIP3    H227072   1.654   1.113   1.775  0.4878 -0.6361  0.0467
 1861TIP3   OH227073   2.594   6.286   2.751  0.1530 -0.1091  0.0899
 1861TIP3    H127074   2.607   6.191   2.746  1.1945  0.0726 -1.1067
 1861TIP3    H227075   2.554   6.300   2.837 -0.8443 -1.7132 -0.0664
 1862TIP3   OH227076   6.599   3.965   6.610 -0.3610 -0.1040 -0.1059
 1862TIP3    H127077   6.681   3.983   6.564  0.8606 -1.0010  1.5828
 1862TIP3    H227078   6.543   3.922   6.545  0.1688  1.2800 -1.5260
 1863TIP3   OH227079   5.030   2.041   3.678 -0.1924 -0.4973 -0.3115
 1863TIP3    H127080   5.048   2.023   3.771  2.9870  0.4439 -0.6556
 1863TIP3    H227081   4.971   1.970   3.652 -1.7284 -0.4394  2.5396
 1864TIP3   OH227082   2.095   6.407   3.602  0.2819 -0.4256 -0.1516
 1864TIP3    H127083   2.104   6.358   3.520  2.2459 -0.6552  0.1390
 1864TIP3    H227084   2.165   6.472   3.598  0.3597 -0.3899  1.3015
 1865TIP3   OH227085   5.788   2.147   0.678 -0.2374 -0.1925  0.4096
 1865TIP3    H127086   5.735   2.169   0.754 -0.8942 -0.0056 -0.0919
 1865TIP3    H227087   5.788   2.226   0.624 -1.3867 -0.8999 -0.6997
 1866TIP3   OH227088   3.532   0.975  12.825  0.7393 -0.5750 -0.2441
 1866TIP3    H127089   3.493   0.961  12.739  1.5385  1.0410 -0.9177
 1866TIP3    H227090   3.499   1.061  12.852  0.6336 -0.9923  1.0010
 1867TIP3   OH227091   3.082   3.047  14.715 -0.7876  0.1844 -0.3466
 1867TIP3    H127092   3.125   2.967  14.684 -0.1646  1.1882 -2.2563
 1867TIP3    H227093   3.079   3.037  14.810  0.9281 -1.3007 -0.3889
 1868TIP3   OH227094   5.772   3.541   0.784 -0.3572 -0.6974 -0.2657
 1868TIP3    H127095   5.828   3.617   0.798 -0.4457 -1.1325  3.4794
 1868TIP3    H227096   5.832   3.466   0.784 -0.5842 -0.8838 -0.0601
 1869TIP3   OH227097   2.164   4.162  13.312 -0.8602 -0.3848 -0.2098
 1869TIP3    H127098   2.244   4.198  13.275  0.9216 -0.8241  2.8562
 1869TIP3    H227099   2.112   4.238  13.336 -0.2610 -0.0092 -0.0892
 1870TIP3   OH227100   6.327   5.227  13.360  0.9692 -0.1498  0.3002
 1870TIP3    H127101   6.277   5.209  13.281 -0.7725  0.4024  1.2432
 1870TIP3    H227102   6.304   5.157  13.420 -0.0853  1.0663  1.3642
 1871TIP3   OH227103   4.857   0.314  17.173  0.1272  0.0163  0.1444
 1871TIP3    H127104   4.766   0.285  17.165 -0.0550  0.9641 -1.8803
 1871TIP3    H227105   4.877   0.305  17.266 -1.8727 -0.6687  0.5619
 1872TIP3   OH227106   1.113   6.821  12.361  0.0951 -0.0857 -0.2354
 1872TIP3    H127107   1.145   6.873  12.435  2.4117 -1.2251 -0.3394
 1872TIP3    H227108   1.157   6.736  12.371 -1.4349 -1.0974 -1.5872
 1873TIP3   OH227109   3.948   2.995   6.355 -0.0212 -0.4148  1.1261
 1873TIP3    H127110   3.983   3.034   6.435 -0.2825  0.0961  0.9970
 1873TIP3    H227111   3.892   2.924   6.385  1.2554 -1.3810  1.3325
 1874TIP3   OH227112   0.425   5.414  16.822 -0.3712  0.0605  0.8859
 1874TIP3    H127113   0.450   5.481  16.758  0.2917 -1.7168 -0.8199
 1874TIP3    H227114   0.345   5.376  16.786  0.8282 -1.9933  0.2104
 1875TIP3   OH227115   1.124   0.815  12.856 -0.3759 -0.1079 -0.0363
 1875TIP3    H127116   1.195   0.750  12.852 -0.0050  0.2881  0.0648
 1875TIP3    H227117   1.055   0.778  12.801 -0.1142 -0.5260 -0.0902
 1876TIP3   OH227118   4.306   2.362  10.701  0.1277  0.0182 -0.5439
 1876TIP3    H127119   4.289   2.275  10.736 -3.1640  0.8470  0.3471
 1876TIP3    H227120   4.398   2.361  10.675  0.0298 -3.8999 -1.2468
 1877TIP3   OH227121   0.546   1.838   5.327  0.8984  0.1092 -0.5385
 1877TIP3    H127122   0.532   1.846   5.421  0.2152 -0.1716 -0.6098
 1877TIP3    H227123   0.616   1.901   5.307 -0.2502  1.5671 -0.1488
 1878TIP3   OH227124   4.676   1.222   2.921  0.1257 -0.2198 -0.0536
 1878TIP3    H127125   4.662   1.226   2.827 -1.5310  0.6024  0.1885
 1878TIP3    H227126   4.600   1.174   2.955 -0.8454  1.9864  1.1010
 1879TIP3   OH227127   5.046   6.166  12.293 -0.5097 -0.1238  0.6504
 1879TIP3    H127128   5.121   6.164  12.233 -0.5999  0.6512  0.5076
 1879TIP3    H227129   5.078   6.121  12.372 -0.6038 -1.7350 -0.1872
 1880TIP3   OH227130   6.221   0.865   1.387 -0.6059 -0.3335 -0.8128
 1880TIP3    H127131   6.252   0.930   1.324 -2.6027  1.1216 -0.3656
 1880TIP3    H227132   6.153   0.816   1.341  0.1232 -1.4115 -0.7862
 1881TIP3   OH227133   1.713   1.207  12.998  0.2490 -0.8852 -0.0021
 1881TIP3    H127134   1.684   1.115  12.996  3.9665 -2.2991  1.8013
 1881TIP3    H227135   1.804   1.204  12.967  0.8840  1.9876  1.2878
 1882TIP3   OH227136   1.203   4.453   5.010  0.3349 -0.1866 -0.0544
 1882TIP3    H127137   1.113   4.455   4.977  0.2762  0.6101  0.1343
 1882TIP3    H227138   1.256   4.431   4.934 -0.0386 -0.8292 -0.1292
 1883TIP3   OH227139   4.207   0.386  17.175 -0.2101 -0.3507 -0.2271
 1883TIP3    H127140   4.192   0.446  17.248 -1.1121  0.4453 -1.0430
 1883TIP3    H227141   4.126   0.389  17.124  1.3108  1.2015 -2.7619
 1884TIP3   OH227142   4.398   3.132  15.740  0.2385  0.1337 -0.1880
 1884TIP3    H127143   4.337   3.077  15.788 -0.1648  0.6028 -0.1524
 1884TIP3    H227144   4.484   3.094  15.757 -0.0393 -0.5236 -0.2305
 1885TIP3   OH227145   4.362   3.904   4.256 -0.0213 -0.1922 -1.0812
 1885TIP3    H127146   4.407   3.891   4.172  0.8134 -0.5339 -0.5957
 1885TIP3    H227147   4.368   3.819   4.299  0.8885  0.3635 -0.0546
 1886TIP3   OH227148   0.560   4.237   2.345  0.1425  0.3524  0.4922
 1886TIP3    H127149   0.536   4.194   2.264  1.3560  1.3489 -0.4410
 1886TIP3    H227150   0.477   4.266   2.383 -0.4663 -0.5106 -0.1615
 1887TIP3   OH227151   6.297   6.648   2.022  0.3639  0.0134  0.2622
 1887TIP3    H127152   6.236   6.585   2.061  0.8179 -0.4007  0.3093
 1887TIP3    H227153   6.264   6.661   1.934 -1.2900  1.7618  1.0779
 1888TIP3   OH227154   2.902   1.165   4.630 -0.1256  0.2943 -0.4171
 1888TIP3    H127155   2.945   1.126   4.706 -0.5075  1.4523  0.4173
 1888TIP3    H227156   2.861   1.245   4.664 -2.1679 -0.2932 -1.3764
 1889TIP3   OH227157   2.868   0.702   1.738 -0.1482 -0.0935 -0.4971
 1889TIP3    H127158   2.863   0.642   1.663  0.6721 -0.1535 -0.5146
 1889TIP3    H227159   2.956   0.739   1.732 -0.3333  0.4361  0.0360
 1890TIP3   OH227160   3.020   3.591   2.215  0.2653 -0.1380 -0.3568
 1890TIP3    H127161   2.999   3.647   2.290 -2.7610 -0.5827 -0.7550
 1890TIP3    H227162   3.086   3.640   2.166  0.4281  1.3347  1.2489
 1891TIP3   OH227163   1.328   2.884   2.692 -0.0128  0.2930 -0.3070
 1891TIP3    H127164   1.242   2.927   2.696  0.2484  0.8936 -1.1021
 1891TIP3    H227165   1.327   2.824   2.767 -0.9505  0.6170 -0.0398
 1892TIP3   OH227166   1.591   4.197   1.133  0.2089  0.0151  0.0333
 1892TIP3    H127167   1.680   4.223   1.110 -0.0616  0.1148 -0.9493
 1892TIP3    H227168   1.588   4.202   1.228  0.7616  1.6214 -0.0060
 1893TIP3   OH227169   3.956   1.312   1.324 -0.3397 -0.0454  0.1567
 1893TIP3    H127170   3.906   1.234   1.348  0.2855 -0.4051  0.3032
 1893TIP3    H227171   4.047   1.288   1.339 -0.0161  0.1828 -1.2872
 1894TIP3   OH227172   4.320   0.829  11.971 -0.6960  0.3891  0.9625
 1894TIP3    H127173   4.411   0.857  11.978 -0.9217  1.3684  0.2115
 1894TIP3    H227174   4.284   0.844  12.058 -0.4681  1.2498  0.9184
 1895TIP3   OH227175   1.484   6.573  14.410  0.2981 -0.3946 -0.4289
 1895TIP3    H127176   1.499   6.488  14.368  1.5616 -0.9813  1.1305
 1895TIP3    H227177   1.431   6.552  14.487  1.4439  0.0681  0.5089
 1896TIP3   OH227178   1.559   3.600  11.194 -0.2027 -0.0230  0.2196
 1896TIP3    H127179   1.635   3.542  11.203 -0.3115 -0.0207  1.2164
 1896TIP3    H227180   1.512   3.567  11.117 -1.1665 -2.3147  1.7022
 1897TIP3   OH227181   3.789   5.210   1.021 -0.1322  0.1008  0.1064
 1897TIP3    H127182   3.699   5.203   1.051 -0.4462 -0.7841 -1.0039
 1897TIP3    H227183   3.842   5.182   1.096 -0.8331 -0.5839  0.3516
 1898TIP3   OH227184   5.728   6.017  15.656 -0.5549  0.0270 -0.3687
 1898TIP3    H127185   5.744   6.067  15.576 -0.2034 -0.2306 -0.4615
 1898TIP3    H227186   5.665   6.070  15.705  0.3469  0.9104 -0.1356
 1899TIP3   OH227187   5.107   1.353  11.685  0.4726 -0.0989  0.6189
 1899TIP3    H127188   5.053   1.338  11.608  1.9531  0.4034 -0.5709
 1899TIP3    H227189   5.168   1.280  11.686  0.5006 -0.0742  1.2970
 1900TIP3   OH227190   0.102   5.412  13.498  0.9058  0.0103  0.8555
 1900TIP3    H127191   0.114   5.427  13.591  1.5140  0.1502  0.7599
 1900TIP3    H227192   0.112   5.317  13.488 -2.0372 -0.4291  1.3312
 1901TIP3   OH227193   4.774   5.876   4.289 -0.0870  0.3072 -0.6049
 1901TIP3    H127194   4.708   5.840   4.349  0.8008 -0.0044  0.1923
 1901TIP3    H227195   4.842   5.809   4.285  1.0422  1.3730 -0.0002
 1902TIP3   OH227196   6.283   5.315   5.192 -0.2800  0.0884  0.5046
 1902TIP3    H127197   6.197   5.358   5.186 -1.4744 -2.1765  0.3638
 1902TIP3    H227198   6.289   5.263   5.112  2.4319  2.1432 -0.7861
 1903TIP3   OH227199   4.524   6.163  16.198  0.2335 -0.3142  0.7604
 1903TIP3    H127200   4.569   6.248  16.203  0.3295 -0.3339  0.2795
 1903TIP3    H227201   4.484   6.163  16.112 -2.0981  0.3943  1.7771
 1904TIP3   OH227202   2.344   3.042  15.787  0.3459  0.2501  0.0012
 1904TIP3    H127203   2.286   3.118  15.786  0.9430  0.7114 -0.3998
 1904TIP3    H227204   2.427   3.076  15.821  0.5769 -0.2517 -0.0554
 1905TIP3   OH227205   0.106   6.057  13.411  0.6040 -0.0600  0.2722
 1905TIP3    H127206   0.096   6.099  13.326 -2.0551  0.6841  0.8562
 1905TIP3    H227207   0.083   5.965  13.395  0.5037 -0.0094  0.1204
 1906TIP3   OH227208   6.432   2.492   5.056  0.0972 -0.1725  0.0216
 1906TIP3    H127209   6.471   2.576   5.080 -0.0258 -0.1417  0.1170
 1906TIP3    H227210   6.483   2.427   5.104  0.7385 -0.2281 -0.7019
 1907TIP3   OH227211   0.256   0.800   4.043 -0.2936  0.5252 -0.2307
 1907TIP3    H127212   0.205   0.730   4.002  0.4476 -0.2453  0.1216
 1907TIP3    H227213   0.196   0.874   4.048 -1.5086 -0.4735  0.5112
 1908TIP3   OH227214   3.245   3.502  12.881  0.0032  0.2865  0.2335
 1908TIP3    H127215   3.306   3.428  12.880 -1.2283 -0.7759  0.3827
 1908TIP3    H227216   3.237   3.527  12.789  0.0137 -0.1502  0.1075
 1909TIP3   OH227217   2.781   1.124   1.100  0.3699  0.3076 -0.1330
 1909TIP3    H127218   2.849   1.174   1.144 -1.6548  2.5640  0.6474
 1909TIP3    H227219   2.757   1.055   1.162  0.1007  1.1864  0.7618
 1910TIP3   OH227220   1.406   2.654   3.548 -0.1401 -0.1317  0.6365
 1910TIP3    H127221   1.380   2.744   3.568 -2.4929 -0.1860 -1.5958
 1910TIP3    H227222   1.498   2.649   3.573  0.3632  3.2144 -0.0895
 1911TIP3   OH227223   1.667   6.013  12.533  0.6943  0.1093  0.4038
 1911TIP3    H127224   1.663   6.103  12.566 -0.0072  0.7433 -1.3009
 1911TIP3    H227225   1.688   5.960  12.610  1.7510  1.7882  1.3237
 1912TIP3   OH227226   3.797   5.751   0.722  0.2012  0.3044 -0.5093
 1912TIP3    H127227   3.730   5.683   0.719 -0.4105  0.9196 -1.1277
 1912TIP3    H227228   3.751   5.828   0.756  0.9656  0.3292  0.5057
 1913TIP3   OH227229   2.518   0.730  14.031 -0.1885  1.3659  0.3129
 1913TIP3    H127230   2.534   0.734  13.936  0.0379  1.4940  0.3549
 1913TIP3    H227231   2.454   0.800  14.047 -1.5397  0.2413  0.0018
 1914TIP3   OH227232   1.467   0.219   1.007 -0.1336 -0.9052 -0.1380
 1914TIP3    H127233   1.462   0.132   0.968  0.3648 -0.5867 -0.9623
 1914TIP3    H227234   1.538   0.213   1.071 -0.0499 -1.0963 -0.2459
 1915TIP3   OH227235   4.848   3.922  12.323 -0.4227  0.4164  0.2654
 1915TIP3    H127236   4.769   3.912  12.269 -1.7615 -0.9701  2.3233
 1915TIP3    H227237   4.814   3.943  12.410  1.6307  2.1512  0.7072
 1916TIP3   OH227238   2.642   0.188  16.104 -0.0563  0.0239  0.0943
 1916TIP3    H127239   2.715   0.204  16.164 -1.9769  1.1720  2.2463
 1916TIP3    H227240   2.650   0.095  16.082  2.1891  0.1724 -0.0142
 1917TIP3   OH227241   0.935   1.549   2.614 -0.5576  0.4536 -0.8532
 1917TIP3    H127242   0.919   1.456   2.627 -0.3349  0.6073  0.6697
 1917TIP3    H227243   1.024   1.553   2.577 -0.2807  0.0875 -0.2486
 1918TIP3   OH227244   6.104   2.949   2.970 -1.0964  0.5423  0.6060
 1918TIP3    H127245   6.098   2.904   3.054  0.4994  0.6569  0.8161
 1918TIP3    H227246   6.013   2.958   2.940 -1.5565 -1.3785  1.3042
 1919TIP3   OH227247   2.204   2.253  15.690  0.0616  0.0604 -0.3574
 1919TIP3    H127248   2.112   2.281  15.695  0.0544 -0.1669  1.5191
 1919TIP3    H227249   2.200   2.157  15.699  0.5099  0.1298  0.8020
 1920TIP3   OH227250   1.053   3.093  10.973  0.6653  0.3318  0.1298
 1920TIP3    H127251   1.002   3.045  10.908 -0.5593 -1.0161  1.9816
 1920TIP3    H227252   1.034   3.185  10.954  0.3876 -0.0035 -1.4020
 1921TIP3   OH227253   1.791   3.394   1.589  0.0367  0.0417  0.0214
 1921TIP3    H127254   1.753   3.396   1.677 -0.6898  2.3007 -0.2681
 1921TIP3    H227255   1.721   3.427   1.532  1.0870  0.3473 -1.1303
 1922TIP3   OH227256   5.379   5.822  15.641  0.1254  0.0736 -0.1571
 1922TIP3    H127257   5.340   5.873  15.570  0.0654 -1.2437 -1.1062
 1922TIP3    H227258   5.333   5.852  15.719 -2.6384 -1.1474 -1.1747
 1923TIP3   OH227259   6.762   3.361   6.190 -0.6415  0.4655 -0.3150
 1923TIP3    H127260   6.842   3.308   6.188 -0.2890  0.9763 -2.2218
 1923TIP3    H227261   6.770   3.415   6.269  0.9884  0.6033 -0.5414
 1924TIP3   OH227262   0.727   3.752   3.289  0.0759  0.4288 -0.8544
 1924TIP3    H127263   0.710   3.786   3.201  2.3902  1.7226 -0.9009
 1924TIP3    H227264   0.687   3.665   3.291 -2.7674  1.6015 -2.0666
 1925TIP3   OH227265   5.098   2.385  13.542 -0.0217 -0.1369  0.5673
 1925TIP3    H127266   5.129   2.475  13.530  1.1266 -0.7099 -1.0611
 1925TIP3    H227267   5.136   2.358  13.626 -0.2274  0.8346  0.9833
 1926TIP3   OH227268   1.852   4.282  10.374 -0.4399  0.2342  0.5293
 1926TIP3    H127269   1.924   4.270  10.311 -1.1942  2.0825 -0.7764
 1926TIP3    H227270   1.895   4.312  10.454  0.3968 -0.5317  0.3830
 1927TIP3   OH227271   4.977   5.294   4.119 -0.5038  0.7255  0.0728
 1927TIP3    H127272   5.033   5.236   4.068 -1.5488  0.7186 -1.1240
 1927TIP3    H227273   5.032   5.324   4.191  0.0807 -1.7041  0.7111
 1928TIP3   OH227274   0.259   0.357  13.864 -0.2035  0.1376  0.4341
 1928TIP3    H127275   0.167   0.343  13.841 -0.8019  2.7913  0.9254
 1928TIP3    H227276   0.288   0.427  13.805  0.7882  0.9875  1.8737
 1929TIP3   OH227277   5.723   0.354   0.594 -0.5033 -0.1094 -0.0027
 1929TIP3    H127278   5.742   0.339   0.687 -0.5321  0.4820  0.1021
 1929TIP3    H227279   5.733   0.268   0.553  1.9010  0.0339  0.1299
 1930TIP3   OH227280   6.435   1.865   0.726 -0.3941  0.1130  0.1975
 1930TIP3    H127281   6.518   1.823   0.702 -1.0204 -0.2646 -1.4629
 1930TIP3    H227282   6.409   1.823   0.808  1.0177  0.2112  0.7121
 1931TIP3   OH227283   6.151   3.703   1.412 -0.6901  0.6866  0.0504
 1931TIP3    H127284   6.220   3.741   1.466 -0.1257 -0.9077  0.5363
 1931TIP3    H227285   6.186   3.705   1.323 -0.7950  1.5316  0.0231
 1932TIP3   OH227286   5.836   6.654  12.202  0.6193  0.0116 -0.0627
 1932TIP3    H127287   5.919   6.695  12.179  0.5385  1.4736  1.9542
 1932TIP3    H227288   5.856   6.600  12.278 -0.1242 -0.2566 -0.0516
 1933TIP3   OH227289   1.394   3.011  11.900 -0.3082 -0.0999 -0.5576
 1933TIP3    H127290   1.429   3.062  11.827 -0.8333 -0.5829 -1.1531
 1933TIP3    H227291   1.437   2.926  11.893  0.0214  0.0153  0.0047
 1934TIP3   OH227292   0.809   4.835   4.192 -0.8751  0.3488 -0.2676
 1934TIP3    H127293   0.716   4.834   4.167 -0.5147 -0.9898 -1.7082
 1934TIP3    H227294   0.845   4.912   4.147 -0.8518 -0.3753 -1.5197
 1935TIP3   OH227295   2.688   2.000  10.661  0.6641 -0.0581  0.1015
 1935TIP3    H127296   2.610   1.947  10.644 -0.1114  0.6874  1.2088
 1935TIP3    H227297   2.667   2.085  10.623  0.4485  0.4850  1.3879
 1936TIP3   OH227298   1.029   4.236   6.477 -0.4345  0.3599 -0.1916
 1936TIP3    H127299   1.002   4.307   6.419  0.1726  2.2928  1.7433
 1936TIP3    H227300   1.125   4.234   6.471 -0.4641 -0.6394 -0.5678
 1937TIP3   OH227301   6.533   5.218  15.431  0.6690  0.0444  0.2236
 1937TIP3    H127302   6.557   5.250  15.344  0.4496 -0.5461 -0.0523
 1937TIP3    H227303   6.599   5.152  15.451 -0.4568 -1.2969 -0.3622
 1938TIP3   OH227304   0.078   6.701  15.297 -0.1587  0.0136  0.3938
 1938TIP3    H127305   0.150   6.638  15.298 -0.2373 -0.0681  1.8445
 1938TIP3    H227306   0.115   6.779  15.254 -0.0140 -0.9312 -1.2640
 1939TIP3   OH227307   3.506   0.621  17.063 -0.1305  0.5012  0.2981
 1939TIP3    H127308   3.569   0.647  16.996 -1.1044  1.9766 -0.0845
 1939TIP3    H227309   3.451   0.556  17.020  1.1653 -0.8981  0.6766
 1940TIP3   OH227310   5.978   1.106   6.157 -0.0391 -0.0921  0.4563
 1940TIP3    H127311   6.057   1.052   6.161  0.6255  0.7780 -0.5180
 1940TIP3    H227312   5.916   1.054   6.105  0.8057  0.3051 -0.9959
 1941TIP3   OH227313   0.519   6.716   5.482  0.0813 -0.2416  0.3135
 1941TIP3    H127314   0.423   6.717   5.472 -0.1112 -0.4436  1.8462
 1941TIP3    H227315   0.541   6.804   5.512  0.3305 -0.3001  0.2990
 1942TIP3   OH227316   5.253   0.438   2.578 -0.3564  0.8919  0.3404
 1942TIP3    H127317   5.271   0.444   2.484  0.9599 -0.5209  0.4584
 1942TIP3    H227318   5.333   0.468   2.620 -0.6046  0.6566  0.9997
 1943TIP3   OH227319   1.334   4.068   0.839 -0.2995 -0.3602 -0.0299
 1943TIP3    H127320   1.240   4.082   0.846 -0.0723  1.8397 -0.6354
 1943TIP3    H227321   1.373   4.148   0.874  1.2342  0.6342 -3.5248
 1944TIP3   OH227322   4.485   3.786  13.002 -0.3392  0.0523  0.1408
 1944TIP3    H127323   4.524   3.700  13.016 -0.5923  0.1270  1.3469
 1944TIP3    H227324   4.391   3.771  13.003 -0.3970  0.0748 -1.5086
 1945TIP3   OH227325   5.618   3.744  15.822  0.7180  0.5089  0.7880
 1945TIP3    H127326   5.545   3.751  15.884  1.1677 -0.4084  1.4539
 1945TIP3    H227327   5.596   3.668  15.769  0.6137  0.9521  0.1905
 1946TIP3   OH227328   4.968   0.207  16.111 -0.2459  0.0333 -0.0024
 1946TIP3    H127329   5.023   0.199  16.189 -0.4587 -0.3629  0.1088
 1946TIP3    H227330   4.880   0.187  16.142 -0.3455 -0.0334 -0.3293
 1947TIP3   OH227331   0.485   4.187   4.794 -0.3316 -0.0867 -0.3565
 1947TIP3    H127332   0.507   4.204   4.886 -1.3355  1.9381 -0.4438
 1947TIP3    H227333   0.545   4.243   4.745 -0.1537 -0.7716 -0.9391
 1948TIP3   OH227334   1.869   0.046   3.745  0.5070  0.2028  0.0192
 1948TIP3    H127335   1.925  -0.017   3.700  0.8543  0.1127  0.5674
 1948TIP3    H227336   1.812  -0.007   3.800  1.1663  0.3754  0.8984
 1949TIP3   OH227337   5.398   1.432  11.516  0.0457  0.0225 -0.4495
 1949TIP3    H127338   5.448   1.514  11.517  0.4235 -0.2078 -0.2570
 1949TIP3    H227339   5.308   1.460  11.502 -0.1621  0.6500  1.6640
 1950TIP3   OH227340   4.612   2.456  15.981  0.5387 -0.1998  0.3614
 1950TIP3    H127341   4.600   2.372  16.027  0.9761  0.4941  1.8079
 1950TIP3    H227342   4.537   2.462  15.922  0.6132 -1.7078  0.0791
 1951TIP3   OH227343   6.626   0.141  14.075 -0.7215  0.2478 -0.1519
 1951TIP3    H127344   6.586   0.199  14.139  1.0716  0.3081  0.9831
 1951TIP3    H227345   6.714   0.176  14.062 -1.0813  0.3208 -2.8087
 1952TIP3   OH227346   2.915   2.487  13.721 -0.0622  0.2390  0.3244
 1952TIP3    H127347   2.953   2.405  13.751  1.4778  1.7011  2.6752
 1952TIP3    H227348   2.825   2.484  13.751  0.4013  0.0211  1.7420
 1953TIP3   OH227349   4.009   4.134  14.511  0.0020 -0.5835 -0.2125
 1953TIP3    H127350   4.010   4.188  14.432  0.8742 -2.9738 -1.9379
 1953TIP3    H227351   3.925   4.088  14.508 -0.4957  0.1962  0.9487
 1954TIP3   OH227352   1.565   6.281   4.437 -1.4061 -0.0867 -0.4115
 1954TIP3    H127353   1.519   6.235   4.507 -3.1358 -0.3832 -1.6912
 1954TIP3    H227354   1.569   6.372   4.466 -1.1282 -0.3890  0.5394
 1955TIP3   OH227355   0.370   5.884   0.127 -0.2631 -0.1985  0.4797
 1955TIP3    H127356   0.395   5.849   0.212 -0.7729  0.8245  1.0666
 1955TIP3    H227357   0.452   5.889   0.078 -0.1772 -2.3631  0.2661
 1956TIP3   OH227358   5.956   6.152   2.458  0.3260 -0.3531  0.0798
 1956TIP3    H127359   5.936   6.128   2.367 -0.1387  0.9602 -0.1929
 1956TIP3    H227360   5.871   6.144   2.503  0.2933  0.1743  0.1152
 1957TIP3   OH227361   0.268   0.090   0.886  0.6978 -0.3357 -0.0226
 1957TIP3    H127362   0.177   0.091   0.856  0.9200 -0.0433 -0.7109
 1957TIP3    H227363   0.282   0.177   0.922  0.7850 -0.2928 -0.1614
 1958TIP3   OH227364   3.896   5.944  11.714 -0.1622 -0.1875 -0.4095
 1958TIP3    H127365   3.917   5.853  11.737  0.8389  0.5059  1.6795
 1958TIP3    H227366   3.835   5.972  11.782 -0.6541  0.6531 -1.1719
 1959TIP3   OH227367   4.675   3.631  16.998  0.4111 -0.3050 -0.5722
 1959TIP3    H127368   4.739   3.568  16.964 -0.8381 -1.7751 -0.3278
 1959TIP3    H227369   4.631   3.584  17.069 -0.3861  0.9633 -0.1946
 1960TIP3   OH227370   2.277   5.042   2.377 -0.0540  0.5115  0.5575
 1960TIP3    H127371   2.250   4.953   2.402 -0.3587  0.8124  1.3288
 1960TIP3    H227372   2.207   5.098   2.411  0.6801  1.1421  1.0446
 1961TIP3   OH227373   3.926   2.537   2.629  0.2390 -0.1455  0.3546
 1961TIP3    H127374   3.934   2.442   2.641  0.6638 -0.2087 -0.4226
 1961TIP3    H227375   3.836   2.550   2.600 -0.1308 -0.2026  1.4212
 1962TIP3   OH227376   6.533   3.920   1.757 -0.8715  0.1269 -0.6387
 1962TIP3    H127377   6.585   3.844   1.727  1.8997  2.1581 -1.4046
 1962TIP3    H227378   6.496   3.957   1.677 -1.2309  0.2708 -0.4093
 1963TIP3   OH227379   0.845   2.348  13.550 -0.6413 -0.0071  0.4301
 1963TIP3    H127380   0.813   2.291  13.619  0.2912 -1.6683 -0.4552
 1963TIP3    H227381   0.805   2.314  13.470 -1.5702  1.7747  0.0720
 1964TIP3   OH227382   1.761   6.351  12.915 -0.5862  0.0080 -0.0480
 1964TIP3    H127383   1.814   6.353  12.836 -0.7154 -0.6207 -0.1587
 1964TIP3    H227384   1.807   6.289  12.972  0.7630  2.1094  1.2808
 1965TIP3   OH227385   2.858   2.356  15.998 -0.2898  0.0345  0.1928
 1965TIP3    H127386   2.813   2.274  15.974  0.4185 -0.1998 -0.3634
 1965TIP3    H227387   2.900   2.337  16.081 -0.3499 -0.0779  0.1976
 1966TIP3   OH227388   1.200   2.163   3.372  0.4427  0.3363  0.3196
 1966TIP3    H127389   1.174   2.178   3.463  1.0375  0.8596  0.4155
 1966TIP3    H227390   1.280   2.112   3.378 -0.3360 -0.9667  0.0356
 1967TIP3   OH227391   6.232   5.482   3.499  0.3271 -0.2668  0.1854
 1967TIP3    H127392   6.320   5.517   3.489  0.3657 -0.4538 -0.1532
 1967TIP3    H227393   6.246   5.394   3.533  0.5484 -2.0024 -3.7968
 1968TIP3   OH227394   0.419   5.772  12.324 -0.3115 -0.0131 -0.0897
 1968TIP3    H127395   0.363   5.700  12.353  0.3139 -0.2266  0.6359
 1968TIP3    H227396   0.468   5.735  12.250 -0.1411 -0.2794  0.1509
 1969TIP3   OH227397   0.798   0.272  13.769  0.0835 -0.3598  0.6698
 1969TIP3    H127398   0.790   0.343  13.831 -0.6178  2.0680 -1.9901
 1969TIP3    H227399   0.722   0.282  13.710  1.2812 -1.7778 -1.2583
 1970TIP3   OH227400   2.278   1.490   1.774 -0.3487  0.4802  0.3423
 1970TIP3    H127401   2.287   1.481   1.679 -0.0339  0.6002  0.3591
 1970TIP3    H227402   2.300   1.582   1.791 -0.3634  0.4473  0.5361
 1971TIP3   OH227403   0.756   4.585  16.310  0.1262  0.3028 -0.2530
 1971TIP3    H127404   0.791   4.618  16.228  0.5018  0.7160  0.0677
 1971TIP3    H227405   0.668   4.622  16.316 -0.6087 -1.1755 -1.3276
 1972TIP3   OH227406   1.730   1.995  16.190 -0.1936  0.3971 -0.4444
 1972TIP3    H127407   1.820   2.029  16.196 -0.0828  0.1034 -0.4012
 1972TIP3    H227408   1.705   1.980  16.281 -1.2646  2.9540 -0.2350
 1973TIP3   OH227409   5.038   5.213   3.315 -0.3739  0.4207  0.1561
 1973TIP3    H127410   4.998   5.166   3.242  1.5612  0.7392 -1.1767
 1973TIP3    H227411   5.111   5.158   3.342  0.1315  1.2598  0.5346
 1974TIP3   OH227412   4.240   2.950  16.129  0.1496 -0.5453 -0.0342
 1974TIP3    H127413   4.176   2.940  16.199 -0.4567 -0.3252 -0.5456
 1974TIP3    H227414   4.194   3.000  16.061  0.6491 -0.9534 -0.6859
 1975TIP3   OH227415   2.944   3.256  15.494 -0.0449  0.0899 -0.1059
 1975TIP3    H127416   2.910   3.168  15.514 -0.5988  0.3544  0.1319
 1975TIP3    H227417   2.977   3.288  15.578  1.1268 -0.3005 -0.4013
 1976TIP3   OH227418   6.303   1.541   4.602 -0.5377  0.5507  0.5013
 1976TIP3    H127419   6.365   1.475   4.634 -1.2420  0.0046  0.7912
 1976TIP3    H227420   6.352   1.623   4.601  0.2256  0.1022  0.5735
 1977TIP3   OH227421   0.323   5.867   6.531 -0.5899 -0.1170  0.7032
 1977TIP3    H127422   0.394   5.851   6.469 -1.5956  0.4917 -0.6747
 1977TIP3    H227423   0.364   5.912   6.605  0.7454 -1.4091  0.7833
 1978TIP3   OH227424   4.601   5.070   0.369  0.6073  0.0582  0.0196
 1978TIP3    H127425   4.575   5.122   0.445  1.0877  0.2829  0.0337
 1978TIP3    H227426   4.672   5.015   0.400 -0.1488 -0.9036  0.1047
 1979TIP3   OH227427   6.202   0.070  12.547 -0.0679 -0.1385 -0.0757
 1979TIP3    H127428   6.211   0.155  12.590  1.0766  1.0315 -2.4404
 1979TIP3    H227429   6.154   0.088  12.466  0.4072 -1.6838 -0.7514
 1980TIP3   OH227430   2.038   5.033   5.348 -0.3424 -0.1674  0.0376
 1980TIP3    H127431   2.089   5.022   5.428  2.3850 -0.5263 -1.6298
 1980TIP3    H227432   2.057   4.956   5.296  0.0395  1.2057 -1.9917
 1981TIP3   OH227433   5.562   3.599  12.424 -0.5074 -0.3794 -0.0639
 1981TIP3    H127434   5.536   3.586  12.516 -2.5245 -0.5357 -0.5964
 1981TIP3    H227435   5.647   3.556  12.417 -0.1422 -0.0441  1.8197
 1982TIP3   OH227436   2.837   5.691  16.602 -0.3188 -0.4431 -0.7000
 1982TIP3    H127437   2.879   5.777  16.602 -0.7499 -0.2043  0.7985
 1982TIP3    H227438   2.745   5.709  16.624 -0.1263 -1.3903  0.9906
 1983TIP3   OH227439   0.803   2.173  11.869 -0.4623 -0.4268 -0.5829
 1983TIP3    H127440   0.761   2.214  11.794 -3.1436 -1.5596  0.1824
 1983TIP3    H227441   0.807   2.242  11.935  2.6561  0.8199 -1.8769
 1984TIP3   OH227442   4.853   0.524  12.879  0.2618  0.1756 -0.0395
 1984TIP3    H127443   4.875   0.517  12.972  0.2889  1.4412  0.0713
 1984TIP3    H227444   4.774   0.579  12.878 -0.0928 -0.3363 -0.7313
 1985TIP3   OH227445   4.113   0.835   6.525  0.1652  0.2595 -0.0673
 1985TIP3    H127446   4.103   0.750   6.482  0.2117 -0.1927  0.7871
 1985TIP3    H227447   4.025   0.872   6.527 -0.1190 -0.4234  0.8435
 1986TIP3   OH227448   6.298   1.537  16.044  0.2435 -0.4629  0.3944
 1986TIP3    H127449   6.338   1.622  16.025  0.5286 -0.6701  0.0647
 1986TIP3    H227450   6.225   1.558  16.103  0.2811  0.0156  0.2789
 1987TIP3   OH227451   1.747   1.625  13.652  0.6368 -0.2894 -0.3272
 1987TIP3    H127452   1.665   1.640  13.604  1.2390 -0.4092 -1.4215
 1987TIP3    H227453   1.809   1.594  13.585  1.3883 -0.8626  0.6058
 1988TIP3   OH227454   0.213   3.979   2.924  0.2113 -0.4679  0.4607
 1988TIP3    H127455   0.160   4.033   2.865  0.2039 -0.2594  0.6583
 1988TIP3    H227456   0.182   3.890   2.909 -0.9196 -0.2424  1.3102
 1989TIP3   OH227457   3.198   0.639   1.766  0.0792 -0.3086  0.4356
 1989TIP3    H127458   3.133   0.586   1.811 -2.0895  0.6510 -1.3459
 1989TIP3    H227459   3.255   0.575   1.722 -0.2494 -1.1745  1.2401
 1990TIP3   OH227460   6.807   1.895  10.344 -0.5345  0.2564  0.0109
 1990TIP3    H127461   6.899   1.867  10.350 -0.2021  1.4564  0.7496
 1990TIP3    H227462   6.786   1.889  10.250  0.1974 -0.2900 -0.1292
 1991TIP3   OH227463   4.761   5.326   0.600 -0.3591 -0.2838  0.0506
 1991TIP3    H127464   4.783   5.280   0.681 -0.3742  0.7386  0.6580
 1991TIP3    H227465   4.681   5.284   0.569  1.0747 -2.4877 -0.9230
 1992TIP3   OH227466   3.062   0.368  11.237 -0.4535  0.0199  0.1773
 1992TIP3    H127467   3.081   0.352  11.145  1.0017  0.1432  0.4331
 1992TIP3    H227468   3.010   0.292  11.264  0.5013 -0.8651 -0.3516
 1993TIP3   OH227469   4.907   1.879   2.163 -0.7824  1.1951 -0.4512
 1993TIP3    H127470   4.831   1.833   2.128 -0.7790 -1.4351  2.5763
 1993TIP3    H227471   4.964   1.810   2.197  1.8281  3.2224 -0.3675
 1994TIP3   OH227472   2.554   6.495   0.819 -0.0507 -0.5084 -0.1954
 1994TIP3    H127473   2.471   6.478   0.863  0.0510  0.5589  0.4457
 1994TIP3    H227474   2.533   6.559   0.751  0.2847 -0.0848  0.0992
 1995TIP3   OH227475   6.543   1.943  16.103 -0.1243  0.0850 -0.6867
 1995TIP3    H127476   6.486   1.898  16.166 -1.9475 -0.4385 -2.6040
 1995TIP3    H227477   6.586   1.872  16.055 -0.1210  0.4467 -1.2204
 1996TIP3   OH227478   1.027   6.788   1.387 -0.0404 -0.4942  0.3719
 1996TIP3    H127479   1.051   6.769   1.477 -1.5265 -0.7806  0.7291
 1996TIP3    H227480   0.975   6.869   1.393 -1.3637 -1.2905 -0.0304
 1997TIP3   OH227481   5.643   3.445  14.026 -0.9884 -0.3622 -0.3181
 1997TIP3    H127482   5.649   3.536  13.995 -0.8429 -0.1178  0.4040
 1997TIP3    H227483   5.660   3.451  14.120  0.5932 -1.3255 -0.5058
 1998TIP3   OH227484   4.993   5.701  14.068 -0.1760  0.1102 -0.5252
 1998TIP3    H127485   5.046   5.780  14.062  0.1428 -0.1732 -1.8320
 1998TIP3    H227486   5.007   5.669  14.157  1.9081  0.0086 -0.8511
 1999TIP3   OH227487   1.220   5.848   1.696  0.7948 -0.0125  0.3472
 1999TIP3    H127488   1.287   5.876   1.633 -0.8933  1.0164 -1.1077
 1999TIP3    H227489   1.141   5.896   1.669 -0.0855  0.2834  3.1383
 2000TIP3   OH227490   1.430   6.834  16.514  0.0594 -0.0931 -0.4044
 2000TIP3    H127491   1.342   6.841  16.476  0.4878  0.8282 -1.2773
 2000TIP3    H227492   1.435   6.907  16.576 -0.2530 -0.9566  0.6780
 2001TIP3   OH227493   3.054   6.579   5.139  0.1599 -0.2827  0.4996
 2001TIP3    H127494   3.047   6.496   5.185 -0.7644 -0.5656 -0.1117
 2001TIP3    H227495   3.148   6.598   5.135  0.4660 -1.8487 -0.3136
 2002TIP3   OH227496   5.107   5.036   6.203  0.0649 -0.4894 -0.1706
 2002TIP3    H127497   5.078   5.063   6.291 -2.1667  0.1191 -1.0113
 2002TIP3    H227498   5.181   4.978   6.219  1.1171  1.3022  2.0025
 2003TIP3   OH227499   4.019   2.845   4.961  0.3049  0.0117 -0.0727
 2003TIP3    H127500   4.066   2.859   5.043 -0.5616 -1.6697  0.7480
 2003TIP3    H227501   4.034   2.926   4.911  0.6683  1.1689  1.8095
 2004TIP3   OH227502   3.212   2.029   5.070  0.2498 -0.4205 -0.0079
 2004TIP3    H127503   3.271   1.970   5.023  1.1342  0.5551 -0.1663
 2004TIP3    H227504   3.125   2.005   5.039  0.4841 -2.2916  0.6797
 2005TIP3   OH227505   5.447   3.495  11.665  0.0372  0.3112  0.1368
 2005TIP3    H127506   5.529   3.461  11.701 -0.0484  1.7388  1.8022
 2005TIP3    H227507   5.383   3.426  11.682  0.5458 -0.1024  0.4038
 2006TIP3   OH227508   5.532   3.104   0.290  0.0292  0.0781 -0.0663
 2006TIP3    H127509   5.477   3.166   0.337  1.4017  2.5497 -1.5238
 2006TIP3    H227510   5.604   3.086   0.350 -1.2590 -1.5959  1.0571
 2007TIP3   OH227511   1.427   2.300  15.183  0.5324 -0.4758 -0.0748
 2007TIP3    H127512   1.490   2.333  15.119  0.8629 -1.6180 -0.3434
 2007TIP3    H227513   1.458   2.335  15.267 -0.0200  1.2070 -0.5149
 2008TIP3   OH227514   1.096   1.390   5.370 -0.1239  0.0169  0.2809
 2008TIP3    H127515   1.045   1.329   5.423  0.9749  0.0301  1.4055
 2008TIP3    H227516   1.057   1.476   5.390  1.0648  0.1909  2.1306
 2009TIP3   OH227517   2.540   3.892   0.194 -0.1529  0.5217  0.5013
 2009TIP3    H127518   2.521   3.979   0.158 -2.7941 -0.9639 -2.1242
 2009TIP3    H227519   2.627   3.872   0.161  0.0330  1.6994  0.2057
 2010TIP3   OH227520   1.421   6.521  14.893  0.6027 -0.2305 -0.2658
 2010TIP3    H127521   1.342   6.555  14.851  2.1855  3.0305 -0.9591
 2010TIP3    H227522   1.422   6.428  14.872 -2.2550 -0.0676 -1.4911
 2011TIP3   OH227523   1.411   4.165  10.881 -0.2197 -0.1591 -0.2055
 2011TIP3    H127524   1.444   4.246  10.843 -2.0874 -0.6699 -3.2603
 2011TIP3    H227525   1.319   4.182  10.902  0.1694 -0.6041  2.2397
 2012TIP3   OH227526   4.303   2.433   3.814 -0.3191 -0.4125  0.2364
 2012TIP3    H127527   4.358   2.496   3.767  1.1451 -0.6187  1.5952
 2012TIP3    H227528   4.216   2.445   3.776  0.3027  1.1074 -0.8330
 2013TIP3   OH227529   4.810   6.033   4.589 -0.0128  0.3623 -0.0740
 2013TIP3    H127530   4.810   6.097   4.660 -0.1307  1.0705 -0.7065
 2013TIP3    H227531   4.791   5.949   4.632  1.2348  0.5634  0.9058
 2014TIP3   OH227532   5.551   4.956   3.078 -0.0534  0.5599 -0.3635
 2014TIP3    H127533   5.511   5.013   3.012  0.9953  2.6031  0.6563
 2014TIP3    H227534   5.482   4.943   3.144  0.0052  1.5367 -0.0983
 2015TIP3   OH227535   6.232   3.346   2.946 -0.7758 -0.2629 -0.1196
 2015TIP3    H127536   6.282   3.395   2.881 -0.6572 -0.8946 -0.5114
 2015TIP3    H227537   6.257   3.255   2.932 -2.9829 -0.7864 -1.2305
 2016TIP3   OH227538   0.708   2.344   5.855 -0.1794 -0.0486  0.0169
 2016TIP3    H127539   0.692   2.432   5.821  1.5652  0.3501  0.1279
 2016TIP3    H227540   0.652   2.338   5.933 -0.5706  0.8389 -0.1841
 2017TIP3   OH227541   5.128   4.318  13.325 -0.4718 -0.6609  0.0732
 2017TIP3    H127542   5.140   4.223  13.321  1.0235 -0.5236  0.6496
 2017TIP3    H227543   5.092   4.334  13.413 -0.8665 -0.7022 -0.0795
 2018TIP3   OH227544   5.061   5.545  14.952  0.3822 -0.3180  0.4343
 2018TIP3    H127545   4.997   5.558  15.022  0.4192 -0.8154  0.5643
 2018TIP3    H227546   5.129   5.489  14.991  1.2285  0.7206  0.4964
 2019TIP3   OH227547   4.894   3.008  14.815 -0.7504 -0.3441  0.6489
 2019TIP3    H127548   4.844   3.014  14.897  0.3637 -2.7691  1.5799
 2019TIP3    H227549   4.958   3.079  14.821  0.6606 -1.6892  2.9120
 2020TIP3   OH227550   4.262   2.294   6.349  0.5737 -0.1864  0.4341
 2020TIP3    H127551   4.289   2.325   6.263  1.2682 -1.0672  0.3182
 2020TIP3    H227552   4.190   2.233   6.332  0.5554 -0.1811  0.4921
 2021TIP3   OH227553   2.449   3.477  16.786 -0.6780 -0.1045 -0.0426
 2021TIP3    H127554   2.405   3.398  16.755 -0.9866 -0.6497  1.7030
 2021TIP3    H227555   2.385   3.520  16.843 -0.6912  1.6928 -1.3014
 2022TIP3   OH227556   5.195   5.886  14.881  0.2185 -0.2001 -0.1099
 2022TIP3    H127557   5.255   5.812  14.890  0.6022  0.0806 -0.3561
 2022TIP3    H227558   5.130   5.872  14.950  0.3188 -0.7349 -0.1153
 2023TIP3   OH227559   5.264   3.069  11.494  0.0537 -0.1078 -0.0644
 2023TIP3    H127560   5.264   3.164  11.509  0.8896  0.0385 -0.9300
 2023TIP3    H227561   5.204   3.057  11.421  0.3293 -0.1957 -0.2745
 2024TIP3   OH227562   6.483   3.233   0.388 -0.5878  0.5373 -0.4354
 2024TIP3    H127563   6.542   3.264   0.320 -0.7594 -0.0192 -0.8435
 2024TIP3    H227564   6.518   3.271   0.469  0.0676  0.5675 -0.7278
 2025TIP3   OH227565   2.722   2.096   3.946 -0.3459  0.3290  0.4943
 2025TIP3    H127566   2.808   2.110   3.986 -0.7615 -0.7666  1.8405
 2025TIP3    H227567   2.701   2.004   3.965 -1.2677  0.2186 -0.9154
 2026TIP3   OH227568   3.843   4.335  15.230  0.2111 -0.1435 -0.0736
 2026TIP3    H127569   3.860   4.326  15.324  0.2652 -0.2817 -0.0977
 2026TIP3    H227570   3.927   4.319  15.188 -0.2214 -2.1384 -0.2731
 2027TIP3   OH227571   0.429   3.718  14.354  0.4370  0.2709 -0.0294
 2027TIP3    H127572   0.385   3.736  14.438  1.6704 -0.1756  0.7260
 2027TIP3    H227573   0.409   3.626  14.336  0.4038  0.2895 -0.0877
 2028TIP3   OH227574   2.483   3.223  16.692  0.2791 -0.1255  0.1621
 2028TIP3    H127575   2.493   3.182  16.778  0.5571 -0.6254 -0.1068
 2028TIP3    H227576   2.562   3.201  16.645  0.2396  0.3626 -0.1450
 2029TIP3   OH227577   5.008   1.193   0.735 -0.2915  0.1416  0.1143
 2029TIP3    H127578   4.973   1.227   0.653  0.9794  0.5224 -0.3004
 2029TIP3    H227579   5.058   1.267   0.772 -2.0991  0.5106  2.0272
 2030TIP3   OH227580   0.944   6.337   0.965  0.0169 -0.1169 -0.4771
 2030TIP3    H127581   0.958   6.380   0.881 -0.4213  1.1660  0.0867
 2030TIP3    H227582   0.969   6.402   1.031 -1.0604 -0.5575  0.4114
 2031TIP3   OH227583   3.798   2.641  13.479  0.1044 -0.2524 -0.5403
 2031TIP3    H127584   3.763   2.730  13.488 -0.1070 -0.3702 -0.1741
 2031TIP3    H227585   3.847   2.626  13.560 -2.2250 -1.5044  0.7526
 2032TIP3   OH227586   4.359   5.417   4.215 -0.1761  0.6394  0.3009
 2032TIP3    H127587   4.278   5.390   4.171 -0.5448 -0.0284  1.3648
 2032TIP3    H227588   4.409   5.336   4.223 -0.6103  0.5140  2.1140
 2033TIP3   OH227589   0.934   3.702  11.018 -0.4161  0.0004 -0.2976
 2033TIP3    H127590   0.983   3.660  10.947  0.1906 -1.1315  0.7504
 2033TIP3    H227591   0.851   3.727  10.977  0.4912  0.7484 -1.7698
 2034TIP3   OH227592   3.652   0.036  16.277 -0.1265 -0.4906  0.5013
 2034TIP3    H127593   3.628  -0.033  16.340  0.2323 -2.2764 -1.2032
 2034TIP3    H227594   3.636  -0.004  16.191  1.2247  1.1511 -0.5794
 2035TIP3   OH227595   5.884   0.805  16.507  0.2357 -0.1685 -0.0057
 2035TIP3    H127596   5.841   0.824  16.424  0.1732  1.0820  0.2790
 2035TIP3    H227597   5.830   0.737  16.547 -0.5469  0.2085 -0.3781
 2036TIP3   OH227598   2.671   0.817  11.329 -0.2136  0.3415  0.0162
 2036TIP3    H127599   2.709   0.737  11.366 -0.3229 -0.3322 -1.2832
 2036TIP3    H227600   2.586   0.790  11.297  0.8942  0.2051 -3.1121
 2037TIP3   OH227601   2.777   1.744  14.232  0.1904 -0.4321  0.4992
 2037TIP3    H127602   2.750   1.785  14.314  1.7282 -0.2135  0.9316
 2037TIP3    H227603   2.868   1.774  14.219  0.2430 -1.1091 -0.8604
 2038TIP3   OH227604   0.138   2.511   0.794 -0.4198  0.5472 -0.0644
 2038TIP3    H127605   0.093   2.585   0.752 -3.5406 -0.0560  1.8741
 2038TIP3    H227606   0.085   2.434   0.769 -0.0060 -0.3497  1.6565
 2039TIP3   OH227607   2.025   4.674   4.592  0.5657  0.1909 -0.1387
 2039TIP3    H127608   2.106   4.658   4.542  0.8562  0.4421  0.2470
 2039TIP3    H227609   1.964   4.710   4.527  1.2209  1.3408 -0.1468
 2040TIP3   OH227610   2.810   5.172   5.358 -0.3230 -1.1171 -0.4729
 2040TIP3    H127611   2.795   5.266   5.361 -0.9011 -1.2230 -0.0069
 2040TIP3    H227612   2.903   5.164   5.337  0.3220 -0.4088  1.8265
 2041TIP3   OH227613   5.421   6.557   0.662  0.0726 -0.9660  0.2869
 2041TIP3    H127614   5.344   6.613   0.653  0.8386  0.1035  0.1314
 2041TIP3    H227615   5.429   6.542   0.756  0.7139  0.4712  0.4944
 2042TIP3   OH227616   2.921   6.590   4.685 -0.4359 -0.1907  0.1529
 2042TIP3    H127617   2.850   6.538   4.649 -2.7360  1.1934  2.3951
 2042TIP3    H227618   2.967   6.531   4.744  0.9472 -1.3358 -1.9287
 2043TIP3   OH227619   4.394   3.622  12.354  0.2275 -0.4616  0.2280
 2043TIP3    H127620   4.381   3.530  12.375  1.4643 -0.9238 -0.8915
 2043TIP3    H227621   4.386   3.626  12.258 -1.2517  0.8531  0.3607
 2044TIP3   OH227622   1.287   5.493  14.949  0.0089 -0.0607  0.1399
 2044TIP3    H127623   1.292   5.504  15.043  4.2898  0.5836  0.0323
 2044TIP3    H227624   1.279   5.398  14.936  0.6833 -0.2649  1.1532
 2045TIP3   OH227625   3.352   3.573  14.388  0.0908 -0.4047 -0.2752
 2045TIP3    H127626   3.282   3.584  14.452 -2.3746 -2.1181 -2.4791
 2045TIP3    H227627   3.372   3.480  14.390  0.4239 -0.3784 -1.5207
 2046TIP3   OH227628   0.759   6.091   2.476 -0.3385 -0.4538 -0.1919
 2046TIP3    H127629   0.694   6.156   2.447  0.6446  0.5721 -0.1601
 2046TIP3    H227630   0.806   6.135   2.547  1.8181 -0.3329 -1.6194
 2047TIP3   OH227631   1.549   3.268  12.379 -0.2278  0.8623  0.8074
 2047TIP3    H127632   1.642   3.286  12.391  1.0011 -3.5136 -0.4478
 2047TIP3    H227633   1.531   3.193  12.435 -2.1401 -0.3726 -1.2860
 2048TIP3   OH227634   0.263   4.874  13.944 -0.7641 -0.1206  0.0867
 2048TIP3    H127635   0.316   4.952  13.924 -0.4577 -0.4461 -0.3726
 2048TIP3    H227636   0.271   4.819  13.867 -0.4816 -0.8876  0.6547
 2049TIP3   OH227637   3.633   5.224   1.700  0.4036  0.2567 -0.6247
 2049TIP3    H127638   3.719   5.183   1.694  0.0405 -0.4256 -1.1541
 2049TIP3    H227639   3.646   5.296   1.763  1.1319 -0.4030 -0.0046
 2050TIP3   OH227640   2.454   2.218   6.242  0.4018 -0.7214  0.0139
 2050TIP3    H127641   2.452   2.309   6.272  1.8910 -0.6864  0.0783
 2050TIP3    H227642   2.546   2.202   6.221  0.1209 -2.1505 -0.2083
 2051TIP3   OH227643   2.380   6.779   1.018  0.1246  0.4731 -0.2250
 2051TIP3    H127644   2.355   6.854   1.071 -1.7197 -0.5094  0.3718
 2051TIP3    H227645   2.450   6.737   1.067  0.8291  1.5057 -0.3256
 2052TIP3   OH227646   6.039   1.772  12.684  0.0053 -0.6319 -0.0738
 2052TIP3    H127647   6.093   1.786  12.762  0.6117 -1.0098 -0.4241
 2052TIP3    H227648   5.977   1.845  12.685  0.5934 -0.1290  0.2645
 2053TIP3   OH227649   1.280   5.202  12.587  0.3580 -0.4301  0.0639
 2053TIP3    H127650   1.210   5.197  12.523  0.5418  0.3237 -0.2010
 2053TIP3    H227651   1.300   5.295  12.595  0.9636 -0.5889  0.5291
 2054TIP3   OH227652   3.787   4.911   5.914  0.5232  0.1141  0.0095
 2054TIP3    H127653   3.817   4.840   5.971  1.5336  1.9730  1.9694
 2054TIP3    H227654   3.798   4.990   5.967  0.0446  1.8199 -2.2751
 2055TIP3   OH227655   2.706   5.808   3.721 -0.9273  0.0246 -0.0181
 2055TIP3    H127656   2.767   5.877   3.696 -0.9402 -0.5503 -1.7314
 2055TIP3    H227657   2.755   5.727   3.711 -1.6923 -0.3883 -0.5442
 2056TIP3   OH227658   5.752   3.805  12.006  0.2172  0.4770  0.4844
 2056TIP3    H127659   5.726   3.810  12.098  1.0033  2.7612  0.6491
 2056TIP3    H227660   5.789   3.717  11.996 -3.6574 -1.4612  1.2194
 2057TIP3   OH227661   5.027   4.207   5.852 -0.2355 -0.3066 -0.1477
 2057TIP3    H127662   4.947   4.214   5.904 -0.4896 -0.8749 -0.4479
 2057TIP3    H227663   5.048   4.297   5.827 -1.6891 -0.2863 -1.4271
 2058TIP3   OH227664   4.180   4.034  14.204  0.1992  0.2248  0.7223
 2058TIP3    H127665   4.199   4.007  14.114 -0.1083  0.3228  0.6263
 2058TIP3    H227666   4.128   4.113  14.194  0.3335  0.3469  0.9906
 2059TIP3   OH227667   2.117   4.823   1.425 -0.2308 -0.3514  0.6946
 2059TIP3    H127668   2.095   4.911   1.395 -0.9463 -0.5543  0.6087
 2059TIP3    H227669   2.057   4.806   1.497  0.7321 -0.3004  1.5413
 2060TIP3   OH227670   4.418   5.029  13.296 -0.0324 -0.1913  0.3123
 2060TIP3    H127671   4.430   5.024  13.201  0.9484  1.2779  0.3111
 2060TIP3    H227672   4.507   5.022  13.332 -0.4293 -1.1645  1.1611
 2061TIP3   OH227673   2.562   6.651  11.233  0.3510  1.0111  0.3933
 2061TIP3    H127674   2.541   6.637  11.141  0.9133 -1.5070  0.5862
 2061TIP3    H227675   2.518   6.581  11.280  0.2131  2.1427  2.0605
 2062TIP3   OH227676   1.933   3.971  11.066  0.0380  0.2854 -0.3144
 2062TIP3    H127677   2.010   3.915  11.060 -0.6360 -0.5718 -1.1884
 2062TIP3    H227678   1.905   3.984  10.976 -0.5000  1.0912 -0.0509
 2063TIP3   OH227679   2.482   4.658  15.598  0.5091 -0.1352 -0.0378
 2063TIP3    H127680   2.432   4.596  15.651  1.2167 -1.5569 -0.9554
 2063TIP3    H227681   2.425   4.734  15.590  0.3584  0.1209  2.6593
 2064TIP3   OH227682   0.681   2.955  14.163 -0.2737  0.2677 -0.0143
 2064TIP3    H127683   0.696   2.892  14.093  0.3454  0.8663 -0.4313
 2064TIP3    H227684   0.733   2.923  14.236  1.5907  1.2829 -0.8309
 2065TIP3   OH227685   4.568   5.053   4.305  0.2309 -0.6204 -0.0199
 2065TIP3    H127686   4.558   5.068   4.211  0.6727  0.3631  0.0839
 2065TIP3    H227687   4.482   5.025   4.335  0.2613 -1.6518 -0.8378
 2066TIP3   OH227688   6.039   2.139  12.924  0.6736 -0.6795 -0.4383
 2066TIP3    H127689   6.028   2.217  12.869 -0.2571 -0.8786 -0.5396
 2066TIP3    H227690   6.124   2.103  12.897  1.7918  1.0440  0.5733
 2067TIP3   OH227691   2.049   3.700   2.077 -0.6193 -0.2324 -0.6339
 2067TIP3    H127692   1.969   3.744   2.106  0.3738  0.4028  1.2847
 2067TIP3    H227693   2.072   3.743   1.995 -1.6177  0.3598 -0.6203
 2068TIP3   OH227694   6.744   6.000   5.637  0.2228 -0.4062  0.1253
 2068TIP3    H127695   6.817   5.941   5.659  0.5062 -0.1917 -0.2255
 2068TIP3    H227696   6.672   5.942   5.615  0.6807 -0.6311 -0.8057
 2069TIP3   OH227697   1.640   3.432   2.054  0.4382 -0.2052  0.1543
 2069TIP3    H127698   1.684   3.467   2.132 -0.7223  1.6586  0.0422
 2069TIP3    H227699   1.589   3.358   2.087  0.9485 -0.2244  0.9205
 2070TIP3   OH227700   2.311   0.826  16.980 -0.4458 -0.2546 -0.1091
 2070TIP3    H127701   2.374   0.846  16.911 -0.6034 -2.0804 -0.8491
 2070TIP3    H227702   2.272   0.910  17.002  1.5975  0.7895 -0.2619
 2071TIP3   OH227703   3.340   1.045  15.611  0.5564  0.3143 -0.8976
 2071TIP3    H127704   3.341   1.118  15.672  2.7181 -0.8542  0.6004
 2071TIP3    H227705   3.302   0.972  15.660 -2.6655  0.5744 -2.7272
 2072TIP3   OH227706   2.282   2.727  13.703 -0.2843  0.2532 -0.2333
 2072TIP3    H127707   2.269   2.687  13.616 -2.5041  0.9064 -0.2424
 2072TIP3    H227708   2.227   2.675  13.762  0.6468  0.2759  0.6879
 2073TIP3   OH227709   6.780   2.712   0.743  0.5505  0.4562 -0.1643
 2073TIP3    H127710   6.769   2.781   0.677 -0.8794  2.3234  1.8788
 2073TIP3    H227711   6.706   2.653   0.727 -0.2225  1.3000  0.1729
 2074TIP3   OH227712   1.073   3.026   4.567 -0.8036  0.2833  0.4250
 2074TIP3    H127713   1.106   3.102   4.519  1.8548 -0.9061  0.1746
 2074TIP3    H227714   0.992   3.056   4.608  0.4039  3.4125  0.7988
 2075TIP3   OH227715   2.801   2.997  13.112 -0.4514  0.1534  0.2107
 2075TIP3    H127716   2.840   3.083  13.125  0.0066  0.1963 -1.2849
 2075TIP3    H227717   2.736   3.010  13.043  0.1302 -0.8299 -0.5484
 2076TIP3   OH227718   2.226   4.007   0.652  0.5110 -0.0365  0.2758
 2076TIP3    H127719   2.230   3.944   0.580  0.4302 -0.1143  0.3378
 2076TIP3    H227720   2.195   4.088   0.612  0.3696 -0.1069  0.2409
 2077TIP3   OH227721   6.351   6.341   0.083  0.6013  0.4383 -0.7937
 2077TIP3    H127722   6.375   6.339   0.176  0.3717  0.6648 -0.7310
 2077TIP3    H227723   6.348   6.249   0.057 -0.9505  0.2821 -0.1640
 2078TIP3   OH227724   3.872   3.262   4.522  0.1607  0.1381 -0.1326
 2078TIP3    H127725   3.855   3.213   4.602 -0.1199  0.3922 -0.0340
 2078TIP3    H227726   3.794   3.250   4.469  0.4655 -0.2757 -0.5017
 2079TIP3   OH227727   6.400   6.692  11.686  0.4983 -0.0677  0.5013
 2079TIP3    H127728   6.365   6.623  11.742  0.5414 -1.7930 -1.4728
 2079TIP3    H227729   6.337   6.764  11.694 -1.0972 -1.3917  0.5023
 2080TIP3   OH227730   1.877   2.181  11.970  0.1134  0.2075 -0.7923
 2080TIP3    H127731   1.956   2.185  11.915  0.3136  0.1536 -0.5142
 2080TIP3    H227732   1.858   2.087  11.977  2.5741 -0.2449  2.6704
 2081TIP3   OH227733   3.019   0.109  14.872 -0.3249  0.1811 -0.0811
 2081TIP3    H127734   3.092   0.068  14.825  0.3213  0.8962  0.2859
 2081TIP3    H227735   3.046   0.200  14.884 -0.9986  0.2987  0.6220
 2082TIP3   OH227736   1.617   5.042   4.073 -0.6415 -0.5625  0.2449
 2082TIP3    H127737   1.613   4.956   4.115  1.8265 -1.1912 -0.5930
 2082TIP3    H227738   1.679   5.091   4.127  3.1129 -1.6004 -2.6768
 2083TIP3   OH227739   1.509   0.594  11.350 -0.1724 -0.3854  0.8745
 2083TIP3    H127740   1.469   0.597  11.437 -0.1166  1.4785  0.8732
 2083TIP3    H227741   1.478   0.673  11.307 -0.2056 -1.2753 -0.8297
 2084TIP3   OH227742   6.703   0.730  15.055  0.5240  0.2666  0.1079
 2084TIP3    H127743   6.663   0.651  15.018 -0.8329  1.6433 -1.5121
 2084TIP3    H227744   6.648   0.752  15.130  1.3562 -0.7188  1.0325
 2085TIP3   OH227745   4.669   3.729  14.611  0.0165 -0.3703  0.2011
 2085TIP3    H127746   4.601   3.665  14.634 -1.2888  0.6805 -0.6104
 2085TIP3    H227747   4.637   3.770  14.531  1.9557 -0.3088 -0.6037
 2086TIP3   OH227748   2.124   3.480   2.176 -0.2675  0.0742  0.1881
 2086TIP3    H127749   2.199   3.461   2.120 -0.3617 -1.9598  0.6799
 2086TIP3    H227750   2.073   3.544   2.127 -0.0597 -1.2083 -1.8396
 2087TIP3   OH227751   4.496   5.274  11.526 -0.9112  0.0322 -0.2951
 2087TIP3    H127752   4.558   5.310  11.463  0.2343 -0.7290  0.3751
 2087TIP3    H227753   4.453   5.351  11.564  1.2008  0.7363  0.8112
 2088TIP3   OH227754   5.511   5.870  15.295 -0.0079 -0.3562 -0.1198
 2088TIP3    H127755   5.570   5.802  15.328 -0.1312 -0.1428  0.5472
 2088TIP3    H227756   5.565   5.949  15.295 -0.1466 -0.2623  0.0153
 2089TIP3   OH227757   4.039   3.823  13.639  0.2145 -0.5483 -0.1956
 2089TIP3    H127758   3.963   3.816  13.698 -0.4568 -2.2991 -1.1905
 2089TIP3    H227759   4.002   3.833  13.552  1.1729  0.3600 -0.5177
 2090TIP3   OH227760   2.346   1.752   1.827  0.1383  0.1564  0.8011
 2090TIP3    H127761   2.304   1.836   1.809 -0.5744 -0.3695 -0.0979
 2090TIP3    H227762   2.428   1.755   1.777 -0.4705 -0.1514 -0.2559
 2091TIP3   OH227763   2.140   2.283  13.596 -0.3576  0.0577  0.3322
 2091TIP3    H127764   2.108   2.199  13.563 -1.7430  0.9214 -0.6623
 2091TIP3    H227765   2.081   2.348  13.557  0.2270  1.4428  1.6407
 2092TIP3   OH227766   1.615   3.042  15.765 -0.3877 -1.0492 -0.1673
 2092TIP3    H127767   1.710   3.056  15.768 -0.1739 -2.2576 -0.6209
 2092TIP3    H227768   1.599   3.006  15.678 -1.4736  0.4011 -0.6127
 2093TIP3   OH227769   3.725   1.323  11.505 -0.3919 -0.3141 -0.1860
 2093TIP3    H127770   3.658   1.390  11.496 -0.7491 -0.7332 -0.8016
 2093TIP3    H227771   3.675   1.241  11.512 -0.0336 -0.3740  2.5114
 2094TIP3   OH227772   1.430   5.956  12.357 -0.0797 -0.4263 -0.3211
 2094TIP3    H127773   1.337   5.937  12.364 -0.8519  2.8940  0.2584
 2094TIP3    H227774   1.459   5.968  12.448  0.0632  1.6776 -0.5917
 2095TIP3   OH227775   2.355   1.342  13.375  0.7855  0.6739  0.2842
 2095TIP3    H127776   2.416   1.387  13.316  0.2018  0.8237 -0.2219
 2095TIP3    H227777   2.405   1.268  13.409  0.7901 -0.1250 -1.3359
 2096TIP3   OH227778   0.327   4.306   5.358  0.0529 -0.3147 -0.1425
 2096TIP3    H127779   0.307   4.394   5.390  0.3858 -0.0930 -0.5447
 2096TIP3    H227780   0.241   4.264   5.348 -0.1941  0.4157 -1.2196
 2097TIP3   OH227781   3.010   0.305   3.199  0.5390 -0.5302  0.2469
 2097TIP3    H127782   2.954   0.363   3.148  1.2241  2.3248  2.4696
 2097TIP3    H227783   3.068   0.264   3.135  0.2590  1.5402 -1.4321
 2098TIP3   OH227784   1.273   5.283  13.586 -0.2814 -0.3108  0.4081
 2098TIP3    H127785   1.313   5.335  13.516  0.4759  0.0488  1.0917
 2098TIP3    H227786   1.199   5.239  13.544 -1.0234  1.4001 -0.1922
 2099TIP3   OH227787   4.684   6.184   2.983  0.2185 -0.2241 -0.6265
 2099TIP3    H127788   4.649   6.244   3.049 -2.5869 -1.7810 -0.5356
 2099TIP3    H227789   4.757   6.232   2.943 -0.4450  2.3014  0.9607
 2100TIP3   OH227790   4.521   5.073  13.554 -0.2256 -0.5046  0.4528
 2100TIP3    H127791   4.494   4.981  13.551  1.1365 -0.9391  0.5890
 2100TIP3    H227792   4.440   5.122  13.568 -0.9322 -1.7045  0.6928
 2101TIP3   OH227793   6.586   4.408   2.774  0.6306  0.1632 -0.0446
 2101TIP3    H127794   6.538   4.331   2.804  0.4993  0.5771  0.8266
 2101TIP3    H227795   6.630   4.441   2.852  0.0814  1.4031 -0.2316
 2102TIP3   OH227796   4.840   5.384  11.529  0.0504 -0.4688  0.0411
 2102TIP3    H127797   4.916   5.434  11.556  0.3025 -1.0830  0.4872
 2102TIP3    H227798   4.868   5.340  11.448 -0.2248  0.2279 -0.4396
 2103TIP3   OH227799   4.146   0.531  12.587 -0.4037  0.1586  0.0755
 2103TIP3    H127800   4.071   0.584  12.558 -0.4823  1.6199  2.5798
 2103TIP3    H227801   4.106   0.453  12.626 -1.0163  1.9464  3.5070
 2104TIP3   OH227802   4.742   1.933   3.216 -0.1593 -0.3331  0.0486
 2104TIP3    H127803   4.733   1.988   3.139  2.2581  0.3637  0.1927
 2104TIP3    H227804   4.725   1.992   3.290 -0.2335 -0.4325  0.1106
 2105TIP3   OH227805   4.848   0.468  14.894  0.3406  0.0816  0.3927
 2105TIP3    H127806   4.830   0.433  14.807 -0.1765  0.3223  0.3991
 2105TIP3    H227807   4.764   0.466  14.939  0.5160  0.3529  0.7433
 2106TIP3   OH227808   5.384   0.391  17.098 -0.0281 -0.1413 -0.3660
 2106TIP3    H127809   5.409   0.381  17.006 -1.3487 -0.7150 -0.6891
 2106TIP3    H227810   5.293   0.361  17.101  0.3673 -1.3144  1.3571
 2107TIP3   OH227811   1.412   6.760  16.852  0.0129 -0.5794 -0.3059
 2107TIP3    H127812   1.427   6.839  16.904  1.2291  0.2971 -1.8583
 2107TIP3    H227813   1.318   6.758  16.836 -0.6267 -1.6473  2.9682
 2108TIP3   OH227814   0.669   4.527   4.178  0.3355  0.6694 -0.3956
 2108TIP3    H127815   0.651   4.517   4.272  0.9550 -1.9200 -0.4719
 2108TIP3    H227816   0.696   4.618   4.168 -3.8495  2.3432  1.1712
 2109TIP3   OH227817   4.460   6.677  14.511  0.7711  0.2231 -0.0239
 2109TIP3    H127818   4.492   6.709  14.595  1.6893 -2.0667  0.5769
 2109TIP3    H227819   4.482   6.584  14.511 -0.6693 -0.1845 -2.1279
 2110TIP3   OH227820   4.722   6.507  16.557  0.0500 -0.3405 -0.2807
 2110TIP3    H127821   4.743   6.450  16.483 -1.2546  0.1233 -1.0352
 2110TIP3    H227822   4.653   6.461  16.605  0.5250 -0.3983  0.3601
 2111TIP3   OH227823   1.852   3.207   3.813  0.1965 -0.0227  0.0516
 2111TIP3    H127824   1.939   3.232   3.845  0.7565 -0.5548 -0.9938
 2111TIP3    H227825   1.860   3.212   3.718 -1.2269  0.8909 -0.0405
 2112TIP3   OH227826   1.974   6.308  13.887  0.4185  0.2110 -0.0236
 2112TIP3    H127827   1.917   6.379  13.855  1.0449  0.7349  0.0062
 2112TIP3    H227828   2.033   6.351  13.948  1.7476 -0.0426 -1.0811
 2113TIP3   OH227829   4.734   2.890  16.844 -0.2593 -0.4592  0.0636
 2113TIP3    H127830   4.679   2.872  16.767  1.2238 -0.9719 -0.9337
 2113TIP3    H227831   4.823   2.872  16.814  0.5318  0.8570  1.4555
 2114TIP3   OH227832   1.681   2.970  13.975  0.1412 -0.5019  0.9904
 2114TIP3    H127833   1.721   3.046  14.016 -0.9285 -0.5572  2.2063
 2114TIP3    H227834   1.623   3.006  13.909  0.8320 -0.3448  0.4621
 2115TIP3   OH227835   5.486   2.077   0.369 -0.0462 -0.2743  0.3492
 2115TIP3    H127836   5.544   2.152   0.356  2.0870 -1.4352  2.3964
 2115TIP3    H227837   5.410   2.114   0.415  1.4431  0.5713  2.3282
 2116TIP3   OH227838   6.167   3.201  12.865  0.3654  0.0238  0.1153
 2116TIP3    H127839   6.147   3.202  12.771 -1.8577 -4.3003  0.2650
 2116TIP3    H227840   6.249   3.152  12.871 -0.7822 -2.0083  0.3763
 2117TIP3   OH227841   6.290   2.360  13.084  0.5583 -0.8180 -0.5328
 2117TIP3    H127842   6.251   2.396  13.004 -1.1402 -1.2116  0.0746
 2117TIP3    H227843   6.368   2.315  13.054  0.7887  0.3271 -1.7678
 2118TIP3   OH227844   0.290   0.623  13.151 -1.1037 -0.0010  0.0034
 2118TIP3    H127845   0.196   0.624  13.169 -1.1277  0.4019 -0.1333
 2118TIP3    H227846   0.298   0.658  13.062 -0.9933 -1.9983 -0.8205
 2119TIP3   OH227847   3.565   2.392  12.820 -0.3032  0.2235  0.2294
 2119TIP3    H127848   3.644   2.350  12.853  0.0051  1.3130  0.9175
 2119TIP3    H227849   3.536   2.336  12.748  1.3038  0.0143 -0.2907
 2120TIP3   OH227850   4.908   0.470  13.129 -0.0475  0.4741 -0.1321
 2120TIP3    H127851   4.986   0.417  13.144 -0.7973 -0.6503 -0.0094
 2120TIP3    H227852   4.895   0.517  13.212 -0.6983 -1.0072  0.6582
 2121TIP3   OH227853   4.908   4.189  15.653 -0.4693 -0.2062 -0.0625
 2121TIP3    H127854   4.970   4.130  15.697 -1.3319  0.0220  1.5179
 2121TIP3    H227855   4.934   4.186  15.561  2.0472  0.0637  0.5666
 2122TIP3   OH227856   1.216   6.413  15.727  0.7899  0.3107  0.0522
 2122TIP3    H127857   1.243   6.465  15.803 -1.7940  2.3265 -0.2724
 2122TIP3    H227858   1.198   6.478  15.659  1.6549 -1.3573 -1.8712
 2123TIP3   OH227859   3.837   5.168   2.899 -0.3483 -0.2565  0.3737
 2123TIP3    H127860   3.901   5.111   2.855 -0.5579 -1.0999  1.1367
 2123TIP3    H227861   3.886   5.247   2.921  0.0136 -0.2353 -0.4780
 2124TIP3   OH227862   2.063   0.594  10.665  0.1893  0.5884 -0.5780
 2124TIP3    H127863   2.004   0.652  10.617  0.0938  1.5103  0.5837
 2124TIP3    H227864   2.020   0.582  10.750  0.0064 -1.5670 -0.9328
 2125TIP3   OH227865   6.554   1.340   0.922  0.0506 -0.7282  0.0588
 2125TIP3    H127866   6.623   1.407   0.925 -0.6104  0.0311 -1.0930
 2125TIP3    H227867   6.568   1.293   0.840  0.0386 -1.5018  0.4922
 2126TIP3   OH227868   1.202   0.734  15.945  0.2014  0.2803 -0.9220
 2126TIP3    H127869   1.281   0.772  15.985  0.6026 -0.0464 -1.3945
 2126TIP3    H227870   1.154   0.809  15.910  1.0898  0.3612 -2.0259
 2127TIP3   OH227871   5.513   3.212   0.936  0.2327  0.4912 -0.2366
 2127TIP3    H127872   5.481   3.245   1.020 -1.6387 -0.1240 -0.6540
 2127TIP3    H227873   5.433   3.200   0.884  1.2027 -0.8442 -1.4681
 2128TIP3   OH227874   0.342   6.687   2.173 -0.1602 -0.1084  0.1108
 2128TIP3    H127875   0.326   6.735   2.254 -0.6084  0.3564 -0.2475
 2128TIP3    H227876   0.359   6.755   2.108 -0.4641 -0.4447 -0.3265
 2129TIP3   OH227877   3.399   6.347  13.852 -0.3241 -0.2945 -0.3584
 2129TIP3    H127878   3.344   6.283  13.807 -0.5424 -0.5939  0.3267
 2129TIP3    H227879   3.453   6.295  13.911  1.6014 -0.1527 -1.8829
 2130TIP3   OH227880   4.445   4.442  12.672 -0.1694  0.5896 -0.5612
 2130TIP3    H127881   4.367   4.486  12.706  0.0059  0.7713 -0.3943
 2130TIP3    H227882   4.414   4.355  12.647 -0.4619  0.7176 -0.6528
 2131TIP3   OH227883   5.337   4.752  11.994 -0.1810 -0.1128 -0.1924
 2131TIP3    H127884   5.284   4.765  12.073 -0.7675  1.3105 -0.7790
 2131TIP3    H227885   5.424   4.783  12.018 -0.1633 -0.4101  0.1294
 2132TIP3   OH227886   1.662   3.029   1.783  0.5258  0.0907 -0.1559
 2132TIP3    H127887   1.750   3.046   1.748  1.2272  0.5472  1.7008
 2132TIP3    H227888   1.611   3.106   1.757  0.2122 -0.8190 -2.4915
 2133TIP3   OH227889   4.899   4.873  15.351 -0.3064  0.3054  0.2425
 2133TIP3    H127890   4.911   4.966  15.331  0.5881 -0.0844 -1.1751
 2133TIP3    H227891   4.806   4.864  15.368 -0.7940  1.1032 -1.7394
 2134TIP3   OH227892   5.444   5.614   1.721 -0.1450  0.0449 -0.1790
 2134TIP3    H127893   5.528   5.572   1.739 -0.4516 -0.5916 -0.2201
 2134TIP3    H227894   5.445   5.631   1.626 -0.0996 -0.0377 -0.1930
 2135TIP3   OH227895   1.604   1.941  13.366  0.2280  0.9554 -0.0289
 2135TIP3    H127896   1.683   1.887  13.364  0.6016  1.4906  0.1576
 2135TIP3    H227897   1.555   1.916  13.287  1.7192  2.3145 -1.4653
 2136TIP3   OH227898   1.843   0.335   6.522 -0.3568  0.0761  0.2020
 2136TIP3    H127899   1.892   0.268   6.570  0.0554  0.0303 -0.2693
 2136TIP3    H227900   1.753   0.305   6.523 -0.4840  0.4275  1.5462
 2137TIP3   OH227901   6.305   0.288   1.560 -0.6345  0.2245 -0.0136
 2137TIP3    H127902   6.346   0.208   1.526  0.0139  0.7188 -0.4067
 2137TIP3    H227903   6.371   0.356   1.550 -0.1307  0.2965  2.8244
 2138TIP3   OH227904   4.313   0.299  10.614 -0.1799  0.4974  0.3484
 2138TIP3    H127905   4.392   0.279  10.663  0.0274 -0.3986 -0.3350
 2138TIP3    H227906   4.337   0.284  10.523 -0.9771  0.7475  0.0905
 2139TIP3   OH227907   4.910   5.130  16.158 -0.5125 -0.3029 -0.4936
 2139TIP3    H127908   4.957   5.087  16.229 -0.7199 -0.0075 -0.1763
 2139TIP3    H227909   4.836   5.173  16.200  0.7884  2.0934 -0.4712
 2140TIP3   OH227910   1.382   5.877   4.115 -0.0428 -0.0228  0.4576
 2140TIP3    H127911   1.455   5.830   4.155  0.1728  0.8982  1.2141
 2140TIP3    H227912   1.306   5.852   4.167 -0.5250 -1.9098 -1.0704
 2141TIP3   OH227913   3.138   6.108   2.498  0.6118  0.0892 -0.0461
 2141TIP3    H127914   3.063   6.106   2.557 -0.4933  2.1778 -1.3018
 2141TIP3    H227915   3.202   6.164   2.543  0.6525 -0.0780  0.1109
 2142TIP3   OH227916   5.569   5.105   5.433  0.0785 -0.3103  0.5601
 2142TIP3    H127917   5.649   5.073   5.475 -0.6492 -1.1541  1.3498
 2142TIP3    H227918   5.530   5.028   5.392  0.1103  0.2623 -0.5804
 2143TIP3   OH227919   2.319   2.851  10.590  0.7721 -0.6719 -0.0193
 2143TIP3    H127920   2.412   2.863  10.575  0.4901  1.2014 -0.5844
 2143TIP3    H227921   2.312   2.766  10.632  2.3989 -2.4430 -3.0329
 2144TIP3   OH227922   4.316   2.403  16.297  0.5669 -0.4511  0.6224
 2144TIP3    H127923   4.289   2.412  16.205 -0.3306 -3.0164  0.5537
 2144TIP3    H227924   4.256   2.460  16.345  1.3301  1.2797 -0.3615
 2145TIP3   OH227925   0.989   4.497   0.460 -0.8962 -0.5538  0.1025
 2145TIP3    H127926   1.075   4.484   0.418 -1.3846 -0.6169 -0.9231
 2145TIP3    H227927   0.988   4.436   0.533  0.4796  0.4189  1.0049
 2146TIP3   OH227928   0.038   2.998   6.585 -0.1105  0.4217 -0.3527
 2146TIP3    H127929   0.030   3.042   6.500  0.1435  0.8877 -0.1383
 2146TIP3    H227930   0.121   2.951   6.580 -1.0109 -1.1915 -1.0987
 2147TIP3   OH227931   6.466   5.747  14.514  0.5152  0.3979  0.0339
 2147TIP3    H127932   6.388   5.795  14.485  0.2023 -0.1922 -0.1205
 2147TIP3    H227933   6.448   5.656  14.492  1.0404  0.1833  0.4587
 2148TIP3   OH227934   1.339   2.631  13.693 -0.0961  0.0088  0.2669
 2148TIP3    H127935   1.352   2.538  13.670 -0.3397  0.1547 -0.5019
 2148TIP3    H227936   1.422   2.659  13.730 -0.5234 -0.9563  2.1044
 2149TIP3   OH227937   3.689   6.106   5.373  0.6683  0.3825  0.1815
 2149TIP3    H127938   3.617   6.045   5.386  0.6641  0.1393 -0.8972
 2149TIP3    H227939   3.725   6.120   5.460 -0.0887 -0.2240  0.5997
 2150TIP3   OH227940   3.312   0.847   1.316  0.0749  0.2419 -0.3530
 2150TIP3    H127941   3.263   0.920   1.355  0.9812  0.5524  0.2346
 2150TIP3    H227942   3.252   0.773   1.322 -0.0925  0.4555  0.9847
 2151TIP3   OH227943   6.000   2.580  16.019  0.3952  0.0917  0.4669
 2151TIP3    H127944   5.976   2.640  16.090  0.9841  1.9894 -0.8531
 2151TIP3    H227945   6.093   2.597  16.005  0.1217  0.3169 -1.2448
 2152TIP3   OH227946   5.765   1.303   3.810  0.4644  0.0058  0.8379
 2152TIP3    H127947   5.798   1.366   3.746 -2.8625  2.8849  1.6304
 2152TIP3    H227948   5.730   1.231   3.757 -0.5156  1.4334 -0.5368
 2153TIP3   OH227949   3.517   2.614  12.425  0.1601  0.7639  0.4006
 2153TIP3    H127950   3.425   2.587  12.421  0.3272  0.1571  0.6539
 2153TIP3    H227951   3.522   2.667  12.505 -0.1400  1.4922 -0.0414
 2154TIP3   OH227952   2.911   2.216  11.645  0.1388  0.0318  0.4325
 2154TIP3    H127953   3.001   2.233  11.619  0.7102 -1.6760  1.1996
 2154TIP3    H227954   2.917   2.174  11.731 -1.3998  0.1702  0.6387
 2155TIP3   OH227955   4.899   1.408   1.299  0.3254 -0.2862  0.2846
 2155TIP3    H127956   4.868   1.344   1.235 -0.7128 -1.0805  1.5399
 2155TIP3    H227957   4.859   1.491   1.272 -0.0809 -0.6064 -0.1031
 2156TIP3   OH227958   3.223   4.320  10.986  0.0865 -0.3471 -0.0192
 2156TIP3    H127959   3.179   4.381  11.045  0.6619  0.9568 -0.8921
 2156TIP3    H227960   3.287   4.275  11.041 -0.8492 -0.7186  0.7952
 2157TIP3   OH227961   5.991   1.501  16.876 -0.1492 -0.5519 -0.4003
 2157TIP3    H127962   5.997   1.558  16.952  0.7083 -2.1579  0.8059
 2157TIP3    H227963   6.047   1.426  16.898 -2.7758 -2.8616 -0.9339
 2158TIP3   OH227964   4.222   5.339  12.453  0.0432 -0.4240 -0.5056
 2158TIP3    H127965   4.253   5.403  12.517 -0.7188 -1.3049  0.7957
 2158TIP3    H227966   4.302   5.302  12.415  0.5596 -1.0182  1.0994
 2159TIP3   OH227967   0.264   0.031   2.389  0.2639 -0.4390 -0.3441
 2159TIP3    H127968   0.200   0.012   2.457  0.0819 -2.4466 -1.0080
 2159TIP3    H227969   0.343   0.058   2.436 -0.0264 -1.2447  0.6299
 2160TIP3   OH227970   0.346   4.013  14.561  0.0829 -0.1727 -0.1828
 2160TIP3    H127971   0.435   4.018  14.595  0.2505 -2.8440 -0.0542
 2160TIP3    H227972   0.292   4.056  14.628  1.1477  0.7400  0.1186
 2161TIP3   OH227973   1.998   6.639  15.179  0.1388 -0.6655 -0.2984
 2161TIP3    H127974   2.059   6.574  15.143  0.6875  0.3530 -1.2596
 2161TIP3    H227975   1.939   6.660  15.107  1.1940  1.3350 -0.6501
 2162TIP3   OH227976   2.857   3.209   1.355  0.8608  0.4626  0.3891
 2162TIP3    H127977   2.935   3.258   1.331  1.1716 -0.8494 -1.4978
 2162TIP3    H227978   2.881   3.163   1.435  2.6411 -1.0896 -0.9310
 2163TIP3   OH227979   0.442   2.533  16.317 -0.6835  0.2511  0.4142
 2163TIP3    H127980   0.429   2.553  16.410  3.7860 -1.5344  1.7071
 2163TIP3    H227981   0.495   2.605  16.284 -0.9961  0.1318 -0.3802
 2164TIP3   OH227982   4.753   1.197   3.655  0.0299  0.0320 -0.4346
 2164TIP3    H127983   4.799   1.200   3.738 -0.5383  0.9878 -0.1470
 2164TIP3    H227984   4.665   1.166   3.677 -0.1993  0.5330 -0.6426
 2165TIP3   OH227985   1.455   5.603  15.418 -0.1732  0.6961 -0.1740
 2165TIP3    H127986   1.535   5.571  15.375 -1.0005  0.0546 -1.2984
 2165TIP3    H227987   1.389   5.601  15.349 -0.7252  3.0868  0.1947
 2166TIP3   OH227988   2.238   3.851   4.768  0.6080 -0.7752 -0.6213
 2166TIP3    H127989   2.162   3.878   4.717  2.0138  0.5176 -2.1077
 2166TIP3    H227990   2.226   3.756   4.781 -1.0758 -0.6531 -1.0576
 2167TIP3   OH227991   6.223   4.350   0.862  0.2950 -0.0481  0.6919
 2167TIP3    H127992   6.212   4.445   0.851 -0.3732 -0.2046 -0.1135
 2167TIP3    H227993   6.265   4.322   0.781  0.1374 -0.4956  0.7669
 2168TIP3   OH227994   0.052   4.429   2.783  0.0907 -0.2636  0.2897
 2168TIP3    H127995   0.020   4.519   2.780  0.1747 -0.2299 -2.5435
 2168TIP3    H227996   0.142   4.434   2.749  0.6928 -1.2434  1.6233
 2169TIP3   OH227997   0.406   4.212   2.789 -0.4072 -0.4352 -0.4476
 2169TIP3    H127998   0.461   4.140   2.757  1.1462  0.4657  0.0756
 2169TIP3    H227999   0.319   4.193   2.755  0.3019 -1.7298 -1.6359
 2170TIP3   OH228000   0.298   2.620  11.290  0.7757  0.7267  0.1112
 2170TIP3    H128001   0.359   2.558  11.331  0.5643  0.6079  0.2488
 2170TIP3    H228002   0.352   2.669  11.228  1.3350  1.6168  1.2596
 2171TIP3   OH228003   2.792   3.494   2.421 -0.2190 -0.0282  0.2249
 2171TIP3    H128004   2.847   3.563   2.385 -0.2065  0.4603  1.1654
 2171TIP3    H228005   2.764   3.527   2.506  1.3246 -1.9304  1.5706
 2172TIP3   OH228006   4.924   4.706   0.787 -0.6105  0.2936  0.1512
 2172TIP3    H128007   4.885   4.788   0.757 -0.4234 -0.4952 -2.5280
 2172TIP3    H228008   5.000   4.733   0.837 -0.5909  1.7793 -0.6103
 2173TIP3   OH228009   0.902   5.774  10.866 -0.2016 -0.2986  0.3873
 2173TIP3    H128010   0.970   5.739  10.808 -1.7854 -1.5508 -0.7697
 2173TIP3    H228011   0.865   5.848  10.818 -0.5418 -0.4306  0.4466
 2174TIP3   OH228012   2.308   4.468  11.144  0.2100 -0.3327 -0.1088
 2174TIP3    H128013   2.293   4.399  11.079 -1.4943 -0.9009  0.8213
 2174TIP3    H228014   2.315   4.549  11.094 -0.5401 -0.8318 -1.0281
 2175TIP3   OH228015   6.465   2.375   4.583  0.1955 -0.5019  0.0008
 2175TIP3    H128016   6.444   2.319   4.509 -0.5482 -0.4005  0.1241
 2175TIP3    H228017   6.394   2.360   4.645 -0.7910  1.5741 -0.5323
 2176TIP3   OH228018   6.346   0.497   2.783 -0.5818 -0.2079 -0.0533
 2176TIP3    H128019   6.330   0.567   2.846 -2.0132 -0.5329 -0.0154
 2176TIP3    H228020   6.263   0.487   2.736 -0.0882 -1.1788 -0.7686
 2177TIP3   OH228021   6.455   3.060   4.612 -0.0078 -0.0602  0.2154
 2177TIP3    H128022   6.480   3.153   4.604  1.2830 -0.3002  1.0969
 2177TIP3    H228023   6.539   3.013   4.608 -0.6295 -1.1807  0.0274
 2178TIP3   OH228024   5.192   6.753   0.739 -0.4852 -0.0513  0.2535
 2178TIP3    H128025   5.174   6.783   0.650 -0.1814  1.6968  0.7380
 2178TIP3    H228026   5.123   6.690   0.757 -1.5916  0.8461 -0.6212
 2179TIP3   OH228027   0.328   5.474   3.007 -0.5758  0.1811  0.5908
 2179TIP3    H128028   0.384   5.403   3.041 -1.9399 -0.0774  2.4465
 2179TIP3    H228029   0.359   5.487   2.918  1.2569 -1.1654  0.9525
 2180TIP3   OH228030   1.275   0.229  11.250  0.3088  0.0278  0.7960
 2180TIP3    H128031   1.350   0.265  11.298  0.7484  0.0888  0.0854
 2180TIP3    H228032   1.305   0.143  11.221 -0.1272 -0.2080  1.0464
 2181TIP3   OH228033   5.898   5.529   4.970 -0.0049  0.0882 -0.5444
 2181TIP3    H128034   5.873   5.609   5.016 -0.5574 -1.5815  2.2808
 2181TIP3    H228035   5.833   5.521   4.900 -0.4109  1.7033 -0.3971
 2182TIP3   OH228036   2.543   0.205  14.580 -1.0027 -0.0033  0.3797
 2182TIP3    H128037   2.633   0.227  14.557 -1.3677  0.0777 -1.0154
 2182TIP3    H228038   2.514   0.145  14.511 -2.1987  0.3983  0.5024
 2183TIP3   OH228039   2.483   3.531  12.758  0.5967 -0.1577  0.0179
 2183TIP3    H128040   2.399   3.494  12.786  0.0855  0.4167 -0.7034
 2183TIP3    H228041   2.547   3.464  12.780 -0.1743 -1.0229 -0.2960
 2184TIP3   OH228042   1.483   3.853  13.648  0.1487  0.4432  0.6426
 2184TIP3    H128043   1.401   3.887  13.615  0.3758 -0.2363 -0.6769
 2184TIP3    H228044   1.536   3.835  13.570  1.6332  1.0411  1.4570
 2185TIP3   OH228045   1.541   1.701   5.414 -0.3122 -0.2917 -0.8825
 2185TIP3    H128046   1.466   1.646   5.391  1.2658 -2.2084 -1.7178
 2185TIP3    H228047   1.557   1.755   5.337 -0.0617 -0.8116 -1.1993
 2186TIP3   OH228048   3.623   6.782   1.935 -0.3870 -0.3955  0.1852
 2186TIP3    H128049   3.654   6.692   1.922  1.1442 -0.0863  1.4684
 2186TIP3    H228050   3.570   6.778   2.014 -1.7604 -0.4710 -0.7139
 2187TIP3   OH228051   2.163   0.469  13.428 -0.5035  0.1497 -0.1113
 2187TIP3    H128052   2.166   0.555  13.386 -0.2858  0.2808  0.1688
 2187TIP3    H228053   2.085   0.427  13.391 -0.4994  0.3889 -0.3979
 2188TIP3   OH228054   0.009   0.291   2.619  0.2993  0.3163  0.0566
 2188TIP3    H128055   0.076   0.233   2.655  1.9586  2.2111  0.1839
 2188TIP3    H228056   0.048   0.327   2.539 -0.5400  1.4921  0.1395
 2189TIP3   OH228057   2.376   1.952  15.451 -0.6350 -0.1708  0.1131
 2189TIP3    H128058   2.363   2.046  15.437  1.9849  0.3247  0.4361
 2189TIP3    H228059   2.405   1.946  15.542  0.3835 -1.1518 -0.2604
 2190TIP3   OH228060   2.020   3.897  13.283  0.1092  0.9875 -0.0316
 2190TIP3    H128061   2.067   3.980  13.278  0.8119  0.5472 -1.2793
 2190TIP3    H228062   1.971   3.893  13.201  1.5311 -0.6328 -0.8607
 2191TIP3   OH228063   4.887   3.835   6.416  0.3116  0.1511 -0.2603
 2191TIP3    H128064   4.952   3.765   6.416 -0.0465 -0.1890 -0.9884
 2191TIP3    H228065   4.922   3.900   6.476 -0.1625 -1.3994  1.8350
 2192TIP3   OH228066   0.199   3.034   5.438  0.4167  0.1379  0.4010
 2192TIP3    H128067   0.217   3.124   5.408 -0.5463  0.1973 -0.0619
 2192TIP3    H228068   0.145   3.046   5.516 -1.0333 -0.0150 -0.5400
 2193TIP3   OH228069   3.715   3.683   4.443  0.6383 -0.3285  0.1243
 2193TIP3    H128070   3.671   3.697   4.527  1.1258 -0.3533  0.3879
 2193TIP3    H228071   3.796   3.637   4.466 -0.7341 -3.4110 -0.6387
 2194TIP3   OH228072   1.873   3.121  14.300 -0.2414  0.2515  0.0216
 2194TIP3    H128073   1.931   3.197  14.303 -1.3072  1.0602  1.2646
 2194TIP3    H228074   1.911   3.060  14.364 -0.6612  0.7332  0.7520
 2195TIP3   OH228075   2.607   1.281  16.438 -0.5476 -0.2816  0.4078
 2195TIP3    H128076   2.686   1.280  16.384 -0.6949 -1.2256  0.1978
 2195TIP3    H228077   2.601   1.371  16.470 -0.2173  0.1764 -0.7828
 2196TIP3   OH228078   3.692   2.811   1.676 -0.0995  0.6393 -0.1653
 2196TIP3    H128079   3.747   2.766   1.613  0.9841  0.1734  1.0802
 2196TIP3    H228080   3.646   2.877   1.624  0.8510  0.3623 -1.4095
 2197TIP3   OH228081   5.560   5.227  11.449 -0.2703  0.3738 -0.2696
 2197TIP3    H128082   5.479   5.259  11.410  0.3143  2.5938  0.2124
 2197TIP3    H228083   5.543   5.134  11.466 -2.7246  0.7709 -0.1572
 2198TIP3   OH228084   4.940   3.695   2.201 -0.0575 -0.2047  0.3251
 2198TIP3    H128085   4.879   3.729   2.135 -1.0626 -1.0141  0.8052
 2198TIP3    H228086   4.954   3.604   2.175  1.1920  0.0365  0.0716
 2199TIP3   OH228087   2.447   6.116  13.329  0.5007  0.5126  0.3124
 2199TIP3    H128088   2.445   6.127  13.234  3.9826 -0.1938  0.0099
 2199TIP3    H228089   2.410   6.030  13.345 -1.1281  1.0787 -0.2315
 2200TIP3   OH228090   0.020   1.173   4.579 -0.0083  0.2832  0.1577
 2200TIP3    H128091   0.074   1.195   4.502  0.2242  1.4556  0.6375
 2200TIP3    H228092   0.042   1.240   4.644 -0.6666 -0.3270  1.0330
 2201TIP3   OH228093   5.490   0.792  16.346 -0.0663  0.3407 -0.4929
 2201TIP3    H128094   5.519   0.853  16.414 -2.1190  0.4149  0.4056
 2201TIP3    H228095   5.444   0.847  16.283 -0.2294 -0.0368 -0.7028
 2202TIP3   OH228096   5.256   5.742  16.753  0.3256  0.1504  0.7737
 2202TIP3    H128097   5.179   5.724  16.699 -0.6872 -0.0926  2.2330
 2202TIP3    H228098   5.259   5.837  16.758  0.2676  0.1677  0.4902
 2203TIP3   OH228099   1.885   3.429  12.334 -1.1259 -0.0029  0.1861
 2203TIP3    H128100   1.937   3.500  12.296 -1.2872 -0.2509 -0.5017
 2203TIP3    H228101   1.815   3.474  12.382 -0.7650  0.3167  0.4211
 2204TIP3   OH228102   3.131   4.371  16.647 -0.5530 -0.4799 -0.5445
 2204TIP3    H128103   3.145   4.386  16.553 -1.6865 -3.4424 -1.2977
 2204TIP3    H228104   3.043   4.405  16.664 -0.4947 -0.2743 -0.6569
 2205TIP3   OH228105   2.203   0.212  14.000 -0.4065  0.1203  0.1516
 2205TIP3    H128106   2.182   0.304  14.008 -0.8003  0.1485 -0.9730
 2205TIP3    H228107   2.293   0.211  13.967 -1.3687  0.2226 -2.7376
 2206TIP3   OH228108   4.099   2.636   1.513  0.0235 -0.0038  0.2624
 2206TIP3    H128109   4.139   2.554   1.542 -0.8997 -0.3783  0.5167
 2206TIP3    H228110   4.138   2.703   1.570  0.6864 -0.2814  0.1378
 2207TIP3   OH228111   4.398   3.804   2.543 -0.0075  0.3440  0.4435
 2207TIP3    H128112   4.382   3.715   2.513 -1.4578  0.5649  0.4580
 2207TIP3    H228113   4.375   3.802   2.636  0.1242  0.6863  0.4839
 2208TIP3   OH228114   1.939   2.604   1.008 -0.2497  0.3533 -0.5700
 2208TIP3    H128115   1.960   2.628   0.918 -0.9724  0.7093 -0.6545
 2208TIP3    H228116   1.848   2.575   1.005 -1.0829  2.5772  0.4004
 2209TIP3   OH228117   0.138   0.116  15.864 -0.3019  0.1197 -0.3813
 2209TIP3    H128118   0.134   0.081  15.774 -0.8078  1.4909 -0.9219
 2209TIP3    H228119   0.224   0.089  15.896  0.5507  0.9140 -1.8624
 2210TIP3   OH228120   5.349   3.217   2.314 -0.2338  0.4203  0.1378
 2210TIP3    H128121   5.436   3.247   2.343 -1.4826  1.6861  2.9570
 2210TIP3    H228122   5.288   3.282   2.350 -2.4322 -0.8000 -1.1728
 2211TIP3   OH228123   2.844   5.226   0.039  0.1839  0.7127 -0.5760
 2211TIP3    H128124   2.816   5.261   0.123  0.3517 -1.1904  0.3078
 2211TIP3    H228125   2.936   5.205   0.051 -0.5770 -2.9741  0.0727
 2212TIP3   OH228126   3.026   1.620  13.256  0.3877 -0.0439  0.2482
 2212TIP3    H128127   2.975   1.655  13.183  0.5261 -0.3685 -0.0065
 2212TIP3    H228128   3.020   1.688  13.324  0.0698  0.1588  0.0224
 2213TIP3   OH228129   3.320   2.349  14.794  0.0978 -0.0711 -0.0604
 2213TIP3    H128130   3.292   2.318  14.881 -0.6780 -1.9975 -0.9421
 2213TIP3    H228131   3.333   2.444  14.806 -0.5545 -0.1810  2.0058
 2214TIP3   OH228132   5.591   6.236   4.238 -0.3574  0.3907  0.2838
 2214TIP3    H128133   5.519   6.221   4.177  0.6128 -0.8278 -0.5942
 2214TIP3    H228134   5.568   6.183   4.315 -2.1233  2.7708  1.5127
 2215TIP3   OH228135   0.325   4.722  11.138 -0.0847 -0.5421  0.2565
 2215TIP3    H128136   0.396   4.750  11.195 -0.3153  0.4875  0.0497
 2215TIP3    H228137   0.302   4.635  11.170  1.8750 -1.3042 -0.2405
 2216TIP3   OH228138   3.211   6.030  11.836 -0.6553 -0.0007  0.5699
 2216TIP3    H128139   3.273   6.000  11.904 -0.0214 -0.1197 -0.0497
 2216TIP3    H228140   3.224   5.969  11.763  0.0936  1.2878 -0.4088
 2217TIP3   OH228141   4.986   5.700   6.724 -0.5353  0.1345  0.2850
 2217TIP3    H128142   4.900   5.694   6.683  0.4574  3.1187 -2.7554
 2217TIP3    H228143   5.046   5.712   6.651  2.3035 -0.3243  2.3680
 2218TIP3   OH228144   5.549   1.758   6.064  0.1381 -0.2544  0.1053
 2218TIP3    H128145   5.626   1.816   6.063  1.1546 -1.4317  2.3363
 2218TIP3    H228146   5.479   1.812   6.101  0.8069 -0.1096  1.2125
 2219TIP3   OH228147   5.375   3.822   2.810  0.0338 -0.0503  0.4149
 2219TIP3    H128148   5.426   3.750   2.848  0.6887 -0.4780 -1.1897
 2219TIP3    H228149   5.402   3.824   2.718 -2.2443  0.2820 -0.2909
 2220TIP3   OH228150   1.153   2.835  12.335 -0.4344  0.3869  0.2139
 2220TIP3    H128151   1.179   2.749  12.368 -1.3730 -1.3554 -3.1453
 2220TIP3    H228152   1.223   2.860  12.275 -0.2144  2.0061  1.0927
 2221TIP3   OH228153   0.571   0.208  12.766 -0.1866  0.3074  0.3682
 2221TIP3    H128154   0.496   0.211  12.826 -1.2712  1.0464 -0.9635
 2221TIP3    H228155   0.642   0.252  12.814 -0.8584  0.3881  1.3127
 2222TIP3   OH228156   1.087   1.226   0.363  0.0535  0.8573 -0.7074
 2222TIP3    H128157   1.164   1.182   0.326  1.0978  0.0116  2.2101
 2222TIP3    H228158   1.121   1.280   0.434 -2.0328  0.2857  0.8284
 2223TIP3   OH228159   0.896   1.588  14.984  0.2203  0.6637  0.3972
 2223TIP3    H128160   0.853   1.668  14.956  1.6603  0.9683 -1.1650
 2223TIP3    H228161   0.965   1.617  15.043  1.0642  0.6785 -0.5581
 2224TIP3   OH228162   1.166   5.178  16.253 -0.6488 -0.3399  0.0207
 2224TIP3    H128163   1.188   5.196  16.344 -1.3336  2.8286 -0.3243
 2224TIP3    H228164   1.237   5.122  16.221 -0.3101 -1.3605  2.3995
 2225TIP3   OH228165   4.712   2.342   5.291 -0.2444 -0.4875 -0.3265
 2225TIP3    H128166   4.645   2.355   5.224 -1.5829  0.4467  1.1381
 2225TIP3    H228167   4.718   2.247   5.301 -1.1911 -0.5853 -0.6221
 2226TIP3   OH228168   4.486   1.006  13.986  0.3130 -0.8816 -0.2017
 2226TIP3    H128169   4.576   1.020  13.957  1.0966 -1.3589  1.8655
 2226TIP3    H228170   4.450   1.095  13.997  1.2256 -0.6295  0.9358
 2227TIP3   OH228171   3.904   2.435  11.593 -0.1638 -0.4965 -0.5915
 2227TIP3    H128172   3.954   2.364  11.553  0.1616 -1.0461  0.7223
 2227TIP3    H228173   3.915   2.509  11.533  0.1809 -1.3150 -1.5662
 2228TIP3   OH228174   5.083   3.779  16.501  0.7409 -0.0412  0.3619
 2228TIP3    H128175   5.112   3.745  16.416 -0.5189 -1.1219  0.3384
 2228TIP3    H228176   5.123   3.720  16.565  2.5965  1.4130  0.6398
 2229TIP3   OH228177   6.489   1.713   3.720  0.4461  0.4075 -0.1364
 2229TIP3    H128178   6.405   1.696   3.762 -0.0774  1.5421 -0.6556
 2229TIP3    H228179   6.533   1.628   3.717  0.1482  0.1411  1.8817
 2230TIP3   OH228180   6.082   0.150   0.682 -0.2228  0.1168  1.0109
 2230TIP3    H128181   6.015   0.160   0.749  0.0707  0.7768  1.2189
 2230TIP3    H228182   6.065   0.065   0.642 -1.5126  0.5036  0.7008
 2231TIP3   OH228183   4.406   3.605  14.664  0.0982  0.0115  0.2729
 2231TIP3    H128184   4.419   3.614  14.759  0.4246  2.0023  0.0789
 2231TIP3    H228185   4.327   3.657  14.646 -0.2677 -0.7922 -0.4893
 2232TIP3   OH228186   3.353   5.957   3.922  0.0709 -0.5206  0.6081
 2232TIP3    H128187   3.295   6.001   3.984 -1.1991  1.8524 -2.0373
 2232TIP3    H228188   3.295   5.898   3.873  0.3775 -0.0474 -0.3515
 2233TIP3   OH228189   0.131   1.681  14.954 -0.6645 -0.1698 -0.0679
 2233TIP3    H128190   0.051   1.651  14.996 -0.1465 -0.6099  0.6094
 2233TIP3    H228191   0.194   1.690  15.025  0.4147 -1.5501 -0.7991
 2234TIP3   OH228192   4.262   5.350   3.906 -0.0822  0.3728 -0.2239
 2234TIP3    H128193   4.347   5.360   3.863 -0.8339  1.7096 -1.4825
 2234TIP3    H228194   4.214   5.290   3.849 -0.2653  0.2640  0.0452
 2235TIP3   OH228195   3.191   2.581  13.726 -0.1902 -0.1064  0.1108
 2235TIP3    H128196   3.219   2.667  13.755 -1.0607  0.3239 -0.3085
 2235TIP3    H228197   3.112   2.597  13.674  0.7807 -0.9386 -1.7035
 2236TIP3   OH228198   0.226   3.260   5.662  0.2441 -0.4264  0.1032
 2236TIP3    H128199   0.133   3.256   5.683  0.3125  1.0894  0.8344
 2236TIP3    H228200   0.229   3.304   5.577  0.3487  1.6625  1.1227
 2237TIP3   OH228201   0.015   4.064   0.328 -0.2292 -0.0811  0.2928
 2237TIP3    H128202  -0.041   4.133   0.292 -1.4352 -1.2331 -0.1163
 2237TIP3    H228203   0.057   4.025   0.252 -0.8884 -0.9060  0.3307
 2238TIP3   OH228204   5.373   4.596   4.424 -0.4404 -0.0504 -0.4015
 2238TIP3    H128205   5.435   4.572   4.355  1.0012  2.3140 -0.0422
 2238TIP3    H228206   5.399   4.684   4.450 -1.6932 -0.3867  2.3472
 2239TIP3   OH228207   5.333   6.310  13.742 -0.4353  0.3367  0.0966
 2239TIP3    H128208   5.273   6.368  13.789  1.3155  2.2064  0.1802
 2239TIP3    H228209   5.323   6.335  13.650  1.2616  1.8213  0.2510
 2240TIP3   OH228210   3.662   0.089  11.500  0.1328  0.1246  0.0454
 2240TIP3    H128211   3.722   0.164  11.502 -0.1381  0.3724 -0.7659
 2240TIP3    H228212   3.682   0.045  11.417  0.5066 -0.8933  0.6593
 2241TIP3   OH228213   5.658   1.862  15.003 -0.5135 -0.0314 -0.9243
 2241TIP3    H128214   5.626   1.827  15.086  0.9217  1.5496  0.3492
 2241TIP3    H228215   5.600   1.823  14.938 -2.0281 -0.9081  0.8414
 2242TIP3   OH228216   5.262   4.082  15.065  0.2912 -0.2281 -0.4977
 2242TIP3    H128217   5.191   4.021  15.046 -0.8342  0.9813 -0.2381
 2242TIP3    H228218   5.297   4.051  15.149 -0.8886  0.0364  0.1000
 2243TIP3   OH228219   5.369   3.341  15.109 -0.8330 -0.5613  0.4377
 2243TIP3    H128220   5.434   3.391  15.158 -0.5819 -1.0075  0.5590
 2243TIP3    H228221   5.285   3.378  15.137 -0.6246  2.9275 -2.7599
 2244TIP3   OH228222   6.113   2.928   3.261  0.0005 -0.0556 -0.0430
 2244TIP3    H128223   6.077   2.902   3.346 -1.2095  1.4305 -0.0483
 2244TIP3    H228224   6.170   2.856   3.235  0.9323 -0.2334  2.3342
 2245TIP3   OH228225   4.043   5.702  15.793 -0.0077 -0.1270 -0.2333
 2245TIP3    H128226   4.135   5.675  15.788 -0.0402 -0.0358 -2.0611
 2245TIP3    H228227   3.994   5.621  15.782 -0.1196  0.1098 -1.5874
 2246TIP3   OH228228   0.174   3.618  14.525 -0.2329  0.3131  0.4339
 2246TIP3    H128229   0.180   3.528  14.558  0.9967 -0.0018 -0.5792
 2246TIP3    H228230   0.089   3.621  14.480  0.6036 -1.0272 -1.3772
 2247TIP3   OH228231   6.563   0.205   5.196  0.6767 -0.2257  0.1137
 2247TIP3    H128232   6.536   0.239   5.110 -1.6200 -1.3865  0.2992
 2247TIP3    H228233   6.652   0.237   5.207  1.8621 -1.7141 -3.6290
 2248TIP3   OH228234   0.384   0.293   1.306  0.1139  0.2085 -0.2343
 2248TIP3    H128235   0.355   0.379   1.278  1.0745  0.6683  0.1259
 2248TIP3    H228236   0.466   0.278   1.258  0.0750 -0.4067 -0.1260
 2249TIP3   OH228237   0.316   2.388   0.571  0.1315  0.0026 -0.0727
 2249TIP3    H128238   0.399   2.433   0.555  0.0100  0.2663  0.0295
 2249TIP3    H228239   0.275   2.439   0.641 -0.7707  0.7268 -1.1065
 2250TIP3   OH228240   5.159   4.787  14.627 -0.0983 -0.2574  0.1247
 2250TIP3    H128241   5.206   4.760  14.706 -1.3822 -0.7642  0.7385
 2250TIP3    H228242   5.100   4.714  14.608 -0.4605  0.2529 -0.7649
 2251TIP3   OH228243   4.540   1.670  11.793 -0.4526  0.5832 -0.6990
 2251TIP3    H128244   4.486   1.620  11.854 -1.1040  0.3193 -1.4683
 2251TIP3    H228245   4.573   1.744  11.844 -0.3575 -0.0515  0.1642
 2252TIP3   OH228246   5.498   6.547   3.408  0.5429 -0.7384 -0.2048
 2252TIP3    H128247   5.530   6.469   3.452  1.1479 -0.1228  0.4849
 2252TIP3    H228248   5.436   6.586   3.470  2.9961  1.3050  1.1675
 2253TIP3   OH228249   4.235   4.075  16.256 -0.3070  0.7118 -0.2901
 2253TIP3    H128250   4.200   4.081  16.167 -0.2110  0.9466 -0.3127
 2253TIP3    H228251   4.179   4.133  16.308  0.7998  2.1016 -0.5663
 2254TIP3   OH228252   1.589   6.645   6.729  0.7689  0.3165  0.1162
 2254TIP3    H128253   1.616   6.675   6.642  0.4288 -0.7287 -0.3643
 2254TIP3    H228254   1.645   6.570   6.747 -0.6778 -0.8707 -0.1915
 2255TIP3   OH228255   2.513   2.659   4.811 -0.6026 -0.0738  1.0177
 2255TIP3    H128256   2.597   2.626   4.842 -0.4101  0.4149  1.0214
 2255TIP3    H228257   2.460   2.581   4.796  0.5087 -0.5152 -0.9173
 2256TIP3   OH228258   3.142   4.743  15.664 -0.1558 -0.1790 -0.2713
 2256TIP3    H128259   3.198   4.728  15.741  0.4879 -0.1503 -0.7255
 2256TIP3    H228260   3.133   4.838  15.659 -1.3406 -0.2197  0.5579
 2257TIP3   OH228261   6.415   0.105   5.454 -0.1752  0.8975  0.2497
 2257TIP3    H128262   6.463   0.115   5.371  0.2317 -1.1567  0.1790
 2257TIP3    H228263   6.327   0.079   5.428  0.6471 -2.4100  0.3961
 2258TIP3   OH228264   1.378   4.778  12.396 -0.1595 -0.1013  0.1648
 2258TIP3    H128265   1.425   4.726  12.461  0.4330  1.0537  0.7055
 2258TIP3    H228266   1.389   4.869  12.426 -0.0204  0.4577 -1.4502
 2259TIP3   OH228267   4.754   0.859  17.020 -0.3637  0.2769 -0.0275
 2259TIP3    H128268   4.819   0.926  17.039 -1.2220  0.7540  1.3646
 2259TIP3    H228269   4.786   0.781  17.066  1.3987 -0.8027 -2.8156
 2260TIP3   OH228270   4.334   2.030   0.006  0.0720  0.0995 -0.2293
 2260TIP3    H128271   4.330   1.981   0.089 -0.7766 -0.0401 -0.3428
 2260TIP3    H228272   4.319   1.964  -0.061  0.0977  0.3191 -0.4509
 2261TIP3   OH228273   5.550   4.010   4.742 -0.0705  0.0076 -0.1820
 2261TIP3    H128274   5.573   3.957   4.665 -0.1880 -0.1675 -0.0954
 2261TIP3    H228275   5.569   4.100   4.715  1.1501 -0.1639  0.0413
 2262TIP3   OH228276   1.988   2.712  14.289 -0.2127  0.0491  0.0102
 2262TIP3    H128277   2.040   2.752  14.219  0.7087 -0.9304  0.0965
 2262TIP3    H228278   1.943   2.639  14.246 -1.0487  0.5043  0.0785
 2263TIP3   OH228279   0.844   2.161   0.316 -0.0488 -0.0933  0.5976
 2263TIP3    H128280   0.813   2.201   0.398 -1.6301  0.7328 -0.3468
 2263TIP3    H228281   0.858   2.234   0.257 -0.0199 -0.7452 -0.2215
 2264TIP3   OH228282   0.627   5.352  13.470  0.0167 -0.0007  0.3613
 2264TIP3    H128283   0.551   5.393  13.428 -0.0854  0.3790  0.9161
 2264TIP3    H228284   0.687   5.424  13.487  0.7591 -0.3664 -0.5798
 2265TIP3   OH228285   2.774   3.631  14.936  0.0304 -0.3562  0.2915
 2265TIP3    H128286   2.714   3.687  14.888  0.4885 -0.8079 -0.8385
 2265TIP3    H228287   2.723   3.600  15.011 -0.9463 -0.2646 -0.3262
 2266TIP3   OH228288   3.112   2.038   2.872 -0.1600 -0.1514 -0.5264
 2266TIP3    H128289   3.141   2.094   2.800 -0.1346 -0.6589 -0.9131
 2266TIP3    H228290   3.111   1.950   2.835  1.8256 -0.7220  0.6481
 2267TIP3   OH228291   0.782   1.875   3.753 -0.2154  0.5858  0.2603
 2267TIP3    H128292   0.795   1.899   3.661  2.4429  0.1044  0.4318
 2267TIP3    H228293   0.808   1.783   3.758 -2.6637 -0.1506  1.1085
 2268TIP3   OH228294   5.173   0.580   5.880 -0.3972 -0.3793 -0.1946
 2268TIP3    H128295   5.077   0.583   5.884 -0.4289 -1.6918  0.5959
 2268TIP3    H228296   5.201   0.629   5.957 -0.4233 -0.0713 -0.3777
 2269TIP3   OH228297   5.874   0.253  11.791  0.1647  0.0025  0.9385
 2269TIP3    H128298   5.876   0.331  11.735 -0.5398 -0.9115 -0.4033
 2269TIP3    H228299   5.788   0.215  11.777  1.6875 -3.0610 -1.3746
 2270TIP3   OH228300   3.710   4.259  14.631 -0.2734 -0.4653 -0.4334
 2270TIP3    H128301   3.640   4.198  14.606 -1.4439 -0.0373  1.6242
 2270TIP3    H228302   3.737   4.230  14.718  0.2229  1.0187 -0.0667
 2271TIP3   OH228303   5.984   2.007   0.819 -0.1009  0.2954  0.2740
 2271TIP3    H128304   5.915   2.057   0.776  1.7657  3.2814  0.4416
 2271TIP3    H228305   6.054   2.002   0.754  0.5898 -0.1824  1.0416
 2272TIP3   OH228306   3.303   1.794   4.621  0.5727  0.4834  0.2563
 2272TIP3    H128307   3.211   1.816   4.607  0.4234 -0.1026  0.2855
 2272TIP3    H228308   3.350   1.838   4.550  0.2468  0.6101  0.1190
 2273TIP3   OH228309   2.833   1.376   3.592 -0.4749 -1.1572 -0.6961
 2273TIP3    H128310   2.832   1.446   3.528  0.2824  0.4365  0.9512
 2273TIP3    H228311   2.919   1.335   3.581  1.9056  2.2964  2.3643
 2274TIP3   OH228312   5.663   0.543  14.822 -0.4099 -0.4826  0.0597
 2274TIP3    H128313   5.699   0.455  14.821 -1.1735 -0.8307  1.4001
 2274TIP3    H228314   5.609   0.548  14.743  2.5415  0.1064 -2.0857
 2275TIP3   OH228315   0.064   1.111  10.299  0.1318 -0.6401 -0.0180
 2275TIP3    H128316   0.133   1.045  10.297 -0.1943 -1.1238  1.9410
 2275TIP3    H228317   0.101   1.184  10.347  0.1111  0.1784 -1.2089
 2276TIP3   OH228318   6.601   6.588  11.827  0.2018 -0.0421  0.3608
 2276TIP3    H128319   6.662   6.550  11.763  1.6332  1.2750  0.8511
 2276TIP3    H228320   6.531   6.625  11.773  1.0579  0.4936 -0.4362
 2277TIP3   OH228321   3.319   3.999   1.809 -0.1536  0.5321 -0.1860
 2277TIP3    H128322   3.275   4.052   1.875 -0.3551 -0.2086  0.2872
 2277TIP3    H228323   3.412   4.013   1.825 -0.1515 -1.0808  1.4922
 2278TIP3   OH228324   5.780   1.781  14.675  0.1992 -0.1192 -0.0531
 2278TIP3    H128325   5.792   1.858  14.730  1.9949  0.1871 -0.7938
 2278TIP3    H228326   5.688   1.758  14.685 -0.7393  2.8821 -0.8018
 2279TIP3   OH228327   2.775   3.192   3.505  0.4519 -0.1863  0.6013
 2279TIP3    H128328   2.740   3.281   3.504  0.5298 -0.1473  0.9746
 2279TIP3    H228329   2.867   3.202   3.481  0.0950 -0.3519 -0.9352
 2280TIP3   OH228330   5.725   0.827  12.066 -0.3925 -0.3919  0.5333
 2280TIP3    H128331   5.744   0.735  12.050  1.6177  0.3415 -1.7380
 2280TIP3    H228332   5.728   0.836  12.162  2.2597 -2.1434  0.7132
 2281TIP3   OH228333   1.154   1.753   5.127  0.1469 -0.0643 -0.1832
 2281TIP3    H128334   1.179   1.661   5.134 -0.3478 -0.1949 -0.1533
 2281TIP3    H228335   1.081   1.763   5.187  0.2631  0.3741 -0.1101
 2282TIP3   OH228336   2.109   1.036  14.424  0.4119  0.4557 -0.0709
 2282TIP3    H128337   2.158   1.084  14.491  0.3747  2.1612 -1.1872
 2282TIP3    H228338   2.050   1.102  14.387 -0.7614 -0.8695 -0.6345
 2283TIP3   OH228339   6.065   0.419  14.919 -0.3703  0.4170 -0.0912
 2283TIP3    H128340   6.156   0.425  14.892 -0.1438  0.7015  0.7023
 2283TIP3    H228341   6.015   0.461  14.849  0.0689 -0.0691 -0.7040
 2284TIP3   OH228342   4.254   5.614   4.421  0.3418  0.5186 -0.7466
 2284TIP3    H128343   4.293   5.701   4.431 -0.0479  0.5872  0.2879
 2284TIP3    H228344   4.235   5.607   4.328  1.4754  1.0674 -1.0396
 2285TIP3   OH228345   1.403   1.628  13.368 -0.2442 -0.4570 -0.9945
 2285TIP3    H128346   1.362   1.562  13.313 -0.4733 -0.2575 -1.0649
 2285TIP3    H228347   1.427   1.581  13.448 -0.4225 -0.6200 -1.0379
 2286TIP3   OH228348   4.474   5.793  12.604  0.0974 -0.0717 -0.3130
 2286TIP3    H128349   4.484   5.807  12.510 -0.0342 -1.6412 -0.5774
 2286TIP3    H228350   4.479   5.698  12.615 -1.8850 -0.0914  1.0125
 2287TIP3   OH228351   1.898   5.540  13.889  0.8046  0.0217 -0.6648
 2287TIP3    H128352   1.897   5.563  13.796  0.1427  2.4059 -0.1344
 2287TIP3    H228353   1.968   5.594  13.926 -0.5496  0.9651  0.6082
 2288TIP3   OH228354   1.560   5.771  16.059  0.1069 -0.1819 -0.3916
 2288TIP3    H128355   1.588   5.704  16.121  1.0028 -0.0534 -0.6536
 2288TIP3    H228356   1.583   5.736  15.973  0.0925  0.2284 -0.5652
 2289TIP3   OH228357   2.760   4.056   5.103  0.3750 -0.3693 -0.0309
 2289TIP3    H128358   2.725   4.011   5.181 -0.2922 -0.9416 -0.6490
 2289TIP3    H228359   2.760   4.149   5.128  3.1700 -0.7242  1.8216
 2290TIP3   OH228360   2.369   3.441   1.224  0.1851  0.3100  0.2234
 2290TIP3    H128361   2.274   3.442   1.209  0.1867 -0.6696  0.0825
 2290TIP3    H228362   2.379   3.460   1.317 -0.2682 -1.5230  0.6707
 2291TIP3   OH228363   1.116   3.871  16.680 -0.5117 -0.0120 -0.3946
 2291TIP3    H128364   1.199   3.824  16.694  0.2179  1.4844  0.5410
 2291TIP3    H228365   1.082   3.884  16.768 -0.6235  1.3202 -0.6251
 2292TIP3   OH228366   1.396   5.792  16.609  0.1896  0.3188 -0.1547
 2292TIP3    H128367   1.379   5.708  16.650  2.0987  0.2194  0.5462
 2292TIP3    H228368   1.446   5.770  16.530  0.6374  0.7856 -0.0053
 2293TIP3   OH228369   3.192   2.000  11.646 -0.0437  0.0116 -0.3503
 2293TIP3    H128370   3.156   1.926  11.598  1.9650 -0.7288 -0.7938
 2293TIP3    H228371   3.287   1.992  11.637  0.2823  1.9132  0.6890
 2294TIP3   OH228372   2.619   0.556   4.933 -0.0555  0.6045  0.1009
 2294TIP3    H128373   2.551   0.489   4.931  1.4078 -0.9640 -1.7207
 2294TIP3    H228374   2.598   0.614   4.860 -0.2929  1.0457  0.5164
 2295TIP3   OH228375   3.706   4.709  14.663 -0.9467 -0.4709  0.3414
 2295TIP3    H128376   3.742   4.666  14.741  0.9673  2.0286  0.9387
 2295TIP3    H228377   3.657   4.784  14.697  0.0965  0.7796 -0.8337
 2296TIP3   OH228378   6.146   5.608  15.082 -0.3995 -0.1788  0.1100
 2296TIP3    H128379   6.158   5.675  15.015 -0.5721 -1.0192 -0.7790
 2296TIP3    H228380   6.234   5.588  15.113 -0.3057  0.0962  0.0239
 2297TIP3   OH228381   2.232   3.551  16.334  0.8656  0.0048 -0.7072
 2297TIP3    H128382   2.310   3.499  16.354  0.6745 -0.3255 -0.8062
 2297TIP3    H228383   2.193   3.571  16.419  0.8699 -0.1238 -0.6746
 2298TIP3   OH228384   2.914   6.053  14.126  0.2713  0.4590 -0.0489
 2298TIP3    H128385   2.857   6.128  14.140 -0.1664  0.2398 -0.5945
 2298TIP3    H228386   3.003   6.086  14.141  0.1069  1.1666 -0.6093
 2299TIP3   OH228387   5.025   4.911   2.312 -0.2102  0.1028 -0.9906
 2299TIP3    H128388   4.959   4.936   2.246 -0.5393 -1.5608 -1.3282
 2299TIP3    H228389   5.026   4.816   2.310  0.9695  0.0619  0.2739
 2300TIP3   OH228390   2.676   6.265  16.927 -0.0308 -0.3270 -0.1537
 2300TIP3    H128391   2.662   6.217  16.845 -1.0285 -0.4546  0.0874
 2300TIP3    H228392   2.676   6.197  16.995 -2.4657  0.0693  0.3082
 2301TIP3   OH228393   6.087   4.309  16.141  0.3802  0.1106  0.2785
 2301TIP3    H128394   6.020   4.359  16.094 -0.7933 -0.1535  1.5767
 2301TIP3    H228395   6.114   4.240  16.081  0.2683  0.8578 -0.6525
 2302TIP3   OH228396   1.608   4.043   4.484 -0.0932 -0.0498 -0.2868
 2302TIP3    H128397   1.577   4.034   4.394  1.1381 -4.4822 -0.5231
 2302TIP3    H228398   1.687   4.097   4.477 -0.6839  0.6841 -1.6344
 2303TIP3   OH228399   0.430   2.517   1.268 -0.0313 -0.0270  0.2805
 2303TIP3    H128400   0.450   2.436   1.315  0.2726 -0.0937  0.0398
 2303TIP3    H228401   0.382   2.488   1.190  0.5733 -0.0221 -0.0937
 2304TIP3   OH228402   5.056   6.275  16.492  0.0168 -0.4248  0.7659
 2304TIP3    H128403   4.996   6.268  16.418 -0.6296  0.7580  1.1523
 2304TIP3    H228404   5.037   6.361  16.530  1.3714 -0.3863  1.4080
 2305TIP3   OH228405   0.737   2.979  15.047  0.7610 -0.0450 -1.0976
 2305TIP3    H128406   0.692   2.903  15.083  0.9457  0.1310 -0.4855
 2305TIP3    H228407   0.667   3.039  15.022  0.6480  0.4221  0.2745
 2306TIP3   OH228408   0.001   0.723   5.929 -0.0515  0.1478 -0.4339
 2306TIP3    H128409   0.093   0.745   5.940  0.1586 -0.4172 -1.0469
 2306TIP3    H228410  -0.021   0.673   6.008  0.2607 -0.0173 -0.4509
 2307TIP3   OH228411   0.153   4.355  11.007  0.2683 -0.2163 -0.1445
 2307TIP3    H128412   0.236   4.383  11.046  0.6907 -2.3959  0.6430
 2307TIP3    H228413   0.177   4.289  10.943 -0.6649  1.4166 -2.2838
 2308TIP3   OH228414   5.811   2.622   4.482 -0.2490  0.0318 -0.2968
 2308TIP3    H128415   5.881   2.640   4.419 -0.6729 -1.8857 -1.4056
 2308TIP3    H228416   5.793   2.706   4.523  0.9541  1.0825 -1.8160
 2309TIP3   OH228417   1.020   0.324  12.221 -0.0107  0.9840  0.1836
 2309TIP3    H128418   0.925   0.327  12.218 -0.1532 -1.0484  1.2801
 2309TIP3    H228419   1.048   0.352  12.133 -1.6842 -0.5055 -0.8902
 2310TIP3   OH228420   1.454   1.700  11.602 -0.1390 -0.3576  0.3472
 2310TIP3    H128421   1.413   1.658  11.678 -1.6762  0.0077 -0.2240
 2310TIP3    H228422   1.420   1.650  11.527 -0.9373  1.0333 -0.2566
 2311TIP3   OH228423   6.523   4.950   0.462  0.3269 -0.2555  0.3862
 2311TIP3    H128424   6.559   4.894   0.393 -0.2899  0.1850 -0.2988
 2311TIP3    H228425   6.598   5.003   0.491  0.6389 -0.6022  0.2267
 2312TIP3   OH228426   1.428   0.916  15.134 -0.1828 -0.1635 -0.1889
 2312TIP3    H128427   1.405   0.887  15.047 -0.7599  0.5337 -0.2802
 2312TIP3    H228428   1.426   0.837  15.188  1.0326 -0.7474 -0.9654
 2313TIP3   OH228429   0.113   6.129   2.610 -0.5749  0.4599  0.1293
 2313TIP3    H128430   0.106   6.086   2.695 -0.2019 -0.9524 -0.5252
 2313TIP3    H228431   0.037   6.097   2.561  0.6866 -0.9845 -0.9915
 2314TIP3   OH228432   5.718   0.579   4.800 -0.0831 -0.9864 -0.4461
 2314TIP3    H128433   5.802   0.558   4.759 -0.7705 -1.5051 -1.6380
 2314TIP3    H228434   5.728   0.671   4.827  0.7820 -0.9643 -0.7900
 2315TIP3   OH228435   2.857   4.897   1.346 -0.2052  0.1187  0.1688
 2315TIP3    H128436   2.892   4.961   1.285  1.3341 -2.0601 -1.3979
 2315TIP3    H228437   2.790   4.851   1.295  0.4383 -1.1008  0.3926
 2316TIP3   OH228438   1.162   6.102   2.066  0.0592  0.1832  0.1943
 2316TIP3    H128439   1.125   6.143   2.144 -0.5008 -0.1015  0.0861
 2316TIP3    H228440   1.086   6.074   2.015  0.4210 -0.6209  0.0769
 2317TIP3   OH228441   2.561   3.656  13.563 -0.2890 -0.2797  0.0052
 2317TIP3    H128442   2.554   3.694  13.475  0.8780 -2.2701 -1.0044
 2317TIP3    H228443   2.647   3.684  13.595 -0.2190 -0.5175  0.0270
 2318TIP3   OH228444   6.275   3.011   1.333 -0.0174  0.3696 -0.1459
 2318TIP3    H128445   6.280   3.106   1.337 -0.6101  0.3710  0.5386
 2318TIP3    H228446   6.234   2.984   1.415 -0.4859 -0.4312 -0.6237
 2319TIP3   OH228447   0.088   3.730   2.818  0.1270 -0.0879 -0.0728
 2319TIP3    H128448   0.133   3.728   2.734 -1.3935  2.8636 -1.1144
 2319TIP3    H228449  -0.003   3.753   2.796 -0.5481 -0.2388  2.2980
 2320TIP3   OH228450   3.438   1.741  16.739  0.4261  0.3125  0.1662
 2320TIP3    H128451   3.420   1.733  16.833 -1.8258  1.7654 -0.0611
 2320TIP3    H228452   3.494   1.818  16.732  0.4752  0.2906  0.3118
 2321TIP3   OH228453   5.624   3.133   6.208  0.2157  0.3823  0.0586
 2321TIP3    H128454   5.578   3.059   6.168  1.0072 -0.0780 -0.0129
 2321TIP3    H228455   5.656   3.184   6.134 -0.0255  0.6097  0.1090
 2322TIP3   OH228456   6.426   3.334  16.111 -0.4328 -0.3775 -0.1565
 2322TIP3    H128457   6.356   3.301  16.167 -0.7223 -1.0754 -0.9035
 2322TIP3    H228458   6.505   3.290  16.143 -0.7990 -1.7920 -1.0773
 2323TIP3   OH228459   0.555   5.392   0.513 -0.4502  0.2180 -0.1863
 2323TIP3    H128460   0.572   5.356   0.426  0.4291 -1.8635  0.7743
 2323TIP3    H228461   0.460   5.385   0.523 -0.3400 -1.9556 -0.0739
 2324TIP3   OH228462   0.558   5.664   3.540 -0.1060 -0.1093 -0.6296
 2324TIP3    H128463   0.584   5.742   3.590  0.4737 -0.2785 -0.6574
 2324TIP3    H228464   0.614   5.667   3.462 -0.3974 -0.3139 -0.8452
 2325TIP3   OH228465   5.032   1.784  16.143  0.0582 -0.7814  0.1960
 2325TIP3    H128466   4.972   1.710  16.140 -0.4094 -0.4942  1.5867
 2325TIP3    H228467   5.093   1.769  16.071 -0.1627 -2.3920  0.3175
 2326TIP3   OH228468   0.865   1.408   0.183 -0.1197 -0.9452  0.0767
 2326TIP3    H128469   0.942   1.371   0.227 -0.2614 -0.3870  0.8021
 2326TIP3    H228470   0.805   1.431   0.253 -0.4711 -0.3096 -0.4207
 2327TIP3   OH228471   2.014   3.782  10.683 -0.1347 -0.2797  0.0891
 2327TIP3    H128472   2.100   3.811  10.713  0.3449 -2.8251  1.3771
 2327TIP3    H228473   2.019   3.687  10.682 -2.7641 -0.4937 -0.3806
 2328TIP3   OH228474   3.918   1.578  11.098  0.3891  0.2411  0.5439
 2328TIP3    H128475   3.958   1.620  11.022  0.6860 -0.1386  0.4895
 2328TIP3    H228476   3.930   1.640  11.170  1.0779  0.1259  0.5289
 2329TIP3   OH228477   1.281   2.620   6.465 -0.1505  0.2507 -0.5496
 2329TIP3    H128478   1.232   2.563   6.524 -0.6295 -0.1233 -1.2960
 2329TIP3    H228479   1.359   2.569   6.442 -0.3095  0.1084 -0.7839
 2330TIP3   OH228480   0.374   5.709  14.048  0.2175  0.0929  0.3856
 2330TIP3    H128481   0.357   5.802  14.038  1.1086  0.1421 -0.9548
 2330TIP3    H228482   0.455   5.704  14.099  1.9490  0.1990 -2.1898
 2331TIP3   OH228483   3.820   2.040   2.314 -0.1895 -0.0290  0.2173
 2331TIP3    H128484   3.836   1.974   2.382  0.4617  1.5895  1.7121
 2331TIP3    H228485   3.872   2.115   2.341 -0.1780  0.8001 -1.9355
 2332TIP3   OH228486   3.244   3.266  16.209  0.4336 -0.4248  0.1248
 2332TIP3    H128487   3.307   3.194  16.215  0.0733 -0.8455 -0.9138
 2332TIP3    H228488   3.271   3.315  16.132 -1.2208 -1.3523 -1.1186
 2333TIP3   OH228489   0.764   0.281   3.507 -0.0920 -0.4152  0.0901
 2333TIP3    H128490   0.806   0.337   3.442  1.0967  0.1047  1.2601
 2333TIP3    H228491   0.722   0.342   3.567 -3.3593 -0.9033 -1.4485
 2334TIP3   OH228492   5.188   3.647  13.799  0.2838 -0.1783  0.1536
 2334TIP3    H128493   5.262   3.587  13.788 -0.6179 -1.3129  0.1610
 2334TIP3    H228494   5.184   3.664  13.893  0.1945 -0.5664  0.2218
 2335TIP3   OH228495   2.032   4.139   1.319 -0.4536  0.1787 -0.4422
 2335TIP3    H128496   2.069   4.218   1.278  0.6288 -0.4102 -0.6643
 2335TIP3    H228497   2.053   4.148   1.412 -2.7177  1.4120  0.0083
 2336TIP3   OH228498   0.936   3.552   5.845  0.0095  0.7964  0.6224
 2336TIP3    H128499   0.959   3.643   5.831  1.1121  0.5713  0.8727
 2336TIP3    H228500   0.910   3.547   5.937  1.5803  0.5555  1.0751
 2337TIP3   OH228501   1.909   5.204  15.185 -0.3114  0.3715 -0.2164
 2337TIP3    H128502   1.815   5.222  15.182 -0.5409 -0.4588  1.1442
 2337TIP3    H228503   1.916   5.108  15.176  0.3752  0.3956 -0.0352
 2338TIP3   OH228504   4.442   3.590  11.706 -0.2346  0.4336 -0.3876
 2338TIP3    H128505   4.351   3.586  11.735 -0.0463 -0.0328  0.1710
 2338TIP3    H228506   4.455   3.509  11.656 -0.6378  1.3659 -2.0634
 2339TIP3   OH228507   1.447   4.889  11.858  0.5763  0.0620 -1.2287
 2339TIP3    H128508   1.367   4.887  11.806 -1.0899  0.6658  1.1818
 2339TIP3    H228509   1.418   4.884  11.949  3.2250  1.0231 -0.2235
 2340TIP3   OH228510   0.824   1.637  12.339  0.1891 -0.0637  0.6416
 2340TIP3    H128511   0.756   1.699  12.364  0.2556 -0.3061  1.4641
 2340TIP3    H228512   0.787   1.551  12.358  0.4590 -0.2301  0.4271
 2341TIP3   OH228513   4.675   4.892   4.925 -0.6685 -0.3966 -0.4961
 2341TIP3    H128514   4.649   4.801   4.930  1.3972 -1.0300 -0.3283
 2341TIP3    H228515   4.730   4.906   5.003 -1.8815  1.3447  0.1331
 2342TIP3   OH228516   4.896   1.990   5.476 -0.1774  0.3507 -0.5267
 2342TIP3    H128517   4.981   1.990   5.521 -0.7124 -0.4712  0.5116
 2342TIP3    H228518   4.914   2.032   5.391  0.9505  1.5021  0.2468
 2343TIP3   OH228519   5.863   3.551   5.015  1.0000  0.1485  0.2343
 2343TIP3    H128520   5.951   3.587   5.020  0.2778  2.2584 -0.8136
 2343TIP3    H228521   5.807   3.628   5.003 -1.3829 -0.7721  3.9283
 2344TIP3   OH228522   1.137   4.710   2.786 -0.3319  0.5049  0.0113
 2344TIP3    H128523   1.115   4.742   2.698  0.3069  0.7872 -0.0515
 2344TIP3    H228524   1.057   4.666   2.816 -0.4818  0.1836 -0.8091
 2345TIP3   OH228525   0.509   5.516  16.570  0.5204  0.1621  0.0516
 2345TIP3    H128526   0.534   5.605  16.594 -0.0946  0.5922 -0.8199
 2345TIP3    H228527   0.564   5.495  16.494  0.1981  0.0580 -0.1548
 2346TIP3   OH228528   6.437   5.678   0.624  0.4616  0.1081 -0.3929
 2346TIP3    H128529   6.459   5.682   0.531  0.4404  0.1692 -0.3952
 2346TIP3    H228530   6.361   5.620   0.629 -0.8602  1.7423 -0.6450
 2347TIP3   OH228531   1.813   2.290  15.853 -0.1988 -0.0368  0.6437
 2347TIP3    H128532   1.782   2.340  15.930  1.0303  1.3032  0.3102
 2347TIP3    H228533   1.882   2.345  15.815 -1.2661 -0.2922 -1.8649
 2348TIP3   OH228534   5.899   4.440   2.467 -0.2706 -0.4467  0.2185
 2348TIP3    H128535   5.837   4.495   2.516 -0.0820 -0.9694  1.0702
 2348TIP3    H228536   5.983   4.458   2.508 -0.0390 -0.5915 -0.1902
 2349TIP3   OH228537   4.410   2.052   5.071 -0.3047  0.4970 -0.4201
 2349TIP3    H128538   4.446   2.051   5.160  0.6398 -0.2831 -0.7909
 2349TIP3    H228539   4.325   2.096   5.080 -1.6481 -2.1879  1.4138
 2350TIP3   OH228540   0.680   6.717   3.015 -0.3340 -0.3302 -0.4918
 2350TIP3    H128541   0.717   6.634   2.985  1.1347  1.0259 -2.6766
 2350TIP3    H228542   0.687   6.776   2.940 -2.1098  1.5618  0.7143
 2351TIP3   OH228543   5.150   1.822   3.825 -0.1327 -0.0885 -0.1988
 2351TIP3    H128544   5.245   1.816   3.821  0.0376 -1.0011  3.0026
 2351TIP3    H228545   5.119   1.749   3.771  0.8970  0.6943 -1.9320
 2352TIP3   OH228546   5.222   3.197   2.981 -0.6028 -0.2379 -0.1148
 2352TIP3    H128547   5.128   3.210   2.972 -0.8704 -0.4165  1.9773
 2352TIP3    H228548   5.233   3.104   2.998  0.0478 -0.3453 -1.0084
 2353TIP3   OH228549   6.772   3.424  12.600  0.3847  0.6426 -0.1417
 2353TIP3    H128550   6.760   3.420  12.505 -0.4350  0.4491 -0.0340
 2353TIP3    H228551   6.788   3.333  12.626 -0.4725  0.5398  0.0396
 2354TIP3   OH228552   3.357   4.559  14.774 -0.1298  0.5345  0.6938
 2354TIP3    H128553   3.266   4.575  14.750 -0.6469 -0.0668  2.1058
 2354TIP3    H228554   3.385   4.485  14.719 -0.6154  0.4959  0.5017
 2355TIP3   OH228555   3.189   4.434  16.995 -0.7314  0.2266  0.4405
 2355TIP3    H128556   3.138   4.496  16.944 -2.4114  1.0726  2.9840
 2355TIP3    H228557   3.277   4.470  16.996 -0.4506 -0.1577 -2.2660
 2356TIP3   OH228558   2.776   1.172   0.707 -0.3724  0.5626  0.5893
 2356TIP3    H128559   2.719   1.249   0.705 -2.3065 -0.8279 -0.8586
 2356TIP3    H228560   2.814   1.169   0.619 -0.2533 -0.0917  0.6632
 2357TIP3   OH228561   3.342   5.840  14.362 -0.4304  0.4777  0.0390
 2357TIP3    H128562   3.372   5.866  14.449 -0.8336  1.3428 -0.0783
 2357TIP3    H228563   3.407   5.877  14.302 -0.1748 -0.0850 -0.0491
 2358TIP3   OH228564   2.577   5.744   4.900  0.3521 -0.0070  0.5386
 2358TIP3    H128565   2.644   5.676   4.910  0.1050 -0.9279 -2.8286
 2358TIP3    H228566   2.505   5.713   4.954  1.5167 -0.5873  1.8294
 2359TIP3   OH228567   4.566   1.793   4.146  0.5845  0.2344 -0.4536
 2359TIP3    H128568   4.655   1.826   4.153  1.1016 -0.8013 -1.7220
 2359TIP3    H228569   4.530   1.838   4.069  0.2000  0.2291 -0.2791
 2360TIP3   OH228570   5.437   3.159  15.680  0.4728  0.2580 -0.0275
 2360TIP3    H128571   5.493   3.091  15.717 -1.6735 -0.9749  1.1798
 2360TIP3    H228572   5.426   3.223  15.751  1.9599  1.5865 -0.9453
 2361TIP3   OH228573   3.590   1.373  15.633  0.4265  0.0932  0.4092
 2361TIP3    H128574   3.514   1.413  15.591  1.4208  1.1448 -0.4771
 2361TIP3    H228575   3.588   1.405  15.723 -0.6723 -0.6316  0.6615
 2362TIP3   OH228576   4.540   1.751  14.063 -0.0546 -0.5050  0.0962
 2362TIP3    H128577   4.555   1.656  14.060 -0.6081 -0.5812 -0.7576
 2362TIP3    H228578   4.627   1.789  14.075  0.6825 -0.9835 -2.9192
 2363TIP3   OH228579   3.573   2.490  14.820 -0.3089 -0.1784  0.1593
 2363TIP3    H128580   3.583   2.411  14.874  0.4557 -0.0456  0.2257
 2363TIP3    H228581   3.646   2.486  14.758 -0.4154  0.3428 -0.0048
 2364TIP3   OH228582   3.967   1.750  11.295  0.0444 -0.2134 -0.0728
 2364TIP3    H128583   3.899   1.778  11.356  0.3949  0.4232  0.0426
 2364TIP3    H228584   4.031   1.705  11.350  0.0437 -0.2095 -0.0690
 2365TIP3   OH228585   5.887   2.069  17.149 -0.6348 -0.3137 -0.0199
 2365TIP3    H128586   5.965   2.122  17.131 -1.1726  0.1141 -1.1952
 2365TIP3    H228587   5.891   2.051  17.243  0.8386 -0.2397 -0.0448
 2366TIP3   OH228588   1.223   1.238   1.640  0.4384  0.1577 -0.5748
 2366TIP3    H128589   1.277   1.160   1.631 -1.3136 -1.4638  1.6166
 2366TIP3    H228590   1.133   1.204   1.640 -0.3655  2.1364  0.5785
 2367TIP3   OH228591   1.190   3.424  14.715 -0.3918 -0.2007  0.2451
 2367TIP3    H128592   1.098   3.439  14.734 -0.1781  1.0084  0.4311
 2367TIP3    H228593   1.191   3.368  14.638 -1.2694 -1.2134  0.9359
 2368TIP3   OH228594   3.633   1.663  12.305  0.1695 -1.1294  0.5487
 2368TIP3    H128595   3.597   1.677  12.217  0.4553 -0.0210  0.6002
 2368TIP3    H228596   3.598   1.578  12.331  0.8761 -1.9667 -1.0372
 2369TIP3   OH228597   0.890   2.006  16.146  0.0238  0.3505 -0.3595
 2369TIP3    H128598   0.886   1.989  16.240 -0.0588 -0.0476 -0.4313
 2369TIP3    H228599   0.808   2.052  16.126  0.5607  1.4760 -0.0388
 2370TIP3   OH228600   0.322   1.541  15.396  0.2666  0.0418  0.2159
 2370TIP3    H128601   0.387   1.606  15.423  0.6661 -0.0259 -0.5503
 2370TIP3    H228602   0.257   1.541  15.467 -0.2381  1.9402 -0.1933
 2371TIP3   OH228603   6.037   2.299   2.935 -0.0658 -0.7543  0.0775
 2371TIP3    H128604   6.132   2.297   2.948  0.4083 -1.9604 -2.7659
 2371TIP3    H228605   6.003   2.238   3.000  1.2751 -1.4038  0.2047
 2372TIP3   OH228606   3.501   1.704  16.222 -0.1184 -0.5872 -0.2583
 2372TIP3    H128607   3.432   1.715  16.288  0.6573 -1.9340  0.8116
 2372TIP3    H228608   3.575   1.754  16.256  1.1462 -3.3130  1.2486
 2373TIP3   OH228609   3.155   5.199   5.328 -0.1131 -0.0413 -0.5628
 2373TIP3    H128610   3.183   5.257   5.257  1.1915  2.3270  1.7311
 2373TIP3    H228611   3.203   5.118   5.313  0.9518  0.7670 -1.7839
 2374TIP3   OH228612   5.939   5.467  16.679  0.0503  0.1889  0.1734
 2374TIP3    H128613   5.950   5.372  16.670  0.3616  0.2906 -0.5946
 2374TIP3    H228614   6.013   5.504  16.631  0.3207  0.8209  1.0511
 2375TIP3   OH228615   0.101   4.573  11.779  0.5416  0.4033 -1.3285
 2375TIP3    H128616   0.009   4.549  11.790  0.7638  0.0816  0.0533
 2375TIP3    H228617   0.145   4.538  11.857  1.3581  2.8602 -0.5633
 2376TIP3   OH228618   6.049   2.271  12.615 -0.2952 -0.4209 -0.3757
 2376TIP3    H128619   6.133   2.280  12.570 -0.3284  1.8031 -0.1028
 2376TIP3    H228620   6.054   2.331  12.689 -0.9505 -2.6360  1.5839
 2377TIP3   OH228621   0.172   3.160  14.489 -0.0494 -0.3615  0.1210
 2377TIP3    H128622   0.143   3.210  14.413 -2.5174 -2.5782 -0.5502
 2377TIP3    H228623   0.208   3.226  14.548  0.9671  1.5899 -2.4548
 2378TIP3   OH228624   6.576   3.378  16.631 -0.1602  0.0206 -0.3319
 2378TIP3    H128625   6.493   3.399  16.673 -0.2278  0.5360 -0.7066
 2378TIP3    H228626   6.599   3.458  16.583  1.5626  0.6358  1.3783
 2379TIP3   OH228627   2.830   3.277  15.806  0.1078  0.2404  0.1595
 2379TIP3    H128628   2.923   3.299  15.808 -0.0093  1.4933 -2.5806
 2379TIP3    H228629   2.824   3.200  15.749 -0.4062 -1.0659  1.9005
 2380TIP3   OH228630   6.603   5.622  15.032  0.0560 -0.0822 -0.5585
 2380TIP3    H128631   6.536   5.609  15.099  1.8897  1.7120  1.7619
 2380TIP3    H228632   6.558   5.672  14.963 -1.9166 -2.1261 -0.9069
 2381TIP3   OH228633   6.070   6.218  16.604  0.5948 -0.0883 -0.3873
 2381TIP3    H128634   6.159   6.244  16.583 -0.4074  2.9071 -1.5641
 2381TIP3    H228635   6.021   6.300  16.607 -2.0446 -1.5632  0.7137
 2382TIP3   OH228636   5.841   0.683   3.072 -0.9682 -0.1712  0.3425
 2382TIP3    H128637   5.889   0.670   3.154  0.0960 -1.0870 -0.3937
 2382TIP3    H228638   5.858   0.603   3.021 -2.5345 -0.1125 -0.3249
 2383TIP3   OH228639   0.197   1.454   1.229 -0.2689 -0.2797  0.0184
 2383TIP3    H128640   0.243   1.399   1.165 -0.4716  0.3790 -0.6975
 2383TIP3    H228641   0.105   1.443   1.208 -0.3961 -0.7945  0.8069
 2384TIP3   OH228642   0.833   2.034   1.566 -0.0938  0.2395  0.3998
 2384TIP3    H128643   0.901   1.978   1.603  0.8713  0.4016 -1.0625
 2384TIP3    H228644   0.772   2.048   1.638 -0.2930 -2.5421  0.8982
 2385TIP3   OH228645   4.401   1.452  15.904  0.0714  0.1845  0.8243
 2385TIP3    H128646   4.396   1.513  15.830  1.2172 -0.4147  0.2261
 2385TIP3    H228647   4.366   1.370  15.870  2.9528 -0.8437  0.0657
 2386TIP3   OH228648   1.514   0.688  14.441  0.8985  0.6004  0.4293
 2386TIP3    H128649   1.523   0.712  14.349  0.7535  0.1893  0.3058
 2386TIP3    H228650   1.508   0.592  14.440 -0.1412  0.6569  0.7850
 2387TIP3   OH228651   5.331   2.282  12.652 -0.2954  0.0251 -0.5744
 2387TIP3    H128652   5.295   2.246  12.570 -1.4760  0.9126 -0.4742
 2387TIP3    H228653   5.266   2.346  12.680  1.0719  1.2347 -0.0184
 2388TIP3   OH228654   2.489   5.574  11.566 -0.2063  0.1908  0.0386
 2388TIP3    H128655   2.492   5.626  11.486 -2.4048  0.1548 -0.1125
 2388TIP3    H228656   2.407   5.526  11.561  0.0923 -0.6055  1.8513
 2389TIP3   OH228657   0.710   5.425   1.791  0.2637  0.0609 -0.4235
 2389TIP3    H128658   0.641   5.388   1.846 -1.8454  2.2022 -1.4202
 2389TIP3    H228659   0.763   5.478   1.851 -0.8808  0.8767 -0.0999
 2390TIP3   OH228660   1.579   2.324   5.057  0.1791 -0.3682 -0.2469
 2390TIP3    H128661   1.611   2.382   5.126 -1.0924 -0.2200  0.2366
 2390TIP3    H228662   1.643   2.252   5.054  1.6831  0.9332 -0.7368
 2391TIP3   OH228663   5.915   0.629   0.871 -0.1575  0.0314 -0.3114
 2391TIP3    H128664   5.854   0.580   0.927 -0.6928  2.4167  1.3623
 2391TIP3    H228665   5.881   0.618   0.783 -1.5094 -0.7801  0.2768
 2392TIP3   OH228666   4.907   4.522   5.348 -0.4266 -0.8147  0.6423
 2392TIP3    H128667   4.821   4.562   5.342 -0.4736 -1.0238 -0.2625
 2392TIP3    H228668   4.890   4.428   5.358 -0.3056 -0.8163  0.8378
 2393TIP3   OH228669   4.861   0.192  16.733 -0.3116  0.1289 -0.0887
 2393TIP3    H128670   4.803   0.172  16.660 -0.5252 -0.9876  0.3621
 2393TIP3    H228671   4.805   0.232  16.799 -0.2922  0.3270 -0.1921
 2394TIP3   OH228672   0.902   1.710  12.948 -0.6026 -0.2126  0.2984
 2394TIP3    H128673   0.826   1.756  12.982 -0.8031 -0.3319  0.0119
 2394TIP3    H228674   0.868   1.630  12.910 -0.4608  0.1737 -0.6830
 2395TIP3   OH228675   5.603   6.146   3.481 -0.1277 -0.2136 -0.7970
 2395TIP3    H128676   5.665   6.213   3.509  1.1584 -0.4151 -2.8725
 2395TIP3    H228677   5.592   6.090   3.557  0.5495  1.0741  0.2823
 2396TIP3   OH228678   0.179   2.384  11.713  0.3920  0.1997 -0.2854
 2396TIP3    H128679   0.101   2.439  11.722 -0.0267 -0.4867  0.4729
 2396TIP3    H228680   0.252   2.445  11.720 -0.0726  0.8464 -0.9039
 2397TIP3   OH228681   6.141   6.620  12.926 -0.2305 -0.3600  0.2316
 2397TIP3    H128682   6.178   6.556  12.865  0.0468 -1.0889  1.1356
 2397TIP3    H228683   6.196   6.614  13.004  0.5091  1.8294 -0.0593
 2398TIP3   OH228684   0.621   4.526   5.739  1.0063 -0.3818  0.1276
 2398TIP3    H128685   0.549   4.517   5.801  0.1643  2.1009 -0.3735
 2398TIP3    H228686   0.671   4.445   5.748 -1.4207 -1.8761  1.0021
 2399TIP3   OH228687   2.474   2.173  12.388  0.1938 -0.4036 -0.5271
 2399TIP3    H128688   2.469   2.219  12.305 -0.2112  0.0643 -0.2452
 2399TIP3    H228689   2.478   2.080  12.364 -3.1289 -0.5398 -1.0415
 2400TIP3   OH228690   5.955   0.979   4.728 -0.0853  0.0058  0.4346
 2400TIP3    H128691   5.982   1.017   4.811 -2.6565 -2.0160  2.3647
 2400TIP3    H228692   6.005   0.897   4.721 -1.3905 -0.8822  1.1270
 2401TIP3   OH228693   3.785   4.272   0.599  0.3949  0.1525 -0.1171
 2401TIP3    H128694   3.739   4.355   0.589  0.6318  0.1734 -1.2102
 2401TIP3    H228695   3.769   4.227   0.516  3.4726  0.7309 -1.1404
 2402TIP3   OH228696   0.523   5.138   4.506  0.7972 -0.3466  0.1654
 2402TIP3    H128697   0.528   5.150   4.600  1.2795 -0.2943  0.1381
 2402TIP3    H228698   0.607   5.170   4.473  0.0899  0.9646 -0.4256
 2403TIP3   OH228699   4.777   1.997  14.611 -0.5721  0.4510  0.3391
 2403TIP3    H128700   4.818   2.080  14.586  0.4453 -0.5342 -1.5221
 2403TIP3    H228701   4.789   1.941  14.534 -1.5459 -1.3097  1.4104
 2404TIP3   OH228702   5.555   3.508  15.239  0.0914  0.0077  0.7518
 2404TIP3    H128703   5.565   3.448  15.314  1.7647 -1.2510 -0.3992
 2404TIP3    H228704   5.645   3.525  15.211 -0.5126  0.2295 -1.1506
 2405TIP3   OH228705   6.811   0.014  14.270 -0.2252  0.1745 -0.0563
 2405TIP3    H128706   6.716   0.021  14.254  0.0475  2.5504 -1.0472
 2405TIP3    H228707   6.818  -0.032  14.354 -2.2504 -0.0022  0.0694
 2406TIP3   OH228708   1.426   0.483  15.460  0.4044 -0.0168  0.1535
 2406TIP3    H128709   1.514   0.448  15.446  0.1283 -0.2125 -1.2142
 2406TIP3    H228710   1.377   0.410  15.498  0.5141 -0.3043 -0.2474
 2407TIP3   OH228711   5.179   2.339   3.391  0.0597 -0.6613  0.3085
 2407TIP3    H128712   5.241   2.411   3.388 -1.0431  0.4606  2.5114
 2407TIP3    H228713   5.217   2.277   3.454 -0.0076 -1.0113  0.0087
 2408TIP3   OH228714   5.965   3.678   1.697 -0.1627 -0.4314 -0.4211
 2408TIP3    H128715   5.979   3.763   1.655 -1.3958 -0.5142 -1.0218
 2408TIP3    H228716   5.887   3.690   1.751  1.2945 -0.3578  1.8300
 2409TIP3   OH228717   3.256   0.232   3.394  0.0970 -0.1473 -0.0949
 2409TIP3    H128718   3.235   0.324   3.412  0.1702 -0.1739  0.1335
 2409TIP3    H228719   3.228   0.219   3.304 -1.3482 -0.3164  0.3481
 2410TIP3   OH228720   4.761   5.727  15.041 -0.0619 -0.0982 -0.3200
 2410TIP3    H128721   4.791   5.647  15.086 -0.2024 -0.4096 -0.7727
 2410TIP3    H228722   4.667   5.715  15.033  0.0392 -0.3280 -1.2365
 2411TIP3   OH228723   5.595   3.302  16.836 -0.3286  0.2679 -0.0980
 2411TIP3    H128724   5.640   3.335  16.759  0.5088 -1.8791 -0.5924
 2411TIP3    H228725   5.665   3.290  16.901 -0.7838  0.4999  0.4417
 2412TIP3   OH228726   1.094   4.541   2.016 -1.0460 -0.3107  0.1294
 2412TIP3    H128727   1.100   4.451   1.984  0.1180  0.1878 -1.1544
 2412TIP3    H228728   1.064   4.532   2.107  1.4545 -2.1736  0.8831
 2413TIP3   OH228729   6.415   5.815   0.373 -0.5780 -0.5979  0.6606
 2413TIP3    H128730   6.366   5.756   0.315 -1.3465 -1.1520  1.8409
 2413TIP3    H228731   6.455   5.879   0.314  1.2019 -2.8991 -0.7958
 2414TIP3   OH228732   4.438   1.609  12.827  0.2324 -0.0919 -0.4106
 2414TIP3    H128733   4.489   1.590  12.906 -0.9389  0.2828  0.4656
 2414TIP3    H228734   4.461   1.700  12.806 -1.6543  0.8775  1.2992
 2415TIP3   OH228735   3.809   5.334  15.276 -0.3244  0.6232  0.1146
 2415TIP3    H128736   3.869   5.267  15.244  0.2258  1.5472 -0.8212
 2415TIP3    H228737   3.723   5.307  15.244 -0.5317 -0.9255  1.7987
 2416TIP3   OH228738   3.473   0.953   4.945  0.1415  0.0245  0.0692
 2416TIP3    H128739   3.484   0.863   4.975 -1.1583 -0.0588  0.3332
 2416TIP3    H228740   3.555   0.996   4.970  0.0060 -0.5998  1.7341
 2417TIP3   OH228741   1.276   2.410   3.578 -0.0888  0.1364  0.1546
 2417TIP3    H128742   1.303   2.501   3.566 -0.0215 -0.0306 -1.1274
 2417TIP3    H228743   1.188   2.406   3.541  1.2120 -1.0395 -3.2020
 2418TIP3   OH228744   2.605   0.636   3.250 -0.1438  0.0863  0.5359
 2418TIP3    H128745   2.619   0.710   3.191 -0.4820 -0.3713 -0.1224
 2418TIP3    H228746   2.686   0.631   3.301  0.6694 -0.2876 -0.7417
 2419TIP3   OH228747   2.665   4.355  13.357  0.0347  0.5633 -0.3461
 2419TIP3    H128748   2.748   4.316  13.385 -1.8017 -4.7669 -1.1650
 2419TIP3    H228749   2.677   4.374  13.264 -0.1554 -2.2604 -1.0146
 2420TIP3   OH228750   4.165   6.491  17.165 -0.4836 -0.8032  0.4050
 2420TIP3    H128751   4.124   6.492  17.078 -2.5402  1.2258  1.2802
 2420TIP3    H228752   4.103   6.537  17.221  1.9295  0.2521  2.4249
 2421TIP3   OH228753   6.632   0.886   3.135  0.3202 -0.1252 -0.1800
 2421TIP3    H128754   6.680   0.954   3.086 -1.2857  1.3438  0.1890
 2421TIP3    H228755   6.696   0.815   3.146  1.6670  0.7705 -1.7199
 2422TIP3   OH228756   3.704   4.956   3.612 -0.6543 -0.4461 -0.0017
 2422TIP3    H128757   3.796   4.930   3.615 -0.6207 -0.2730  1.7919
 2422TIP3    H228758   3.676   4.952   3.703 -2.5375 -0.8631 -0.5667
 2423TIP3   OH228759   5.368   5.847   2.096 -0.1203  0.1454 -0.2703
 2423TIP3    H128760   5.446   5.812   2.138 -0.1727 -0.0995 -0.3719
 2423TIP3    H228761   5.296   5.817   2.152 -0.2542 -0.8698 -0.9710
 2424TIP3   OH228762   6.387   0.178  15.010 -0.1299 -0.1476 -0.0219
 2424TIP3    H128763   6.474   0.155  15.043 -0.4356  0.2576  1.1193
 2424TIP3    H228764   6.338   0.205  15.088 -1.5409 -1.1460 -0.5214
 2425TIP3   OH228765   0.712   2.364   3.495  0.1741  0.4685 -0.3450
 2425TIP3    H128766   0.631   2.316   3.480 -0.1471  0.6037  0.9333
 2425TIP3    H228767   0.696   2.417   3.572  1.5894  0.2418  0.1367
 2426TIP3   OH228768   2.313   0.818  13.059  0.3243 -0.1507  0.0328
 2426TIP3    H128769   2.263   0.737  13.051  1.7134 -1.0032 -0.4411
 2426TIP3    H228770   2.345   0.817  13.149  1.2697 -0.7302 -0.2901
 2427TIP3   OH228771   2.270   2.982   4.339 -0.3212  0.1202 -0.0672
 2427TIP3    H128772   2.316   2.927   4.402 -1.6668 -0.7573  0.1939
 2427TIP3    H228773   2.285   2.940   4.254 -0.0145  0.2774 -0.0931
 2428TIP3   OH228774   1.508   6.403   5.129 -0.0167  0.2172 -0.1937
 2428TIP3    H128775   1.423   6.385   5.169  0.2999  1.6647  1.2213
 2428TIP3    H228776   1.506   6.356   5.046 -1.7893 -0.6215  0.2827
 2429TIP3   OH228777   4.889   1.557  16.177  0.2453  0.2176 -0.1966
 2429TIP3    H128778   4.837   1.565  16.257  0.6376  0.4528  0.0384
 2429TIP3    H228779   4.944   1.480  16.191 -1.4178 -1.2312 -1.2490
 2430TIP3   OH228780   0.189   6.485  16.127  0.1691 -0.9803 -0.1995
 2430TIP3    H128781   0.247   6.486  16.202 -0.9198  1.6551  0.7100
 2430TIP3    H228782   0.243   6.452  16.055  1.0384 -4.3158  1.7658
 2431TIP3   OH228783   2.276   0.337  14.267 -0.5218  0.7344  0.0875
 2431TIP3    H128784   2.184   0.363  14.268 -0.6131  0.4316 -0.3054
 2431TIP3    H228785   2.276   0.249  14.305 -0.5316  0.3135 -0.8642
 2432TIP3   OH228786   1.232   4.998   5.340  0.4361  0.1876  0.6261
 2432TIP3    H128787   1.151   5.015   5.389 -0.4196 -0.4039 -0.5273
 2432TIP3    H228788   1.255   4.908   5.362  0.5881  0.2389  0.6791
 2433TIP3   OH228789   6.632   0.747   3.781 -0.2613 -0.4209  0.5634
 2433TIP3    H128790   6.578   0.669   3.792  1.8511 -2.0078  0.2647
 2433TIP3    H228791   6.678   0.734   3.698 -0.1583  1.3457  0.2976
 2434TIP3   OH228792   4.030   1.910   5.946  0.5575 -0.2808 -0.5190
 2434TIP3    H128793   4.037   2.001   5.975  1.3759 -0.9349  1.4558
 2434TIP3    H228794   4.113   1.870   5.972 -0.6821 -2.1644  0.8047
 2435TIP3   OH228795   6.691   4.597  13.901  0.1510 -0.0613  0.4706
 2435TIP3    H128796   6.637   4.675  13.889 -2.3443 -1.5754  0.9780
 2435TIP3    H228797   6.674   4.570  13.992  0.8107 -1.2759  0.2604
 2436TIP3   OH228798   0.257   1.241  14.883  0.6625  0.1100  0.5231
 2436TIP3    H128799   0.306   1.206  14.958 -0.5403 -0.8226  0.9248
 2436TIP3    H228800   0.273   1.178  14.813 -0.1018 -0.3372  0.7279
 2437TIP3   OH228801   4.403   4.256   5.756 -0.3518 -0.2928  0.4223
 2437TIP3    H128802   4.425   4.272   5.848  0.2852 -1.8174  0.5589
 2437TIP3    H228803   4.318   4.212   5.759 -1.2811  1.3865  0.1397
 2438TIP3   OH228804   1.831   1.024   3.108 -0.0884  0.6161 -0.1086
 2438TIP3    H128805   1.830   1.044   3.202 -2.4555 -1.3695  0.3852
 2438TIP3    H228806   1.803   1.106   3.066  1.7183  1.7606  0.7803
 2439TIP3   OH228807   3.715   0.276  14.825 -0.5209 -0.1877  0.7181
 2439TIP3    H128808   3.682   0.290  14.914  0.1735  1.7586  0.7159
 2439TIP3    H228809   3.803   0.243  14.837  0.9939  3.4748  0.9161
 2440TIP3   OH228810   3.703   4.575  15.453 -0.1342  0.4501  0.6411
 2440TIP3    H128811   3.718   4.518  15.378 -1.5540 -0.5733  1.0765
 2440TIP3    H228812   3.749   4.532  15.525  1.7025  1.7248  0.2951
 2441TIP3   OH228813   4.138   0.440   4.866  0.1415 -0.3152 -0.0759
 2441TIP3    H128814   4.189   0.400   4.936 -0.7612 -0.8443  0.2950
 2441TIP3    H228815   4.168   0.531   4.863  0.7577 -0.4966  0.4517
 2442TIP3   OH228816   5.253   5.677   0.687 -0.1205  0.6096 -0.0899
 2442TIP3    H128817   5.174   5.641   0.646  0.0832 -0.3599  0.3353
 2442TIP3    H228818   5.224   5.760   0.724 -0.7383  0.6595 -0.6512
 2443TIP3   OH228819   6.334   4.023  12.015 -0.2963 -0.3773 -0.3393
 2443TIP3    H128820   6.385   4.071  11.950  1.5818  1.1629  2.0603
 2443TIP3    H228821   6.261   4.081  12.037  0.9204  0.6398  1.2064
 2444TIP3   OH228822   2.858   2.212   0.354  0.3418  0.7430 -0.0897
 2444TIP3    H128823   2.791   2.236   0.419  1.1551 -0.3522  1.1954
 2444TIP3    H228824   2.900   2.134   0.390 -0.9349 -1.5883 -3.1969
 2445TIP3   OH228825   3.023   4.112  16.888  0.5269 -0.1572  0.2550
 2445TIP3    H128826   3.091   4.089  16.825 -0.4339  1.1107 -1.3335
 2445TIP3    H228827   3.071   4.147  16.963  1.6547 -0.2315 -0.3996
 2446TIP3   OH228828   3.864   6.207  12.150  0.5159  0.4877  0.6136
 2446TIP3    H128829   3.787   6.233  12.100 -0.0322 -0.6660  0.8225
 2446TIP3    H228830   3.839   6.125  12.194  2.1871 -0.5293 -0.1848
 2447TIP3   OH228831   1.557   4.781   5.349 -0.5783  0.6663 -0.4472
 2447TIP3    H128832   1.621   4.794   5.419  0.7410 -2.1994 -0.9497
 2447TIP3    H228833   1.610   4.756   5.273 -2.1755  0.1672 -1.4364
 2448TIP3   OH228834   3.075   3.443  15.329  0.0848 -0.6706 -0.2591
 2448TIP3    H128835   3.009   3.513  15.332 -0.3047 -1.0556  0.7165
 2448TIP3    H228836   3.035   3.371  15.378  1.9766 -0.2526  2.0878
 2449TIP3   OH228837   6.795   6.329   1.500 -0.1158  0.4665  0.1306
 2449TIP3    H128838   6.706   6.306   1.474  0.3224  0.0443 -1.0294
 2449TIP3    H228839   6.788   6.346   1.594 -1.2972 -0.1693  0.1802
 2450TIP3   OH228840   4.352   6.306  14.392 -0.1986  0.5568  0.4300
 2450TIP3    H128841   4.431   6.340  14.434  0.9740 -1.7320  0.2005
 2450TIP3    H228842   4.305   6.384  14.363  1.0640  2.0403  2.1720
 2451TIP3   OH228843   1.670   4.898  13.060  1.1049  0.2325  0.4296
 2451TIP3    H128844   1.617   4.853  12.994  2.4344 -0.9452  0.1144
 2451TIP3    H228845   1.622   4.979  13.078 -1.8512 -1.6363  1.6599
 2452TIP3   OH228846   2.256   2.820   3.957  0.2749 -0.6618  0.2802
 2452TIP3    H128847   2.262   2.746   3.898 -1.5739 -1.7402  1.3564
 2452TIP3    H228848   2.165   2.851   3.949 -0.1861 -1.1498  2.8172
 2453TIP3   OH228849   2.311   4.675  14.092  0.0289  0.8477  0.2047
 2453TIP3    H128850   2.404   4.654  14.086 -0.1862  0.2226 -1.6700
 2453TIP3    H228851   2.272   4.630  14.017 -1.2643  3.9512 -1.1305
 2454TIP3   OH228852   6.440   5.660  14.069 -0.1740  0.0767 -0.2443
 2454TIP3    H128853   6.512   5.712  14.034  0.2327  1.2164  2.0619
 2454TIP3    H228854   6.397   5.623  13.992  0.6581  2.3317 -1.9050
 2455TIP3   OH228855   5.322   1.146  12.062 -0.0026  0.7227  0.1436
 2455TIP3    H128856   5.349   1.054  12.056 -0.1751  0.6587  0.3445
 2455TIP3    H228857   5.391   1.188  12.113 -0.1809  0.6014  0.4821
 2456TIP3   OH228858   4.580   1.329   2.218 -0.0393  0.7218 -0.1844
 2456TIP3    H128859   4.668   1.295   2.203 -0.4785 -1.2277  1.2272
 2456TIP3    H228860   4.548   1.354   2.131  1.9212  1.6048 -0.7018
 2457TIP3   OH228861   1.892   4.279  16.375 -0.0876 -0.0421  0.3720
 2457TIP3    H128862   1.885   4.374  16.380 -2.6322  0.0385 -1.9896
 2457TIP3    H228863   1.825   4.246  16.435 -0.3157 -0.2760 -0.0038
 2458TIP3   OH228864   2.363   5.580   4.557 -0.1796  0.7051  0.2549
 2458TIP3    H128865   2.397   5.499   4.595 -0.8410  0.1371 -0.3416
 2458TIP3    H228866   2.428   5.606   4.492  0.3478  1.0130  0.8909
 2459TIP3   OH228867   3.729   5.727   3.896 -0.1901  0.5139 -0.3484
 2459TIP3    H128868   3.732   5.783   3.819  2.3823 -0.6392 -1.1917
 2459TIP3    H228869   3.769   5.780   3.965 -0.0229  0.6004 -0.5096
 2460TIP3   OH228870   0.721   1.603   2.804 -0.3642  0.1108 -0.5094
 2460TIP3    H128871   0.711   1.509   2.820 -1.0691  0.5218  1.7732
 2460TIP3    H228872   0.761   1.608   2.717  1.4244 -2.3637  0.0495
 2461TIP3   OH228873   3.181   5.143  16.496  0.0432  0.2616  0.5327
 2461TIP3    H128874   3.146   5.231  16.508 -2.5343 -0.7277  0.8621
 2461TIP3    H228875   3.178   5.128  16.401  0.8472  0.6221  0.4368
 2462TIP3   OH228876   1.168   5.165   4.738 -0.4478 -0.2731 -0.2451
 2462TIP3    H128877   1.161   5.153   4.833  0.8588 -0.1956 -0.1228
 2462TIP3    H228878   1.162   5.260   4.726  0.9568 -0.1432 -0.0699
 2463TIP3   OH228879   1.619   2.977  12.274  0.0979  0.0371 -0.1757
 2463TIP3    H128880   1.548   2.992  12.212  0.9684  1.2447 -0.9364
 2463TIP3    H228881   1.580   2.995  12.360 -1.3163 -2.3579 -0.2330
 2464TIP3   OH228882   5.825   0.868   2.193  0.2443  0.1469  0.2769
 2464TIP3    H128883   5.829   0.940   2.130  2.8839  0.1205  0.3269
 2464TIP3    H228884   5.873   0.797   2.151  2.2068  0.1702  2.3329
 2465TIP3   OH228885   5.344   1.619  10.696  0.1800 -0.4010  0.2019
 2465TIP3    H128886   5.378   1.708  10.692 -0.6952 -0.0899 -2.1029
 2465TIP3    H228887   5.407   1.571  10.749  1.6086  1.1995  0.0204
 2466TIP3   OH228888   1.003   6.599  10.795 -0.1056  0.2080  0.4380
 2466TIP3    H128889   0.932   6.569  10.739  0.4771 -0.6638  0.1425
 2466TIP3    H228890   1.082   6.585  10.742  0.4674 -0.7658  1.5112
 2467TIP3   OH228891   3.063   4.957  16.684 -0.4998 -0.1596  0.0909
 2467TIP3    H128892   3.044   5.020  16.754  0.8703  0.0359  0.3101
 2467TIP3    H228893   3.102   5.010  16.615  0.0964 -0.6735  0.0288
 2468TIP3   OH228894   2.406   0.365  13.207  0.0381  0.2940  1.0122
 2468TIP3    H128895   2.359   0.288  13.240  0.9943 -0.0396  1.6446
 2468TIP3    H228896   2.494   0.333  13.188  0.0505  0.9321 -0.0628
 2469TIP3   OH228897   0.070   5.835  13.834 -0.0572 -0.6253 -0.4306
 2469TIP3    H128898   0.062   5.789  13.918  0.2823 -0.5614 -0.3585
 2469TIP3    H228899   0.014   5.787  13.774 -1.3107  0.0605  0.1343
 2470TIP3   OH228900   4.766   4.331   5.771  0.9286 -0.1767 -0.3693
 2470TIP3    H128901   4.710   4.270   5.722 -0.9133  0.8807  0.2874
 2470TIP3    H228902   4.770   4.293   5.859  1.2881 -0.2656 -0.4231
 2471TIP3   OH228903   5.050   5.676   1.174  0.1684  0.7279  0.4821
 2471TIP3    H128904   5.094   5.741   1.120 -1.4798  2.4869  1.1461
 2471TIP3    H228905   5.097   5.678   1.257  0.5483  0.5581  0.2741
 2472TIP3   OH228906   6.260   0.072   2.123  0.1222  0.2674  0.0364
 2472TIP3    H128907   6.245  -0.022   2.112  1.7818  0.0218 -0.3707
 2472TIP3    H228908   6.312   0.078   2.203 -2.5731  1.1487  1.8665
 2473TIP3   OH228909   5.144   4.232   0.769  0.5794  0.5115  0.0844
 2473TIP3    H128910   5.091   4.310   0.751  0.4953  0.0995 -1.5925
 2473TIP3    H228911   5.232   4.254   0.737  0.5899 -0.0303 -0.2706
 2474TIP3   OH228912   4.298   0.355  13.069  0.1914  0.5766  0.1171
 2474TIP3    H128913   4.366   0.335  13.005  0.6210  1.0898  0.4011
 2474TIP3    H228914   4.344   0.357  13.153 -0.2211  0.6818  0.3427
 2475TIP3   OH228915   2.514   3.712  13.293  0.0333 -0.8770 -0.7257
 2475TIP3    H128916   2.472   3.628  13.308  2.1834 -1.6756  1.5838
 2475TIP3    H228917   2.576   3.696  13.222  0.9062 -1.4624  0.1491
 2476TIP3   OH228918   3.063   0.491  15.590 -0.0228  0.0850  0.2090
 2476TIP3    H128919   3.065   0.582  15.560 -0.9186  0.0399  0.0027
 2476TIP3    H228920   3.006   0.493  15.667  2.4121  0.2462  2.1567
 2477TIP3   OH228921   4.504   4.112  14.161 -0.1091 -0.0402 -0.4073
 2477TIP3    H128922   4.532   4.174  14.094 -1.4150 -0.2007 -1.1239
 2477TIP3    H228923   4.470   4.037  14.113 -0.7115 -0.3236  0.4292
 2478TIP3   OH228924   0.486   1.539  15.686 -0.1210  0.1556  0.2811
 2478TIP3    H128925   0.563   1.592  15.704  0.1043 -0.6315  1.7778
 2478TIP3    H228926   0.438   1.588  15.620  0.7652  1.5233  0.6174
 2479TIP3   OH228927   5.279   6.549  14.213  0.4433  0.5617  0.0595
 2479TIP3    H128928   5.326   6.591  14.141 -1.3553 -1.4318 -2.4470
 2479TIP3    H228929   5.286   6.455  14.196 -2.1026  0.1075  1.0553
 2480TIP3   OH228930   3.833   2.182   5.703 -0.3373  0.4821  0.5617
 2480TIP3    H128931   3.809   2.173   5.795  0.8013 -1.2184  0.7282
 2480TIP3    H228932   3.751   2.207   5.660 -1.9036 -2.5709  1.4697
 2481TIP3   OH228933   0.120   6.249  13.136 -0.3696 -0.1014  0.6762
 2481TIP3    H128934   0.165   6.290  13.210  0.3587 -0.6140  0.5300
 2481TIP3    H228935   0.149   6.299  13.060 -0.2064 -0.2932  0.6089
 2482TIP3   OH228936   5.959   4.435  16.355 -0.2989 -0.2865 -0.1511
 2482TIP3    H128937   6.031   4.400  16.302  0.8153 -1.9325  2.2668
 2482TIP3    H228938   5.997   4.447  16.442 -2.5553  0.3777  0.8156
 2483TIP3   OH228939   2.813   4.849  14.452  0.0626 -0.5358  0.3469
 2483TIP3    H128940   2.855   4.906  14.387 -2.0134  0.4752 -0.1912
 2483TIP3    H228941   2.828   4.760  14.419 -1.7107 -0.0376 -2.1304
 2484TIP3   OH228942   0.339   3.409   2.175  0.7175  0.6698  0.3659
 2484TIP3    H128943   0.341   3.471   2.248  1.2203  1.1936 -0.0754
 2484TIP3    H228944   0.351   3.464   2.097  0.7635  0.0582 -0.0679
 2485TIP3   OH228945   5.805   2.397   0.501  0.3523  0.1437  0.1440
 2485TIP3    H128946   5.857   2.358   0.430 -0.1475 -1.6513  0.7165
 2485TIP3    H228947   5.718   2.408   0.463  0.3163  0.0518  0.2014
 2486TIP3   OH228948   5.908   5.328  10.740 -0.6361  0.0763 -0.0863
 2486TIP3    H128949   5.849   5.384  10.688  1.3180 -0.0143 -2.6154
 2486TIP3    H228950   5.984   5.383  10.756  0.0332 -0.8875  0.0885
 2487TIP3   OH228951   3.560   0.976   0.250  0.7919  0.1017 -0.0891
 2487TIP3    H128952   3.479   1.026   0.250  0.2046 -0.8371 -0.4593
 2487TIP3    H228953   3.625   1.034   0.211  0.3288  0.9010  0.3237
 2488TIP3   OH228954   0.542   0.132   3.417  0.4819 -0.1195 -0.0022
 2488TIP3    H128955   0.593   0.209   3.442  0.6001 -0.0301 -0.5044
 2488TIP3    H228956   0.580   0.104   3.334 -1.4545  1.0227 -1.3379
 2489TIP3   OH228957   2.848   1.893  14.735 -0.2872  0.3091 -0.4929
 2489TIP3    H128958   2.911   1.839  14.783 -1.1681 -0.6106 -0.3073
 2489TIP3    H228959   2.901   1.947  14.677  0.7052  0.1533  0.2394
 2490TIP3   OH228960   4.645   2.870   3.813 -0.0383 -0.4710 -0.1797
 2490TIP3    H128961   4.562   2.875   3.765 -0.3949 -1.0907  0.3551
 2490TIP3    H228962   4.688   2.791   3.780 -0.0788 -0.6492  0.1841
 2491TIP3   OH228963   3.443   1.308   3.643  0.4750 -0.3784  0.0755
 2491TIP3    H128964   3.413   1.332   3.731  2.5069  0.2946  0.6228
 2491TIP3    H228965   3.452   1.213   3.647 -0.9719 -0.5470  0.0559
 2492TIP3   OH228966   4.778   5.862   0.524  0.8794 -0.1458  0.3285
 2492TIP3    H128967   4.730   5.853   0.442  1.8501 -1.6861 -0.0984
 2492TIP3    H228968   4.866   5.890   0.498  0.4481  2.0783  1.0647
 2493TIP3   OH228969   4.855   4.449  15.628 -0.4071  0.2010  0.5718
 2493TIP3    H128970   4.881   4.374  15.681 -1.7990 -0.0071  0.9916
 2493TIP3    H228971   4.845   4.415  15.539 -0.8230 -0.0602  0.7204
 2494TIP3   OH228972   6.247   1.046  14.936  0.0619  0.1022 -0.3719
 2494TIP3    H128973   6.300   1.089  15.003 -2.3628  3.5037 -0.3697
 2494TIP3    H228974   6.290   1.067  14.853 -0.2276  1.2781 -0.2434
 2495TIP3   OH228975   0.463   2.286   2.179  0.1072 -0.3566  0.1126
 2495TIP3    H128976   0.525   2.298   2.251  1.5312 -1.6385 -0.8313
 2495TIP3    H228977   0.518   2.267   2.103 -1.3657  0.8968 -1.3240
 2496TIP3   OH228978   2.470   5.190   2.780  0.3838  0.0436  0.1372
 2496TIP3    H128979   2.386   5.230   2.757 -0.0597 -0.1486  1.3462
 2496TIP3    H228980   2.464   5.173   2.874  1.2380 -1.2494 -0.0047
 2497TIP3   OH228981   5.587   4.736  11.058 -0.0302 -0.7007 -0.8194
 2497TIP3    H128982   5.627   4.803  11.003  1.7480 -0.1584  1.0160
 2497TIP3    H228983   5.494   4.760  11.061  0.2617  0.6410 -1.6273
 2498TIP3   OH228984   4.365   2.615  16.605 -0.3004 -0.1049 -0.3515
 2498TIP3    H128985   4.306   2.667  16.551  1.4283  2.3114 -0.0741
 2498TIP3    H228986   4.312   2.589  16.681 -0.7556  3.1882  0.6044
 2499TIP3   OH228987   6.216   6.633  16.204  0.0151 -0.4704  0.7419
 2499TIP3    H128988   6.186   6.697  16.140 -1.9385  0.6792  2.6580
 2499TIP3    H228989   6.311   6.628  16.191 -0.1197  0.8900 -1.1241
 2500TIP3   OH228990   3.274   4.704  16.360 -0.0244  0.0569  0.7456
 2500TIP3    H128991   3.180   4.721  16.370 -0.0657 -0.2982  0.9502
 2500TIP3    H228992   3.279   4.639  16.290  0.0945  0.3692  0.4611
 2501TIP3   OH228993   5.792   5.070  12.344 -0.1908  0.5307 -0.2482
 2501TIP3    H128994   5.813   4.983  12.311 -0.7372 -0.1666  1.1530
 2501TIP3    H228995   5.723   5.102  12.286  0.5251  0.3553 -1.2226
 2502TIP3   OH228996   3.815   3.412   5.298 -0.0990 -0.3129  0.0640
 2502TIP3    H128997   3.741   3.470   5.285 -0.2670 -0.3073  0.9690
 2502TIP3    H228998   3.785   3.327   5.266 -0.4477 -0.2773  0.2900
 2503TIP3   OH228999   3.662   1.272   5.680  0.8607  0.2501  0.1133
 2503TIP3    H129000   3.636   1.275   5.772  1.0096 -2.6647  0.3423
 2503TIP3    H229001   3.580   1.257   5.632  1.0421 -0.6005  0.0411
 2504TIP3   OH229002   5.066   4.532   0.160  0.3049 -0.1121  0.6480
 2504TIP3    H129003   5.051   4.616   0.204  1.1521  1.5260 -1.9549
 2504TIP3    H229004   5.157   4.509   0.182  0.7895  0.8001 -0.2730
 2505TIP3   OH229005   4.485   0.353  11.825 -0.4333  0.0788 -0.2918
 2505TIP3    H129006   4.522   0.416  11.887 -0.6752  0.1127 -0.1800
 2505TIP3    H229007   4.548   0.351  11.752  0.3384 -0.6752  0.3800
 2506TIP3   OH229008   3.973   1.638  14.242  0.5692 -0.3621 -0.2512
 2506TIP3    H129009   4.042   1.675  14.186  0.7267  0.1535  0.2663
 2506TIP3    H229010   3.914   1.594  14.181 -0.1154  1.5107 -1.0212
 2507TIP3   OH229011   1.237   4.447  13.456 -0.2231 -0.8232 -0.2940
 2507TIP3    H129012   1.172   4.388  13.416 -0.1721 -2.3403  1.7004
 2507TIP3    H229013   1.237   4.422  13.549  1.0474  1.2199  0.3077
 2508TIP3   OH229014   6.327   3.788  11.391  0.4224 -0.4291 -0.8028
 2508TIP3    H129015   6.420   3.772  11.410  0.2598 -1.0011 -0.4451
 2508TIP3    H229016   6.308   3.732  11.316  0.0177 -1.4739  0.0361
 2509TIP3   OH229017   2.157   0.348   3.998 -0.2103 -0.6318  0.3147
 2509TIP3    H129018   2.137   0.376   4.087  0.2194 -0.6503  0.4179
 2509TIP3    H229019   2.074   0.311   3.965 -0.4825 -0.2521  0.5598
 2510TIP3   OH229020   0.164   0.658  15.179  0.3090 -0.0205  0.4842
 2510TIP3    H129021   0.159   0.600  15.255  0.6108  1.7360  1.8975
 2510TIP3    H229022   0.079   0.647  15.135 -0.1084 -0.6056  1.4070
 2511TIP3   OH229023   3.523   3.638   6.580 -0.1145  0.3803  0.1692
 2511TIP3    H129024   3.566   3.703   6.524 -0.1571  2.0948  2.0061
 2511TIP3    H229025   3.595   3.583   6.612  0.2070  0.7739  0.1348
 2512TIP3   OH229026   1.181   3.550  10.949 -0.2195 -0.5998  0.1192
 2512TIP3    H129027   1.191   3.632  10.998 -0.1171  0.3840 -1.4882
 2512TIP3    H229028   1.270   3.514  10.943 -0.3828 -1.3199  1.5827
 2513TIP3   OH229029   0.707   6.800  15.349  0.1321  1.1365 -0.9135
 2513TIP3    H129030   0.753   6.848  15.417 -0.5412  0.6428 -0.1030
 2513TIP3    H229031   0.770   6.796  15.277  0.3699  2.8350 -0.8571
 2514TIP3   OH229032   5.067   5.717  16.515 -0.1049  0.2437  0.0570
 2514TIP3    H129033   4.977   5.686  16.508  0.0575  0.0515 -1.5813
 2514TIP3    H229034   5.114   5.672  16.443  1.9085 -1.6654  2.3702
 2515TIP3   OH229035   2.905   6.352  11.441  0.2003  0.3253 -0.4471
 2515TIP3    H129036   2.824   6.311  11.473 -0.1368  0.6040 -0.9261
 2515TIP3    H229037   2.874   6.427  11.390  0.7734  0.5441 -0.4731
 2516TIP3   OH229038   2.599   2.380  11.603 -0.2798  0.4790  0.1076
 2516TIP3    H129039   2.674   2.438  11.591  1.1334 -1.4957 -1.2122
 2516TIP3    H229040   2.611   2.342  11.690 -1.3132  2.1976  1.0586
 2517TIP3   OH229041   6.219   2.787  11.808 -0.0943  0.2824  0.2571
 2517TIP3    H129042   6.308   2.802  11.776 -0.5388  0.6766 -0.8573
 2517TIP3    H229043   6.212   2.692  11.817  0.0643  0.1413 -0.8727
 2518TIP3   OH229044   3.757   1.824   2.919 -0.0021 -0.2543 -0.3477
 2518TIP3    H129045   3.791   1.836   2.830 -0.0361  0.1509 -0.3088
 2518TIP3    H229046   3.704   1.745   2.914 -1.8927  0.9940 -1.2545
 2519TIP3   OH229047   1.666   1.286  15.966  0.2625  1.0031 -0.4134
 2519TIP3    H129048   1.754   1.262  15.994  0.0771  2.2033  1.3045
 2519TIP3    H229049   1.623   1.202  15.949  0.6543  0.1837  2.1932
 2520TIP3   OH229050   4.543   2.019  11.590 -0.0610  0.1045  0.3684
 2520TIP3    H129051   4.452   1.998  11.569 -0.2628 -2.4243  3.0475
 2520TIP3    H229052   4.546   2.019  11.686  2.8120 -0.1294  0.3614
 2521TIP3   OH229053   5.937   0.174  15.053  0.2868 -0.6178 -0.1343
 2521TIP3    H129054   5.981   0.255  15.024  0.4168  0.2920  2.3140
 2521TIP3    H229055   5.860   0.167  14.997 -0.1987  1.7247  0.1366
 2522TIP3   OH229056   2.293   5.718  14.610  0.5635  0.0065  0.5858
 2522TIP3    H129057   2.370   5.660  14.608  1.3826  1.0868 -0.7028
 2522TIP3    H229058   2.329   5.804  14.633 -0.6826  0.0186  2.8420
 2523TIP3   OH229059   0.877   3.795   6.076 -0.1329  0.0252  0.2559
 2523TIP3    H129060   0.877   3.708   6.115 -0.9855 -0.2924 -0.4019
 2523TIP3    H229061   0.963   3.831   6.095  0.5336 -1.2939 -0.1934
 2524TIP3   OH229062   1.411   4.039   6.100  0.0952  0.1834  0.2147
 2524TIP3    H129063   1.467   4.037   6.022 -0.5695 -1.7285 -0.2862
 2524TIP3    H229064   1.385   4.130   6.109  1.4532  0.7126 -0.8738
 2525TIP3   OH229065   4.110   3.098  14.195  0.2574 -0.0131 -0.1648
 2525TIP3    H129066   4.110   3.135  14.107  1.1982  0.3329 -0.0378
 2525TIP3    H229067   4.163   3.159  14.247 -0.9305  0.2033  0.8303
 2526TIP3   OH229068   1.751   5.734  10.383  0.9154 -0.2712 -0.2089
 2526TIP3    H129069   1.693   5.748  10.308  2.0312  1.1494 -0.8736
 2526TIP3    H229070   1.777   5.642  10.378 -1.0348 -0.8695 -0.0395
 2527TIP3   OH229071   6.702   2.459   3.910  0.1178  0.5170  0.1133
 2527TIP3    H129072   6.757   2.503   3.846 -1.6749 -1.0023 -2.6494
 2527TIP3    H229073   6.762   2.406   3.962  1.5473  1.2701 -0.7122
 2528TIP3   OH229074   3.358   0.632  12.143 -0.2226 -0.0863 -0.0115
 2528TIP3    H129075   3.316   0.701  12.195 -0.8356  0.6232 -1.4026
 2528TIP3    H229076   3.382   0.565  12.208  1.4889  1.9207  1.5836
 2529TIP3   OH229077   0.586   4.594  16.549  0.0729  0.4470 -0.0498
 2529TIP3    H129078   0.553   4.677  16.584  0.1370  0.6048 -0.3676
 2529TIP3    H229079   0.655   4.618  16.489  1.4508  0.0709  1.3224
 2530TIP3   OH229080   6.381   1.841  13.621 -0.2859  0.0546 -0.1707
 2530TIP3    H129081   6.456   1.808  13.570  0.0208  1.2546 -0.5177
 2530TIP3    H229082   6.310   1.779  13.601  0.9847 -2.0690  1.4253
 2531TIP3   OH229083   3.976   5.262  17.035 -0.3848  0.2656 -0.1680
 2531TIP3    H129084   3.923   5.183  17.029 -0.1412  0.0820  0.0517
 2531TIP3    H229085   4.010   5.275  16.947 -1.4286  0.8376 -0.5114
 2532TIP3   OH229086   1.656   5.789   0.881  0.4227 -0.6731  0.1758
 2532TIP3    H129087   1.620   5.863   0.832 -0.9267 -0.4743  1.4028
 2532TIP3    H229088   1.749   5.809   0.889  0.5698 -0.4272 -1.7623
 2533TIP3   OH229089   4.607   0.236  15.384 -0.9367  0.6230  0.1776
 2533TIP3    H129090   4.555   0.214  15.461 -0.1865  2.5962  1.3177
 2533TIP3    H229091   4.557   0.201  15.310 -1.6063 -1.4510  1.5301
 2534TIP3   OH229092   3.556   6.675  16.450  0.1832  0.0441  0.0706
 2534TIP3    H129093   3.539   6.675  16.544  0.6117  1.0001  0.1627
 2534TIP3    H229094   3.469   6.669  16.410  0.0186 -0.6411  0.5182
 2535TIP3   OH229095   5.394   0.162  15.826  0.2664  0.6448  0.3856
 2535TIP3    H129096   5.444   0.229  15.873  0.5889 -0.3048  1.4486
 2535TIP3    H229097   5.337   0.211  15.767  1.4098  1.8046  0.1995
 2536TIP3   OH229098   5.378   4.413  13.223 -0.6896  0.0578  0.1193
 2536TIP3    H129099   5.372   4.487  13.284 -2.6849  0.3722 -0.4079
 2536TIP3    H229100   5.303   4.358  13.243 -0.4224 -0.7305 -0.9349
 2537TIP3   OH229101   0.930   0.031  16.299  0.0987 -0.3071  0.8983
 2537TIP3    H129102   0.852   0.034  16.355 -0.3081 -1.8020  0.4446
 2537TIP3    H229103   0.902  -0.013  16.219  0.8367  1.2286 -0.2638
 2538TIP3   OH229104   1.491   2.374   2.408 -0.0334 -1.2676  0.7747
 2538TIP3    H129105   1.553   2.442   2.433 -0.2368 -0.1928 -1.3817
 2538TIP3    H229106   1.459   2.338   2.491  2.2275 -0.7460  1.9402
 2539TIP3   OH229107   4.331   3.250  16.566  0.2003 -0.1138 -0.0600
 2539TIP3    H129108   4.318   3.302  16.646 -0.1999 -2.3830  1.4330
 2539TIP3    H229109   4.243   3.228  16.536  0.3716 -0.4178 -0.3524
 2540TIP3   OH229110   5.960   2.266   6.117 -0.5386  0.1206  0.3681
 2540TIP3    H129111   5.955   2.270   6.213  0.7124  0.7881  0.4306
 2540TIP3    H229112   5.869   2.270   6.088 -0.8773  1.6857  1.4815
 2541TIP3   OH229113   5.360   6.057   0.571  0.1914  0.4953 -0.2687
 2541TIP3    H129114   5.367   6.052   0.475  1.2642  0.8785 -0.2200
 2541TIP3    H229115   5.450   6.070   0.601  0.0493 -1.0276  0.8922
 2542TIP3   OH229116   3.438   2.369   3.842 -0.5809  0.3961  0.3612
 2542TIP3    H129117   3.498   2.305   3.881 -2.1776 -1.2420  0.2861
 2542TIP3    H229118   3.361   2.317   3.816 -1.6113  2.2339 -0.4689
 2543TIP3   OH229119   5.069   3.598  13.436 -0.4555  0.0528 -0.2884
 2543TIP3    H129120   5.140   3.653  13.401 -1.2440  1.1797 -0.1782
 2543TIP3    H229121   4.989   3.641  13.405 -1.1362 -2.2882 -2.1165
 2544TIP3   OH229122   2.022   1.264  16.847  0.2687  0.0841 -0.2743
 2544TIP3    H129123   1.960   1.331  16.877  0.0884 -1.1458  2.3861
 2544TIP3    H229124   2.104   1.312  16.833  0.6697  0.7663  3.3164
 2545TIP3   OH229125   3.935   4.734   4.156  0.6107 -0.0147 -0.0911
 2545TIP3    H129126   3.935   4.639   4.171 -0.0050  0.1504  1.0632
 2545TIP3    H229127   3.846   4.762   4.177  0.5371  0.7150 -1.2558
 2546TIP3   OH229128   2.042   5.857   5.674 -0.0632 -0.1961  0.0003
 2546TIP3    H129129   2.086   5.934   5.638  0.8075  0.2193  1.8040
 2546TIP3    H229130   1.950   5.881   5.680  0.1535  0.5845  0.2468
 2547TIP3   OH229131   3.055   4.516   5.042  0.4501  0.7821  0.0213
 2547TIP3    H129132   2.990   4.499   5.110 -1.4195  0.0664 -1.8545
 2547TIP3    H229133   3.132   4.466   5.069 -0.4011  0.1460  1.3638
 2548TIP3   OH229134   3.571   2.193  14.241  0.1906 -0.2472  0.3529
 2548TIP3    H129135   3.617   2.144  14.310 -0.3959  2.5725  2.9860
 2548TIP3    H229136   3.634   2.260  14.215 -0.2387 -0.2141 -0.6162
 2549TIP3   OH229137   3.701   6.762   1.026  0.2146  0.5121  0.2793
 2549TIP3    H129138   3.722   6.675   0.994  0.1502  1.2364 -1.9111
 2549TIP3    H229139   3.745   6.821   0.965 -1.7191  2.0228  0.2572
 2550TIP3   OH229140   4.646   4.927   4.654 -0.3642  0.2561 -0.2298
 2550TIP3    H129141   4.644   4.914   4.748 -0.4623  3.3032  0.3044
 2550TIP3    H229142   4.610   4.846   4.617 -0.3296 -1.0013  2.3068
 2551TIP3   OH229143   2.975   4.562  15.542  0.1982 -0.1681  0.7641
 2551TIP3    H129144   3.044   4.626  15.560  1.9619 -0.9887 -2.3242
 2551TIP3    H229145   2.895   4.614  15.538  1.3025  1.5798  0.1830
 2552TIP3   OH229146   1.802   3.486  16.028 -0.2595  0.4402  0.3676
 2552TIP3    H129147   1.740   3.488  16.101  0.5231  0.8547  1.0399
 2552TIP3    H229148   1.871   3.548  16.053 -0.5900  1.5433 -1.2998
 2553TIP3   OH229149   5.130   3.033  16.908  0.1850 -0.1555  0.2019
 2553TIP3    H129150   5.113   2.939  16.903  0.6021 -0.2772  0.9222
 2553TIP3    H229151   5.222   3.039  16.931  0.4579  0.4569 -0.9817
 2554TIP3   OH229152   2.956   6.153  12.310  0.4911  0.9427  0.0405
 2554TIP3    H129153   2.992   6.108  12.386 -0.2537 -0.1498 -0.2210
 2554TIP3    H229154   3.001   6.237  12.307  0.1006  1.2605  2.0385
 2555TIP3   OH229155   1.479   2.971   1.994 -0.5105 -0.3462  0.3121
 2555TIP3    H129156   1.543   2.988   1.925 -2.3223 -0.4832 -1.5199
 2555TIP3    H229157   1.408   2.925   1.950 -2.1820  0.3721  2.0796
 2556TIP3   OH229158   1.529   6.333  11.750 -0.3762  0.3285 -0.2208
 2556TIP3    H129159   1.509   6.256  11.697 -0.0987  1.1812 -1.6133
 2556TIP3    H229160   1.619   6.320  11.778 -0.5508 -0.1658  0.1379
 2557TIP3   OH229161   2.622   4.170  10.662  0.0792  0.1033 -0.0899
 2557TIP3    H129162   2.576   4.243  10.703 -1.0999  0.3170 -1.6718
 2557TIP3    H229163   2.628   4.104  10.731 -1.8610  0.4149  0.4395
 2558TIP3   OH229164   5.393   3.202   4.924 -0.9578 -0.9234 -0.0683
 2558TIP3    H129165   5.323   3.231   4.865 -0.1682  2.0345  0.3046
 2558TIP3    H229166   5.416   3.279   4.974  3.1915 -1.4577 -0.7626
 2559TIP3   OH229167   3.330   0.492  13.493 -0.1302 -0.0038  0.2068
 2559TIP3    H129168   3.411   0.530  13.527 -0.5245  2.7909 -1.5672
 2559TIP3    H229169   3.353   0.403  13.469  2.0233  0.2474  1.0934
 2560TIP3   OH229170   4.521   4.641   1.112 -0.3293  0.5554 -0.1510
 2560TIP3    H129171   4.458   4.665   1.180 -0.1744  0.5705 -0.0116
 2560TIP3    H229172   4.581   4.715   1.108  0.8927 -0.3112  1.1652
 2561TIP3   OH229173   3.500   5.182   4.550  0.2473 -0.1068  0.2479
 2561TIP3    H129174   3.431   5.119   4.528  1.0894 -0.4098 -1.7042
 2561TIP3    H229175   3.581   5.139   4.525  1.1198  0.5576  1.7942
 2562TIP3   OH229176   0.533   5.852   6.338 -0.1009 -0.2268 -0.7374
 2562TIP3    H129177   0.484   5.884   6.262 -1.9007  0.1946  0.5498
 2562TIP3    H229178   0.588   5.925   6.364 -2.3927  1.1230  0.6952
 2563TIP3   OH229179   3.157   1.668   4.362 -0.3475  0.1342 -0.9799
 2563TIP3    H129180   3.250   1.650   4.364 -0.4112 -0.2604 -1.5766
 2563TIP3    H229181   3.145   1.729   4.289 -0.5464  0.2357 -0.8643
 2564TIP3   OH229182   0.638   5.950   3.390  0.1555 -0.0679 -0.3372
 2564TIP3    H129183   0.704   5.971   3.323 -0.6292  0.5390 -0.9406
 2564TIP3    H229184   0.555   5.961   3.345 -0.3737 -0.5612  0.4984
 2565TIP3   OH229185   4.122   0.907  14.516 -0.4900  0.2654  0.2419
 2565TIP3    H129186   4.103   0.983  14.461  1.2286 -0.2776 -1.2253
 2565TIP3    H229187   4.179   0.852  14.461  0.2878 -0.9094  2.1312
 2566TIP3   OH229188   2.087   2.891  15.051  0.2652 -0.3204  0.4124
 2566TIP3    H129189   2.121   2.977  15.027 -0.1928 -0.0218  0.8152
 2566TIP3    H229190   2.045   2.905  15.136 -0.8860 -0.6735 -0.0772
 2567TIP3   OH229191   0.222   3.910  14.926 -0.0867  0.2123 -0.2832
 2567TIP3    H129192   0.134   3.918  14.892 -0.3396 -1.2802 -0.0526
 2567TIP3    H229193   0.273   3.871  14.855  0.6393  1.9075 -0.7463
 2568TIP3   OH229194   1.897   3.149  15.398  1.2038 -0.9469 -0.3739
 2568TIP3    H129195   1.869   3.180  15.484 -0.3266 -1.5541 -0.6062
 2568TIP3    H229196   1.983   3.189  15.384  0.6265  0.7523  0.5983
 2569TIP3   OH229197   4.996   6.758  17.016 -0.2262 -0.1837  0.0215
 2569TIP3    H129198   5.069   6.724  17.068  0.1682  0.2875 -0.2141
 2569TIP3    H229199   4.932   6.788  17.081  0.6963  1.3422  0.2829
 2570TIP3   OH229200   0.420   3.042   0.629  1.0168 -0.1872 -0.2219
 2570TIP3    H129201   0.467   2.994   0.697 -1.2372 -1.6757  0.4285
 2570TIP3    H229202   0.335   3.061   0.668  0.7802  1.7610 -1.5520
 2571TIP3   OH229203   1.846   5.589   5.869 -0.2963  0.3458 -0.1130
 2571TIP3    H129204   1.825   5.527   5.800 -0.1033 -0.4831  0.5451
 2571TIP3    H229205   1.940   5.577   5.884 -0.5220 -0.2590  0.9938
 2572TIP3   OH229206   5.019   5.955   6.298  0.4455  0.2744 -0.1082
 2572TIP3    H129207   4.959   5.907   6.241 -0.1499  0.7359  0.1159
 2572TIP3    H229208   5.033   5.896   6.373 -1.3823  0.9568  0.8431
 2573TIP3   OH229209   3.787   2.737   2.311  0.4694  0.1261 -0.2371
 2573TIP3    H129210   3.807   2.824   2.346  3.0053 -1.1585  1.7672
 2573TIP3    H229211   3.711   2.709   2.362 -0.5453  1.2013 -1.0845
 2574TIP3   OH229212   2.356   0.793  14.471 -0.0826 -0.0877 -0.4013
 2574TIP3    H129213   2.324   0.787  14.381  0.8765 -1.1696 -0.6929
 2574TIP3    H229214   2.371   0.702  14.497  0.6923  0.2740  0.4572
 2575TIP3   OH229215   1.473   2.462   3.342 -0.4610  0.2544  0.1221
 2575TIP3    H129216   1.421   2.518   3.284 -1.4300  1.3727  1.9661
 2575TIP3    H229217   1.457   2.497   3.429  1.0100 -1.3101  1.0809
 2576TIP3   OH229218   2.239   3.892  14.875 -0.6463  0.6128  0.0973
 2576TIP3    H129219   2.195   3.875  14.959  0.7618 -1.7471  0.4477
 2576TIP3    H229220   2.330   3.865  14.890 -0.4277 -0.1520 -2.2607
 2577TIP3   OH229221   2.021   4.776  14.018  0.3117 -0.5458 -0.0545
 2577TIP3    H129222   2.079   4.703  13.997  1.0995 -0.1579  0.7408
 2577TIP3    H229223   1.955   4.774  13.948  1.1977 -1.0693 -0.9083
 2578TIP3   OH229224   6.114   6.366  12.772 -0.1450 -0.1248 -0.0310
 2578TIP3    H129225   6.083   6.386  12.684  0.2319 -2.0776 -0.6563
 2578TIP3    H229226   6.040   6.323  12.814  0.7122 -2.3122 -0.6078
 2579TIP3   OH229227   3.905   2.900  14.388  0.3249  0.0111 -0.4997
 2579TIP3    H129228   3.833   2.960  14.370  0.6567  0.5317 -0.1078
 2579TIP3    H229229   3.958   2.902  14.308 -0.2096 -0.5582 -0.8845
 2580TIP3   OH229230   1.199   1.973  11.753  0.0763 -0.1163  0.1380
 2580TIP3    H129231   1.236   1.912  11.817 -0.3767 -0.2746  0.2490
 2580TIP3    H229232   1.181   1.919  11.676 -0.4426 -0.1487  0.2800
 2581TIP3   OH229233   6.685   0.640  12.815 -0.1733 -0.0469  0.4504
 2581TIP3    H129234   6.757   0.577  12.814  1.1742  1.4472  0.5495
 2581TIP3    H229235   6.724   0.721  12.847 -2.0419  0.6622  1.0841
 2582TIP3   OH229236   4.641   4.915   5.434 -0.2253 -0.0915 -0.0011
 2582TIP3    H129237   4.589   4.866   5.370  0.6170 -2.2702  0.8755
 2582TIP3    H229238   4.671   4.992   5.386  2.2849 -2.7149 -3.1047
 2583TIP3   OH229239   1.428   0.645  16.837 -0.0015  0.1264  0.2926
 2583TIP3    H129240   1.426   0.690  16.753  0.4242  4.8955  2.5002
 2583TIP3    H229241   1.336   0.643  16.865 -0.0594 -0.7589  0.0455
 2584TIP3   OH229242   3.429   0.450  12.517  0.3037  0.0638 -0.4982
 2584TIP3    H129243   3.416   0.516  12.585  0.2564 -0.7082  0.2503
 2584TIP3    H229244   3.343   0.410  12.505  0.3321  0.1271 -0.9524
 2585TIP3   OH229245   0.679   4.631   5.230  0.2641  0.0194  0.9402
 2585TIP3    H129246   0.655   4.580   5.308 -0.2245  0.7855  1.2996
 2585TIP3    H229247   0.712   4.565   5.168 -1.2431 -0.8565  1.0268
 2586TIP3   OH229248   2.360   4.664   3.234  0.6718  0.4007  0.3707
 2586TIP3    H129249   2.288   4.715   3.196  0.9927 -0.8515 -2.1211
 2586TIP3    H229250   2.315   4.594   3.282  0.1815 -0.3017 -1.0618
 2587TIP3   OH229251   2.871   5.990   2.607 -0.2832 -0.3840 -0.0356
 2587TIP3    H129252   2.855   6.058   2.541 -0.7930 -0.8753 -0.4330
 2587TIP3    H229253   2.788   5.981   2.653 -0.1033 -0.4668  0.2753
 2588TIP3   OH229254   6.402   2.621  10.488  0.5019 -0.0622 -0.3085
 2588TIP3    H129255   6.461   2.651  10.419 -1.0029  0.5799 -1.3804
 2588TIP3    H229256   6.437   2.536  10.515  1.1120 -0.3602 -1.9069
 2589TIP3   OH229257   1.293   5.452   1.744 -0.4044  0.7054  0.0550
 2589TIP3    H129258   1.341   5.503   1.809 -1.5166  1.8263  0.0512
 2589TIP3    H229259   1.204   5.446   1.780 -0.5705 -0.2490 -0.5017
 2590TIP3   OH229260   1.022   1.904   5.552  0.1020 -0.0936  0.2808
 2590TIP3    H129261   0.935   1.870   5.568  0.1044 -0.0705  0.3400
 2590TIP3    H229262   1.010   1.968   5.482  0.0727 -0.0952  0.2845
 2591TIP3   OH229263   6.348   2.435  15.044  0.8044  0.6387 -0.2845
 2591TIP3    H129264   6.281   2.467  15.105 -1.9595 -0.6646 -2.4012
 2591TIP3    H229265   6.429   2.438  15.095 -1.1640  0.1983  3.2714
 2592TIP3   OH229266   4.261   2.837  10.995  0.0858 -0.1342  0.6100
 2592TIP3    H129267   4.195   2.800  10.936  0.5638 -1.5082  0.9015
 2592TIP3    H229268   4.343   2.830  10.945  0.2961 -0.1332  0.9564
 2593TIP3   OH229269   6.434   4.051  11.747 -0.1814 -0.6280 -0.1437
 2593TIP3    H129270   6.352   4.082  11.708  0.3590  2.4131  0.8305
 2593TIP3    H229271   6.503   4.089  11.692  0.5411  0.3749  1.3761
 2594TIP3   OH229272   6.391   0.846   3.268  0.7883  0.1437 -0.3060
 2594TIP3    H129273   6.395   0.821   3.361  2.1450  1.2270 -0.0407
 2594TIP3    H229274   6.483   0.846   3.239  0.6896  2.6028 -0.8456
 2595TIP3   OH229275   5.251   5.833  12.158  0.0457  0.4849  0.0858
 2595TIP3    H129276   5.161   5.803  12.169  0.2710  0.0441  0.7583
 2595TIP3    H229277   5.247   5.894  12.084 -0.9647  1.1915  0.7116
 2596TIP3   OH229278   5.591   5.379  12.236  0.0937 -0.3770 -0.1653
 2596TIP3    H129279   5.576   5.321  12.161  1.7252 -1.3325  0.1973
 2596TIP3    H229280   5.597   5.320  12.311  0.1606  0.4105  0.4583
 2597TIP3   OH229281   4.102   5.230  12.768  0.4800 -0.2656 -0.1212
 2597TIP3    H129282   4.017   5.187  12.765  1.0390 -1.4567  0.5090
 2597TIP3    H229283   4.121   5.252  12.677 -0.4962  0.0323 -0.2639
 2598TIP3   OH229284   3.556   1.312   3.341 -0.2977  0.4061 -0.2165
 2598TIP3    H129285   3.523   1.223   3.327 -0.5744  0.6578 -1.2247
 2598TIP3    H229286   3.651   1.303   3.339 -0.2711 -0.2102  1.9715
 2599TIP3   OH229287   2.407   0.455   5.379 -0.0642 -0.4553  0.5003
 2599TIP3    H129288   2.427   0.411   5.461  0.2658  0.1504  0.7509
 2599TIP3    H229289   2.353   0.530   5.405  0.6801  0.1771  0.2579
 2600TIP3   OH229290   0.456   1.423   0.345 -0.0297 -0.0409 -0.1335
 2600TIP3    H129291   0.467   1.349   0.405  0.9313  1.1947  1.3066
 2600TIP3    H229292   0.423   1.384   0.264  0.4100 -2.0245  0.5813
 2601TIP3   OH229293   0.746   2.391   3.206 -0.6762 -0.4112 -0.3790
 2601TIP3    H129294   0.713   2.398   3.296 -0.8576  0.5887 -0.5167
 2601TIP3    H229295   0.668   2.386   3.152 -0.5791 -2.3728 -0.4163
 2602TIP3   OH229296   2.642   1.688   0.853 -0.2915  0.3117 -0.2171
 2602TIP3    H129297   2.735   1.710   0.847 -0.6817  2.2326  0.0275
 2602TIP3    H229298   2.640   1.597   0.883  1.4954  0.2362 -0.2322
 2603TIP3   OH229299   3.586   1.443  14.211  0.1629  0.3526  0.9556
 2603TIP3    H129300   3.577   1.447  14.306  1.8713 -0.4313  1.1733
 2603TIP3    H229301   3.678   1.423  14.196 -0.4835 -1.5717 -0.8247
 2604TIP3   OH229302   4.254   5.363   5.016 -1.2073  0.3573  0.4110
 2604TIP3    H129303   4.339   5.379   5.057 -1.7354  2.9084  0.7106
 2604TIP3    H229304   4.203   5.318   5.084 -0.6593  0.4329  0.8795
 2605TIP3   OH229305   4.156   5.057   3.484 -0.0857 -0.0495  0.0839
 2605TIP3    H129306   4.145   5.116   3.410  1.5570  0.4792  0.2027
 2605TIP3    H229307   4.250   5.037   3.485 -0.0466  0.0047  2.0283
 2606TIP3   OH229308   0.584   5.088  14.335  0.4134 -0.2371  0.2310
 2606TIP3    H129309   0.623   5.129  14.258  0.5977 -0.3450  0.2658
 2606TIP3    H229310   0.521   5.152  14.368 -1.2683 -1.0145 -1.2654
 2607TIP3   OH229311   4.599   3.608  11.407  0.5679  0.5602  0.4879
 2607TIP3    H129312   4.534   3.537  11.401  1.7025 -0.3945 -1.2561
 2607TIP3    H229313   4.547   3.688  11.408 -0.6645 -0.1994 -0.3378
 2608TIP3   OH229314   3.044   6.247  11.875 -0.5374  0.2486  0.2954
 2608TIP3    H129315   3.089   6.325  11.907 -0.0691  0.7028 -1.3480
 2608TIP3    H229316   3.115   6.191  11.842 -1.0832  0.7966 -1.9631
 2609TIP3   OH229317   1.869   0.972   1.200  0.3956 -0.3437  0.4743
 2609TIP3    H129318   1.856   0.878   1.204  1.1600 -0.4176  1.6675
 2609TIP3    H229319   1.838   1.005   1.284  1.7774  0.2276  0.7933
 2610TIP3   OH229320   4.945   4.960  12.222  0.3050 -0.4522  0.0470
 2610TIP3    H129321   4.850   4.950  12.225  0.3245 -0.4679  0.7408
 2610TIP3    H229322   4.959   5.044  12.178  0.0446 -1.4979 -2.1472
 2611TIP3   OH229323   4.272   4.497   5.574  0.6018  0.1130 -0.3571
 2611TIP3    H129324   4.191   4.482   5.623  0.0891 -1.9967 -1.7274
 2611TIP3    H229325   4.332   4.430   5.606  0.9803  0.0914 -1.1001
 2612TIP3   OH229326   0.231   2.190  11.896  0.3440 -0.1444  0.0653
 2612TIP3    H129327   0.229   2.262  11.834  0.3407 -1.0973 -1.0686
 2612TIP3    H229328   0.315   2.200  11.942  0.7969  0.0216 -0.7714
 2613TIP3   OH229329   6.664   3.263   2.836  0.5201  0.7265  0.2927
 2613TIP3    H129330   6.679   3.174   2.868  0.5782  1.3660  2.1328
 2613TIP3    H229331   6.657   3.253   2.741  1.0150 -1.1653  0.4167
 2614TIP3   OH229332   4.227   6.022   1.141 -0.5025 -0.0107  0.8827
 2614TIP3    H129333   4.270   5.984   1.064 -0.6145 -1.6594  1.5926
 2614TIP3    H229334   4.299   6.061   1.191 -0.3555  0.5810  0.2356
 2615TIP3   OH229335   0.910   6.813   6.585 -0.2865  0.6454 -0.7720
 2615TIP3    H129336   0.978   6.823   6.519 -0.1308 -2.1502 -1.1726
 2615TIP3    H229337   0.957   6.806   6.667 -0.2908  1.2939 -0.7092
 2616TIP3   OH229338   1.690   0.149   1.202 -0.1510  0.1372  0.9877
 2616TIP3    H129339   1.759   0.084   1.191 -0.6169 -0.4843  1.6341
 2616TIP3    H229340   1.717   0.201   1.277  0.5803  1.1796  0.0299
 2617TIP3   OH229341   5.467   1.287   1.301 -0.3129 -0.5531 -0.6470
 2617TIP3    H129342   5.391   1.230   1.305 -0.4821 -0.6067 -3.0354
 2617TIP3    H229343   5.434   1.368   1.262  0.8886 -0.7611 -2.2243
 2618TIP3   OH229344   4.498   1.546   0.151 -0.1333 -0.2916 -0.2408
 2618TIP3    H129345   4.588   1.541   0.119 -0.0932 -2.1205  0.0376
 2618TIP3    H229346   4.492   1.477   0.217 -1.4448  0.5139  0.5299
 2619TIP3   OH229347   1.215   5.873  15.275 -0.0775  0.5372  0.4130
 2619TIP3    H129348   1.125   5.841  15.285 -0.4853  1.8614  1.2575
 2619TIP3    H229349   1.234   5.863  15.182  0.2019 -2.9809  0.7280
 2620TIP3   OH229350   4.112   3.462   4.211  0.0202 -0.0668  0.1662
 2620TIP3    H129351   4.071   3.504   4.135 -2.0601  0.4605  1.4832
 2620TIP3    H229352   4.127   3.533   4.273  0.5591 -0.6559  0.7207
 2621TIP3   OH229353   3.696   5.460   3.973 -0.1483 -0.3994 -0.3130
 2621TIP3    H129354   3.704   5.554   3.955 -0.7935 -0.7268 -2.6964
 2621TIP3    H229355   3.778   5.422   3.943  0.3814 -0.5516  1.2647
 2622TIP3   OH229356   3.582   1.689   0.684  0.3584  0.8276 -0.0379
 2622TIP3    H129357   3.670   1.727   0.676  0.3076  0.6243 -1.8264
 2622TIP3    H229358   3.571   1.636   0.605 -0.1824 -1.6697  1.5891
 2623TIP3   OH229359   0.192   6.728  17.144  0.0646 -0.8468  0.4823
 2623TIP3    H129360   0.200   6.737  17.049  0.0325 -2.7316  0.2695
 2623TIP3    H229361   0.258   6.788  17.179 -0.8672  0.9125 -0.6590
 2624TIP3   OH229362   3.122   5.056  15.510  0.1542  0.4899  0.9321
 2624TIP3    H129363   3.036   5.066  15.550  0.6722  1.2296  1.9223
 2624TIP3    H229364   3.184   5.073  15.581  1.1333 -0.5973  0.3850
 2625TIP3   OH229365   4.626   1.777  11.296  0.1123  0.3655  0.3040
 2625TIP3    H129366   4.608   1.828  11.218  0.0239  2.6950  1.7320
 2625TIP3    H229367   4.708   1.732  11.277  0.9420  2.1475 -0.5849
 2626TIP3   OH229368   0.975   5.797   5.273 -0.1597 -0.0731 -0.8558
 2626TIP3    H129369   0.923   5.744   5.333  2.2169  0.5069  1.9635
 2626TIP3    H229370   0.933   5.883   5.275  0.0357  0.0109  0.2461
 2627TIP3   OH229371   2.297   3.731   1.272 -0.3871  0.1891  0.2768
 2627TIP3    H129372   2.299   3.819   1.311 -1.5779  0.2559  0.2406
 2627TIP3    H229373   2.222   3.688   1.315  0.2795 -0.8698  0.4090
 2628TIP3   OH229374   1.636   6.202  14.448  0.8104  0.0506 -0.2725
 2628TIP3    H129375   1.556   6.234  14.408  0.2776 -1.3178 -0.3618
 2628TIP3    H229376   1.657   6.266  14.516 -0.9827 -0.1576  0.5110
 2629TIP3   OH229377   5.001   1.551   3.120 -0.4622  0.0224 -0.0472
 2629TIP3    H129378   4.952   1.487   3.069  0.8548  0.6811 -2.3139
 2629TIP3    H229379   4.982   1.635   3.078 -0.4783  0.8522  1.5190
 2630TIP3   OH229380   5.809   6.067   4.466 -0.4344  0.5773  0.0390
 2630TIP3    H129381   5.807   5.990   4.408 -2.2222 -0.1887  1.0315
 2630TIP3    H229382   5.717   6.096   4.470 -0.2478  1.0320  1.9022
 2631TIP3   OH229383   2.174   4.231  16.411  0.1370  0.3600 -0.1537
 2631TIP3    H129384   2.082   4.243  16.389  0.0757 -1.1598 -0.8807
 2631TIP3    H229385   2.173   4.188  16.497  0.0716 -1.1036 -0.8475
 2632TIP3   OH229386   1.764   3.139  17.023  0.1485  0.4652 -0.1088
 2632TIP3    H129387   1.695   3.174  16.967 -1.0082  0.2925  1.1687
 2632TIP3    H229388   1.777   3.049  16.993 -0.6537  0.2867  0.0718
 2633TIP3   OH229389   4.753   5.716  16.760  0.1409 -0.0968  0.4252
 2633TIP3    H129390   4.758   5.658  16.836 -0.6548  0.3268  0.8096
 2633TIP3    H229391   4.773   5.803  16.794  0.9870 -0.0719 -0.0897
 2634TIP3   OH229392   3.124   4.710  13.203 -0.7968 -0.4389 -0.1796
 2634TIP3    H129393   3.124   4.614  13.201  1.6954 -0.4927 -1.0289
 2634TIP3    H229394   3.180   4.732  13.277 -1.7753  0.4108  0.3405
 2635TIP3   OH229395   3.189   3.974  16.020  0.2219  0.1930  0.1040
 2635TIP3    H129396   3.188   4.067  16.000 -0.8217  0.2345  0.2972
 2635TIP3    H229397   3.253   3.965  16.091 -0.5022  0.9332  0.8725
 2636TIP3   OH229398   0.106   3.578  13.919 -0.1730 -0.4255  0.1808
 2636TIP3    H129399   0.103   3.484  13.938  1.9547 -0.6770 -0.5553
 2636TIP3    H229400   0.196   3.603  13.938 -0.5508  1.3528 -0.2648
 2637TIP3   OH229401   5.401   6.496  15.903  0.4656  0.4741 -0.0920
 2637TIP3    H129402   5.482   6.509  15.853  1.1075  0.3614  0.9017
 2637TIP3    H229403   5.341   6.562  15.868  0.5464 -0.2653 -1.7181
 2638TIP3   OH229404   2.246   2.754  11.475 -0.6797  0.1623 -0.1939
 2638TIP3    H129405   2.304   2.788  11.407 -0.4279 -1.7829 -1.0178
 2638TIP3    H229406   2.295   2.683  11.516 -1.5916  0.0192  0.6985
 2639TIP3   OH229407   6.776   2.342  13.675  0.3518 -0.4439 -0.7428
 2639TIP3    H129408   6.797   2.421  13.725 -0.2754 -1.8744  1.9851
 2639TIP3    H229409   6.860   2.307  13.648  0.6201  1.5981 -2.9465
 2640TIP3   OH229410   0.880   2.839  16.015  0.2231  0.0039  0.0391
 2640TIP3    H129411   0.904   2.866  15.927  1.1881  3.8261  1.2594
 2640TIP3    H229412   0.889   2.744  16.015  1.7043 -0.0080 -3.4963
 2641TIP3   OH229413   0.218   4.729   4.834 -0.0225 -0.3543  0.1302
 2641TIP3    H129414   0.292   4.756   4.780  0.7271  0.6790  1.6089
 2641TIP3    H229415   0.142   4.767   4.791  0.2761 -1.3723 -1.3703
 2642TIP3   OH229416   2.116   3.427  16.826 -0.0861 -0.2814 -0.2163
 2642TIP3    H129417   2.084   3.368  16.894  1.1962 -0.8889 -0.1161
 2642TIP3    H229418   2.081   3.513  16.851  1.2236 -0.2634  1.8893
 2643TIP3   OH229419   5.055   3.702  14.037  0.4120  0.1975  0.0345
 2643TIP3    H129420   5.037   3.782  14.085  1.7879 -0.1433  1.1810
 2643TIP3    H229421   4.970   3.657  14.033  0.0941  0.6198  1.4515
 2644TIP3   OH229422   5.799   5.538  12.368 -0.0573  0.0132  0.1708
 2644TIP3    H129423   5.738   5.490  12.311  0.3481  0.5909 -0.7718
 2644TIP3    H229424   5.860   5.472  12.400  1.5405  0.0930 -2.4647
 2645TIP3   OH229425   1.660   4.823  13.666 -0.2541 -0.1120  0.1040
 2645TIP3    H129426   1.621   4.868  13.591  0.1895  1.1379  0.5873
 2645TIP3    H229427   1.688   4.739  13.631 -0.6713  0.1668 -0.9673
 2646TIP3   OH229428   1.208   1.665  10.878 -0.3180  0.2387 -0.1192
 2646TIP3    H129429   1.133   1.657  10.938 -1.2057  3.1769 -0.6691
 2646TIP3    H229430   1.245   1.751  10.897  1.2186  0.0015 -1.7909
 2647TIP3   OH229431   5.326   1.478   0.643  0.0551  0.2254  0.1604
 2647TIP3    H129432   5.414   1.441   0.648  0.0653  0.3701  1.1184
 2647TIP3    H229433   5.305   1.476   0.549  0.4672 -1.2475  0.0659
 2648TIP3   OH229434   3.381   3.430   4.597  0.2736 -0.7010  0.1969
 2648TIP3    H129435   3.388   3.471   4.511 -0.5538  0.4309  0.6453
 2648TIP3    H229436   3.470   3.398   4.615  1.7054  3.1090  0.8768
 2649TIP3   OH229437   5.397   4.859   5.415 -0.1117  0.4393 -1.1255
 2649TIP3    H129438   5.471   4.799   5.410 -0.1062  0.5278 -2.5514
 2649TIP3    H229439   5.368   4.870   5.325 -1.2112  1.2307 -0.7127
 2650TIP3   OH229440   0.888   2.469  11.240  0.6430  0.3848  0.0898
 2650TIP3    H129441   0.969   2.423  11.219 -0.0733 -0.4273 -1.0292
 2650TIP3    H229442   0.819   2.411  11.209 -0.3591  1.2951  0.5434
 2651TIP3   OH229443   1.337   1.366  11.494 -0.4100 -0.8077  0.2551
 2651TIP3    H129444   1.378   1.382  11.579 -0.0539 -1.4429  0.2087
 2651TIP3    H229445   1.330   1.271  11.488  2.0151 -0.9917 -1.5399
 2652TIP3   OH229446   2.983   0.074  14.584 -0.2293  0.1196 -0.4397
 2652TIP3    H129447   3.054   0.124  14.622  0.3611 -1.1392  0.1827
 2652TIP3    H229448   2.932   0.138  14.534 -0.9736  1.8389  2.2981
 2653TIP3   OH229449   1.594   2.006   6.046 -0.4071  0.2100  0.0459
 2653TIP3    H129450   1.605   1.925   5.996  1.7854 -1.4322  2.9297
 2653TIP3    H229451   1.528   1.985   6.112  0.4105  0.5995  1.0236
 2654TIP3   OH229452   5.039   1.546  14.322 -0.1890 -0.4311 -0.3532
 2654TIP3    H129453   5.111   1.483  14.329 -1.1365 -1.4692  0.7274
 2654TIP3    H229454   5.002   1.549  14.411 -0.6793  1.0624 -0.5830
 2655TIP3   OH229455   6.654   5.641   5.253 -0.2182  1.0635 -0.4069
 2655TIP3    H129456   6.587   5.706   5.230 -2.5053 -0.7348  0.7958
 2655TIP3    H229457   6.605   5.567   5.287  2.2746 -1.3923 -1.7595
 2656TIP3   OH229458   1.895   0.105  11.628  0.2723 -0.0775 -0.8636
 2656TIP3    H129459   1.928   0.194  11.616 -0.1860  0.1706 -0.3395
 2656TIP3    H229460   1.859   0.105  11.716 -1.0657 -0.3427 -1.3803
 2657TIP3   OH229461   2.559   2.889  16.605  0.0825  0.6665  0.4431
 2657TIP3    H129462   2.571   2.826  16.676 -1.1649  0.5071  0.5430
 2657TIP3    H229463   2.495   2.952  16.639  1.0332  1.7875  0.2083
 2658TIP3   OH229464   2.655   1.042  15.316  0.4213 -0.0160 -0.3958
 2658TIP3    H129465   2.593   1.093  15.368 -0.0206  1.4942 -2.2918
 2658TIP3    H229466   2.612   0.958  15.305 -0.3250  0.2849  0.0799
 2659TIP3   OH229467   6.836   3.082   3.790  0.2955 -0.3004 -0.0403
 2659TIP3    H129468   6.862   3.033   3.868 -0.5200  0.0784  0.4867
 2659TIP3    H229469   6.753   3.041   3.763  0.6854 -0.5713 -0.8410
 2660TIP3   OH229470   1.042   0.789  11.295  0.3445 -0.4235 -0.4706
 2660TIP3    H129471   1.090   0.748  11.223 -0.2453 -1.7253 -0.1383
 2660TIP3    H229472   1.091   0.765  11.373 -0.0099 -0.4999 -0.2715
 2661TIP3   OH229473   1.436   0.477   0.012 -0.3492 -0.2418  0.2372
 2661TIP3    H129474   1.476   0.428   0.084 -0.1963  1.1471  1.1234
 2661TIP3    H229475   1.496   0.549  -0.005 -0.2486 -0.6712 -1.4844
 2662TIP3   OH229476   3.720   5.030   4.459 -0.3992  0.0721  0.3320
 2662TIP3    H129477   3.762   4.958   4.506  0.3268  1.0083  1.1593
 2662TIP3    H229478   3.715   5.000   4.368 -2.4784 -2.0792  1.0426
 2663TIP3   OH229479   0.995   1.204  11.590  0.5236  0.4125 -0.3939
 2663TIP3    H129480   0.963   1.262  11.659  0.6668  0.9241 -0.7518
 2663TIP3    H229481   1.040   1.134  11.637 -0.3800  0.1382  0.0721
 2664TIP3   OH229482   0.607   6.729   4.078 -0.1490  0.0922 -0.5737
 2664TIP3    H129483   0.664   6.683   4.141 -1.6810 -0.1955  0.6703
 2664TIP3    H229484   0.565   6.659   4.029  1.9412  0.3182 -2.8827
 2665TIP3   OH229485   2.383   3.893  17.121  0.2497 -0.2005  0.3008
 2665TIP3    H129486   2.355   3.979  17.153 -2.0471 -0.9385  0.4137
 2665TIP3    H229487   2.454   3.913  17.060 -0.6826  1.8301 -0.2046
 2666TIP3   OH229488   1.530   3.262   1.832  0.6698  0.5181 -0.4375
 2666TIP3    H129489   1.443   3.269   1.791  0.2556  0.1626  0.3623
 2666TIP3    H229490   1.514   3.280   1.924  1.4264  0.2482 -0.2511
 2667TIP3   OH229491   2.798   2.231   6.052  0.1300 -0.2971 -0.0534
 2667TIP3    H129492   2.770   2.175   6.124  1.9810  0.5002  1.3558
 2667TIP3    H229493   2.740   2.307   6.057 -0.3162 -0.6366  0.0287
 2668TIP3   OH229494   1.902   6.073   4.703 -0.5509 -0.1309  0.3666
 2668TIP3    H129495   1.926   5.980   4.708 -0.1613 -0.1649 -1.4762
 2668TIP3    H229496   1.852   6.080   4.622 -0.7486  1.2485  0.5877
 2669TIP3   OH229497   4.942   3.264  13.810  0.0054  0.3256 -0.8724
 2669TIP3    H129498   4.938   3.178  13.768 -1.2595 -0.9891  1.7111
 2669TIP3    H229499   5.032   3.270  13.843 -0.6588 -1.4480  1.5336
 2670TIP3   OH229500   5.286   1.638  10.431 -0.1056  0.0254  0.7256
 2670TIP3    H129501   5.282   1.590  10.514  0.6203 -0.8940  0.2507
 2670TIP3    H229502   5.272   1.730  10.455  0.2279 -0.2168  1.8827
 2671TIP3   OH229503   0.951   3.877   1.946  0.5633  0.3711  0.3345
 2671TIP3    H129504   0.889   3.809   1.973  1.4023 -0.6738 -0.2630
 2671TIP3    H229505   1.031   3.856   1.995  1.3930 -0.1866 -1.1921
 2672TIP3   OH229506   2.815   0.867   0.485 -0.0200 -0.0397 -0.3629
 2672TIP3    H129507   2.880   0.804   0.517 -0.0194  0.9928  1.9051
 2672TIP3    H229508   2.733   0.818   0.481  0.3565 -0.6626 -0.4664
 2673TIP3   OH229509   4.290   0.318   1.106 -0.6716  0.2939  0.0451
 2673TIP3    H129510   4.246   0.322   1.021  1.8575  1.0446 -1.3220
 2673TIP3    H229511   4.338   0.401   1.112  2.6373 -1.4863  0.1649
 2674TIP3   OH229512   0.974   5.587   1.457  0.1728 -0.2015  0.0484
 2674TIP3    H129513   1.007   5.512   1.406  0.4643 -1.2839  1.7535
 2674TIP3    H229514   0.884   5.563   1.479 -1.0608  1.6487 -2.4878
 2675TIP3   OH229515   2.603   0.337  14.996  0.2455 -0.5166 -0.1033
 2675TIP3    H129516   2.623   0.312  15.086  0.6147 -0.5467 -0.1916
 2675TIP3    H229517   2.684   0.318  14.947  0.7119  1.2570 -0.0969
 2676TIP3   OH229518   4.617   5.495  11.663 -0.4865  0.1044 -0.0533
 2676TIP3    H129519   4.682   5.435  11.626 -1.5067 -0.6651 -0.6584
 2676TIP3    H229520   4.572   5.443  11.730 -2.5933 -0.4876 -1.7934
 2677TIP3   OH229521   3.102   4.502   3.905 -0.0465 -0.0233 -0.1885
 2677TIP3    H129522   3.171   4.500   3.972  0.0646 -1.1411 -0.3133
 2677TIP3    H229523   3.136   4.560   3.838  0.3021  0.2857  0.2455
 2678TIP3   OH229524   0.692   1.825  11.402 -0.8415  0.4167 -0.0914
 2678TIP3    H129525   0.698   1.734  11.430 -0.3390  1.0740  2.1214
 2678TIP3    H229526   0.780   1.846  11.370 -0.5373  0.5230  0.7906
 2679TIP3   OH229527   3.240   5.625  14.889  0.0903 -0.8693 -0.3245
 2679TIP3    H129528   3.311   5.563  14.875 -0.1492 -0.9278 -1.3175
 2679TIP3    H229529   3.262   5.700  14.833  0.5306  0.0854  1.0744
 2680TIP3   OH229530   3.597   0.045  14.175 -0.7024 -0.0853  0.1860
 2680TIP3    H129531   3.542   0.091  14.238 -1.1057 -0.6482  0.2464
 2680TIP3    H229532   3.666   0.005  14.227 -1.7843 -1.6745  0.4555
 2681TIP3   OH229533   2.614   5.850   3.422 -0.1165 -0.0739 -0.4035
 2681TIP3    H129534   2.562   5.905   3.480 -0.3741  0.2394 -0.9268
 2681TIP3    H229535   2.632   5.771   3.473 -1.4759 -0.3860 -0.3594
 2682TIP3   OH229536   2.839   5.942  13.703  0.3380 -0.7105 -0.3262
 2682TIP3    H129537   2.751   5.914  13.730 -0.3063  2.7417  1.6631
 2682TIP3    H229538   2.887   5.954  13.785  1.1378  1.8638 -1.0964
 2683TIP3   OH229539   5.150   5.225  14.363  0.1712 -0.1856  0.6029
 2683TIP3    H129540   5.136   5.269  14.446 -2.7761 -0.8984  0.5732
 2683TIP3    H229541   5.126   5.289  14.297  0.6364 -0.2526  0.3641
 2684TIP3   OH229542   3.670   2.601  13.980 -0.1486 -0.2591  0.1957
 2684TIP3    H129543   3.654   2.515  13.941 -1.4703 -0.3555  0.9148
 2684TIP3    H229544   3.633   2.596  14.068 -0.4418  1.0960  0.1833
 2685TIP3   OH229545   4.273   1.889   0.261 -0.4462  0.4602  0.4502
 2685TIP3    H129546   4.286   1.796   0.280  1.8293  0.8564  1.1622
 2685TIP3    H229547   4.269   1.930   0.348  0.3189  1.1976  0.1504
 2686TIP3   OH229548   5.319   4.848   1.626 -0.1393  0.9293 -0.1157
 2686TIP3    H129549   5.310   4.927   1.679 -2.3232 -0.2448  1.4104
 2686TIP3    H229550   5.373   4.790   1.679  0.1486  0.8173 -0.5286
 2687TIP3   OH229551   2.401   5.762  14.095 -0.1329  0.6935  0.2678
 2687TIP3    H129552   2.476   5.716  14.058 -0.9159 -0.9761  0.7038
 2687TIP3    H229553   2.414   5.853  14.067  2.5119  0.6561  1.0470
 2688TIP3   OH229554   2.556   6.286   3.044  0.0129  0.1900  0.6676
 2688TIP3    H129555   2.523   6.320   3.127 -0.6891 -0.8765  0.8440
 2688TIP3    H229556   2.507   6.205   3.029  1.4430 -0.6302  0.1438
 2689TIP3   OH229557   4.904   2.205   5.724  0.6007 -0.3772  0.1405
 2689TIP3    H129558   4.879   2.254   5.802 -0.0773 -1.5600  0.6936
 2689TIP3    H229559   4.915   2.272   5.656 -0.6768  0.4968  0.7634
 2690TIP3   OH229560   3.119   1.230   4.860  0.1657  0.2370 -0.3965
 2690TIP3    H129561   3.204   1.226   4.903  0.4956  1.1822 -0.9272
 2690TIP3    H229562   3.067   1.161   4.902  0.5489  0.9380  1.3083
 2691TIP3   OH229563   6.606   5.916   0.109 -0.3984 -0.1777 -0.5350
 2691TIP3    H129564   6.655   5.835   0.095  1.0714  0.6784 -0.5594
 2691TIP3    H229565   6.651   5.959   0.182 -0.9366  0.7708 -0.7418
 2692TIP3   OH229566   5.237   1.714   1.764  1.0450 -0.1284 -0.0540
 2692TIP3    H129567   5.204   1.802   1.785  0.3601 -0.3290 -0.2509
 2692TIP3    H229568   5.314   1.703   1.819  0.3409  0.0647  0.9908
 2693TIP3   OH229569   1.589   2.026  14.304 -0.5335  0.2958 -0.1439
 2693TIP3    H129570   1.590   2.118  14.327 -0.0222 -0.0390  1.2890
 2693TIP3    H229571   1.505   2.012  14.261 -0.0772  1.6815 -1.5890
 2694TIP3   OH229572   6.755   4.412   2.104  0.2637  0.9890  0.2622
 2694TIP3    H129573   6.717   4.473   2.041 -0.6975  0.1785  0.0390
 2694TIP3    H229574   6.697   4.416   2.180  1.5529  2.1453  1.2196
 2695TIP3   OH229575   5.227   4.246   5.126  0.5551  0.1080  0.0289
 2695TIP3    H129576   5.309   4.294   5.136  0.4491  0.2356  0.2984
 2695TIP3    H229577   5.232   4.176   5.192  0.7171 -0.2627 -0.3751
 2696TIP3   OH229578   4.692   4.570   6.044 -0.3107 -0.2639 -0.2552
 2696TIP3    H129579   4.781   4.575   6.011 -0.1161 -3.2667 -0.4212
 2696TIP3    H229580   4.697   4.604   6.133  0.4682  1.7361 -1.0028
 2697TIP3   OH229581   1.633   6.374   6.279 -0.0065  0.2068  0.1566
 2697TIP3    H129582   1.654   6.284   6.304  1.2900  0.3415 -0.3791
 2697TIP3    H229583   1.707   6.425   6.311  0.2249  0.8045 -1.2606
 2698TIP3   OH229584   3.498   2.967  14.097  0.0172  0.2064 -0.7677
 2698TIP3    H129585   3.405   2.980  14.081 -0.1340 -0.2463 -0.2974
 2698TIP3    H229586   3.502   2.913  14.176  0.7142  1.3176 -0.0237
 2699TIP3   OH229587   4.102   2.851   2.013  0.0645  0.1044 -0.0470
 2699TIP3    H129588   4.197   2.848   2.003  0.1775  2.8948 -0.3602
 2699TIP3    H229589   4.087   2.913   2.084 -1.5327 -1.9506  1.5473
 2700TIP3   OH229590   5.305   4.437   2.452  0.1617  0.1526  0.2428
 2700TIP3    H129591   5.214   4.439   2.480  0.2425 -0.7233  0.5940
 2700TIP3    H229592   5.300   4.429   2.356 -0.1304 -0.2834  0.2937
 2701TIP3   OH229593   0.647   1.481  16.867 -0.0179  0.4066 -0.5125
 2701TIP3    H129594   0.683   1.479  16.956  3.3109 -4.2991 -1.6265
 2701TIP3    H229595   0.701   1.545  16.821  3.3712 -2.2904 -0.6696
 2702TIP3   OH229596   6.521   1.717   3.414  0.0427 -0.3959 -0.0050
 2702TIP3    H129597   6.604   1.757   3.389  0.1659 -0.7240 -0.1244
 2702TIP3    H229598   6.466   1.791   3.440  1.1136 -0.3396  2.3456
 2703TIP3   OH229599   2.350   5.079  14.656  0.1761  1.0107  0.5237
 2703TIP3    H129600   2.287   5.015  14.624  0.1299  1.6437 -0.7149
 2703TIP3    H229601   2.368   5.052  14.746 -1.0895  0.2331  0.5719
 2704TIP3   OH229602   6.391   1.463  15.292  0.3286  0.3226  0.3285
 2704TIP3    H129603   6.411   1.465  15.198  0.6994  1.4835  0.4188
 2704TIP3    H229604   6.333   1.538  15.306 -2.9172 -2.0156  0.3725
 2705TIP3   OH229605   3.595   4.855   0.735 -0.0089 -0.2919  0.2438
 2705TIP3    H129606   3.633   4.939   0.762  0.7682 -0.4983 -0.1761
 2705TIP3    H229607   3.538   4.830   0.808 -0.7860  0.9189  0.0794
 2706TIP3   OH229608   4.434   5.263  15.218 -0.3903 -0.3009 -0.3773
 2706TIP3    H129609   4.512   5.248  15.271  0.3198  2.8595 -0.3390
 2706TIP3    H229610   4.441   5.199  15.147  0.8473 -1.7589  0.9689
 2707TIP3   OH229611   3.674   2.428  15.935  0.0997 -0.0642 -0.6571
 2707TIP3    H129612   3.743   2.372  15.900  1.1151  0.7652 -0.0514
 2707TIP3    H229613   3.698   2.516  15.906 -0.2953  0.3328  0.1858
 2708TIP3   OH229614   5.697   3.741  12.921  0.4016  0.6096  0.1455
 2708TIP3    H129615   5.751   3.819  12.906  0.1277  0.8345  0.3263
 2708TIP3    H229616   5.751   3.669  12.888  0.6051  0.8860 -0.1408
 2709TIP3   OH229617   0.303   2.056  12.901  0.3789 -0.3589 -0.3094
 2709TIP3    H129618   0.230   2.087  12.954  1.4485  1.7416  0.0167
 2709TIP3    H229619   0.270   2.060  12.811 -0.1789 -0.2533 -0.1089
 2710TIP3   OH229620   2.498   4.927  10.926  1.0196 -0.7275  0.3312
 2710TIP3    H129621   2.423   4.960  10.876 -0.2480 -1.9633  1.3214
 2710TIP3    H229622   2.573   4.972  10.889 -0.1405  0.1215 -1.1116
 2711TIP3   OH229623   4.284   2.246   0.607  0.1005  0.6877 -0.2761
 2711TIP3    H129624   4.261   2.161   0.569  0.1756  0.2178  0.6785
 2711TIP3    H229625   4.369   2.230   0.649 -0.1329  1.0900  0.3543
 2712TIP3   OH229626   0.671   0.441   2.128  0.1425  0.4034 -0.2706
 2712TIP3    H129627   0.711   0.460   2.212 -0.8591  0.6739  0.1476
 2712TIP3    H229628   0.676   0.345   2.121 -2.9020 -0.0177  1.7205
 2713TIP3   OH229629   1.307   2.349   1.289  0.5019 -0.2843  0.1200
 2713TIP3    H129630   1.374   2.293   1.327  1.6978 -0.0068 -1.5064
 2713TIP3    H229631   1.344   2.438   1.294 -1.3823  0.5062  2.7278
 2714TIP3   OH229632   5.170   5.325   1.580  1.0636  0.0863  0.4018
 2714TIP3    H129633   5.246   5.283   1.539  0.0088 -0.3728 -1.1815
 2714TIP3    H229634   5.128   5.373   1.508 -0.5073 -0.2107  1.0937
 2715TIP3   OH229635   0.129   5.305  15.742  0.7725  0.2658 -0.0083
 2715TIP3    H129636   0.125   5.210  15.752  0.4265  0.2226 -0.5297
 2715TIP3    H229637   0.147   5.338  15.830 -1.7484 -0.1134  0.7155
 2716TIP3   OH229638   2.711   0.361  13.687 -0.0931 -0.1523 -0.1413
 2716TIP3    H129639   2.689   0.270  13.705 -0.0384 -0.2245 -0.4278
 2716TIP3    H229640   2.763   0.389  13.762 -0.7135 -0.1378  0.2951
 2717TIP3   OH229641   3.931   6.559   3.680 -0.1772  0.2380 -0.2194
 2717TIP3    H129642   3.960   6.469   3.696 -0.0039 -0.1719 -2.4819
 2717TIP3    H229643   3.917   6.596   3.768 -1.6332 -2.4063  0.7717
 2718TIP3   OH229644   2.596   3.845  14.302  0.4806  0.1260 -0.2303
 2718TIP3    H129645   2.510   3.880  14.322  0.4632  0.1279 -0.3088
 2718TIP3    H229646   2.581   3.783  14.231  0.4138 -0.5335  0.3556
 2719TIP3   OH229647   2.028   6.060  15.548  0.0473  0.4528  0.0758
 2719TIP3    H129648   2.010   6.002  15.474 -0.4001  1.4072 -0.5872
 2719TIP3    H229649   1.989   6.016  15.623  2.9016 -1.9117  0.3391
 2720TIP3   OH229650   0.105   4.894   0.246  0.2894  0.0854  0.5303
 2720TIP3    H129651   0.153   4.829   0.194 -1.1089 -1.3320  0.9594
 2720TIP3    H229652   0.173   4.937   0.298  1.4946  0.3138 -1.1205
 2721TIP3   OH229653   6.112   4.861  15.032  0.1552  0.1451  0.1141
 2721TIP3    H129654   6.155   4.779  15.053  0.2540 -0.1425 -1.1169
 2721TIP3    H229655   6.172   4.929  15.062  0.6124 -0.2446  0.0842
 2722TIP3   OH229656   1.493   5.446  11.849  0.0020 -0.0278 -0.0533
 2722TIP3    H129657   1.585   5.460  11.827  0.2437 -1.4577 -0.0965
 2722TIP3    H229658   1.492   5.436  11.944  0.0343 -0.8610 -0.1326
 2723TIP3   OH229659   1.187   1.841   2.311  0.1949  0.3636  0.3939
 2723TIP3    H129660   1.187   1.790   2.230  0.4328  1.6531 -0.4494
 2723TIP3    H229661   1.148   1.783   2.376 -0.8558 -0.3902 -0.8492
 2724TIP3   OH229662   3.638   1.108   5.076  0.4770 -0.4264  0.3278
 2724TIP3    H129663   3.659   1.183   5.020  0.2067 -0.7480 -0.2123
 2724TIP3    H229664   3.619   1.146   5.161  0.2202  0.1330  0.0279
 2725TIP3   OH229665   3.731   4.962  14.296 -0.0232  0.1886  0.4008
 2725TIP3    H129666   3.718   5.016  14.218  0.5600 -1.0105 -0.5447
 2725TIP3    H229667   3.643   4.944  14.328 -0.2394  1.6014  0.6991
 2726TIP3   OH229668   1.448   3.963  15.303 -0.0701 -0.1680 -0.3662
 2726TIP3    H129669   1.466   3.904  15.377 -0.9480 -1.9980 -1.5364
 2726TIP3    H229670   1.364   4.003  15.324 -0.3600 -0.7507 -0.4060
 2727TIP3   OH229671   4.262   3.372   5.025 -0.7057 -0.3918 -0.2471
 2727TIP3    H129672   4.267   3.370   5.120  0.7600  1.2885 -0.2417
 2727TIP3    H229673   4.264   3.280   4.999  0.6890 -0.8340  1.2792
 2728TIP3   OH229674   0.047   0.798   3.306  0.0983  0.4506  0.4488
 2728TIP3    H129675   0.128   0.747   3.299  0.2305  0.7927 -0.6568
 2728TIP3    H229676   0.068   0.881   3.264 -1.1546  0.1272 -0.8839
 2729TIP3   OH229677   2.923   5.420  13.916 -0.0254  0.3786 -0.1263
 2729TIP3    H129678   2.835   5.413  13.879  0.6548  0.7577 -1.9442
 2729TIP3    H229679   2.958   5.502  13.880  1.5119 -0.3930 -0.5130
 2730TIP3   OH229680   5.891   4.611   3.873  0.0713  0.4933  0.3421
 2730TIP3    H129681   5.943   4.552   3.927 -0.3474  0.0938  0.3096
 2730TIP3    H229682   5.926   4.698   3.894  2.3695  0.1033 -1.4122
 2731TIP3   OH229683   1.486   0.777   1.759  0.0940  1.4193 -0.4291
 2731TIP3    H129684   1.574   0.800   1.787 -0.3305  0.6060  1.7278
 2731TIP3    H229685   1.498   0.700   1.703  0.6044 -0.8716  2.5943
 2732TIP3   OH229686   0.677   0.875   3.159  0.3770 -0.0614 -0.1240
 2732TIP3    H129687   0.730   0.837   3.229 -1.6730 -1.1026  0.9481
 2732TIP3    H229688   0.612   0.928   3.204 -0.2917  0.1599 -1.3116
 2733TIP3   OH229689   3.651   3.784  12.457  0.4697  0.3265  0.3377
 2733TIP3    H129690   3.736   3.743  12.440  0.1016 -0.6602  0.7686
 2733TIP3    H229691   3.606   3.722  12.514 -0.6346  0.7228 -0.0779
 2734TIP3   OH229692   1.995   2.458  11.929 -0.2902 -0.2824  0.3091
 2734TIP3    H129693   2.065   2.399  11.903 -1.8704 -1.9851 -0.2680
 2734TIP3    H229694   1.914   2.409  11.913 -1.6037  1.1929  1.9798
 2735TIP3   OH229695   0.971   6.047  16.064  0.1830  0.2187  0.4891
 2735TIP3    H129696   1.063   6.033  16.088  0.2337  0.4721  0.4471
 2735TIP3    H229697   0.923   6.029  16.145  0.1229 -1.4940  0.0910
 2736TIP3   OH229698   2.799   3.977  10.794 -0.7522 -0.2028 -0.6615
 2736TIP3    H129699   2.887   3.997  10.827 -0.6658 -0.0910 -0.9538
 2736TIP3    H229700   2.814   3.938  10.708 -0.9067 -1.7816  0.0044
 2737TIP3   OH229701   3.878   6.702  11.815 -0.2507  0.0489 -0.3570
 2737TIP3    H129702   3.938   6.719  11.743 -0.3418 -1.1426 -0.7395
 2737TIP3    H229703   3.885   6.608  11.831 -0.7738  0.1645  0.7123
 2738TIP3   OH229704   3.096   4.507  11.639 -0.9220 -0.2792  0.0814
 2738TIP3    H129705   3.138   4.463  11.713  0.0750 -1.0239 -0.8833
 2738TIP3    H229706   3.093   4.599  11.664 -1.2221 -0.6101  1.3125
 2739TIP3   OH229707   2.365   1.472  12.775 -0.1709 -0.2881  0.6782
 2739TIP3    H129708   2.336   1.553  12.817 -1.1667  0.1286 -0.7321
 2739TIP3    H229709   2.334   1.402  12.831  0.1225  0.2874  1.5727
 2740TIP3   OH229710   2.562   2.676   5.812  0.1582 -0.4339 -0.1618
 2740TIP3    H129711   2.654   2.653   5.796  0.1607 -0.3702 -0.2411
 2740TIP3    H229712   2.558   2.701   5.904  0.4954  0.9157 -0.4959
 2741TIP3   OH229713   3.026   3.285  13.423 -0.2988 -0.3933  1.0106
 2741TIP3    H129714   3.014   3.194  13.450  1.5619 -0.5525  1.4198
 2741TIP3    H229715   2.976   3.336  13.488 -0.3008 -1.0609  1.5422
 2742TIP3   OH229716   2.435   3.241  14.829  0.2569  0.0914 -0.1893
 2742TIP3    H129717   2.403   3.256  14.740  0.0329  0.1013 -0.1084
 2742TIP3    H229718   2.455   3.329  14.863 -0.9826  0.2235  0.2575
 2743TIP3   OH229719   1.132   0.892  14.640 -0.3629 -0.0239 -0.4842
 2743TIP3    H129720   1.036   0.889  14.640 -0.3484 -0.6744 -0.0725
 2743TIP3    H229721   1.158   0.811  14.683  0.3629  0.7179  0.4985
 2744TIP3   OH229722   4.742   0.147   0.832  0.2814 -0.0366  0.1124
 2744TIP3    H129723   4.741   0.242   0.835  0.7099 -0.0304  0.0477
 2744TIP3    H229724   4.831   0.122   0.856  0.0428 -0.4381  0.6269
 2745TIP3   OH229725   1.145   0.869  13.827 -0.4532 -0.5666 -0.1585
 2745TIP3    H129726   1.059   0.908  13.807 -0.7923 -1.2350 -0.0295
 2745TIP3    H229727   1.137   0.778  13.799 -0.6128 -1.2963  2.1049
 2746TIP3   OH229728   1.335   1.252   3.493  0.2941 -0.6089  0.0036
 2746TIP3    H129729   1.424   1.249   3.456 -0.2066  1.0203 -1.4764
 2746TIP3    H229730   1.281   1.205   3.429 -0.0589 -0.8034  0.4374
 2747TIP3   OH229731   0.035   3.070  16.079 -0.1130 -0.1117 -0.1611
 2747TIP3    H129732   0.091   3.016  16.135 -1.6053 -2.5357 -0.8955
 2747TIP3    H229733   0.087   3.085  16.000  0.3445 -0.3749  0.0890
 2748TIP3   OH229734   0.944   3.969  11.389 -0.3866  0.7418  0.3064
 2748TIP3    H129735   0.852   3.945  11.372 -0.1183 -0.6503  0.6560
 2748TIP3    H229736   0.959   3.941  11.479  0.2934  1.2859  0.3673
 2749TIP3   OH229737   5.434   5.505   4.283  0.7318 -0.1468 -0.1644
 2749TIP3    H129738   5.439   5.594   4.317 -3.2199  0.2070 -0.0426
 2749TIP3    H229739   5.417   5.451   4.360 -0.4496 -0.4682 -0.6368
 2750TIP3   OH229740   0.968   6.124  16.553 -0.0798 -0.6027 -0.4728
 2750TIP3    H129741   0.977   6.211  16.591 -0.9081  0.0695 -1.7438
 2750TIP3    H229742   0.944   6.067  16.626 -0.0953  0.3422  0.2631
 2751TIP3   OH229743   1.539   4.581  11.914  0.5292  0.3684 -0.3469
 2751TIP3    H129744   1.615   4.639  11.913  0.3276  0.6872  1.2377
 2751TIP3    H229745   1.469   4.634  11.952 -0.6386  0.2158 -2.1285
 2752TIP3   OH229746   3.369   6.605  12.009  0.1920  1.2554 -0.0061
 2752TIP3    H129747   3.404   6.545  12.075  0.6137  2.3518  0.7961
 2752TIP3    H229748   3.398   6.568  11.925 -0.9281 -0.5249  0.3514
 2753TIP3   OH229749   0.437   6.534  10.227  0.7860  0.9544 -0.2578
 2753TIP3    H129750   0.447   6.621  10.267  2.1230 -0.1419  1.9763
 2753TIP3    H229751   0.363   6.495  10.272 -0.4273  1.2244 -1.9346
 2754TIP3   OH229752   2.343   5.158   3.586  0.4348  0.0679 -1.2839
 2754TIP3    H129753   2.362   5.065   3.593  0.2274 -0.0530 -2.2207
 2754TIP3    H229754   2.421   5.196   3.546  1.4900  0.6984  1.1801
 2755TIP3   OH229755   0.493   3.196   1.701  0.2228 -0.1539 -0.1543
 2755TIP3    H129756   0.531   3.282   1.714  3.3353 -1.7537  3.2119
 2755TIP3    H229757   0.446   3.178   1.782 -0.0257 -1.7863 -0.6238
 2756TIP3   OH229758   6.176   1.841  11.031 -0.0523 -0.1599 -0.0710
 2756TIP3    H129759   6.205   1.818  11.120 -0.2012 -0.5028 -0.1092
 2756TIP3    H229760   6.149   1.758  10.993  2.6643 -0.5134 -1.4287
 2757TIP3   OH229761   5.662   3.059   5.071 -0.3534 -0.0619  0.5565
 2757TIP3    H129762   5.643   3.133   5.129 -1.5373  0.7861 -0.8494
 2757TIP3    H229763   5.593   2.995   5.090 -0.6581  0.1568  0.2040
 2758TIP3   OH229764   6.484   2.112  13.173  0.1413 -0.5904 -0.5399
 2758TIP3    H129765   6.444   2.053  13.109  1.0933 -2.9110  0.8778
 2758TIP3    H229766   6.491   2.060  13.253  0.3228  1.7282  1.0579
 2759TIP3   OH229767   5.937   1.085  16.273 -0.2553 -0.0122  0.0249
 2759TIP3    H129768   5.981   1.153  16.326  1.0140 -0.8526  0.1021
 2759TIP3    H229769   5.844   1.097  16.291  0.1062  0.0696  2.0666
 2760TIP3   OH229770   3.590   4.053   4.154  0.5252 -0.1742  0.2859
 2760TIP3    H129771   3.674   4.081   4.118 -0.3777  3.2498  0.4925
 2760TIP3    H229772   3.574   4.113   4.227 -2.3561 -0.2418 -0.1643
 2761TIP3   OH229773   0.999   2.291  14.597  0.5009  0.7210  0.3810
 2761TIP3    H129774   0.992   2.259  14.508  0.2472  0.1649  0.5984
 2761TIP3    H229775   0.911   2.280  14.634  0.9618 -0.4669  1.1738
 2762TIP3   OH229776   2.482   3.823   4.874  0.6015  0.3358  0.6615
 2762TIP3    H129777   2.399   3.844   4.831  0.4827  0.7977  1.1099
 2762TIP3    H229778   2.473   3.731   4.901  0.2553  0.3681  0.6610
 2763TIP3   OH229779   5.818   5.354  12.817 -0.4768  0.1483 -0.2253
 2763TIP3    H129780   5.735   5.399  12.800 -1.6342 -1.0461  1.8824
 2763TIP3    H229781   5.814   5.275  12.763 -0.4762  0.3209 -0.4817
 2764TIP3   OH229782   1.973   3.061  15.810 -0.0243 -0.1271  0.1711
 2764TIP3    H129783   2.048   3.067  15.751 -0.2711  0.2267 -0.1102
 2764TIP3    H229784   2.011   3.038  15.895  0.2003 -2.1724 -0.4304
 2765TIP3   OH229785   1.221   5.917  10.656  1.0599  0.4701  0.0152
 2765TIP3    H129786   1.192   5.908  10.565  1.4063 -1.2234  0.0374
 2765TIP3    H229787   1.316   5.929  10.649  1.2947 -1.0660  0.1633
 2766TIP3   OH229788   5.386   5.708   3.244 -0.2634  0.3712 -0.7971
 2766TIP3    H129789   5.308   5.759   3.266 -1.4291 -2.0353  1.0876
 2766TIP3    H229790   5.356   5.643   3.181  0.2923 -0.3085 -0.3832
 2767TIP3   OH229791   1.680   5.606  12.532  0.2903  0.0500 -0.4202
 2767TIP3    H129792   1.728   5.523  12.529 -0.1665 -0.2504  0.2187
 2767TIP3    H229793   1.695   5.639  12.621 -1.0781 -0.3063 -0.0294
 2768TIP3   OH229794   2.476   5.250   0.589 -0.6371  0.5878 -0.2270
 2768TIP3    H129795   2.422   5.290   0.521 -0.4588 -0.3617 -0.9485
 2768TIP3    H229796   2.434   5.165   0.605  1.9487 -1.3251 -2.6099
 2769TIP3   OH229797   4.046   0.902   1.143 -0.3387 -0.1249  0.0614
 2769TIP3    H129798   4.095   0.822   1.164  0.1475  0.2205  0.2754
 2769TIP3    H229799   4.041   0.903   1.047  1.9995  0.9155 -0.1440
 2770TIP3   OH229800   1.317   4.276   6.162 -0.4170  0.0647  0.4277
 2770TIP3    H129801   1.252   4.314   6.103 -1.6153 -1.3249  0.8004
 2770TIP3    H229802   1.390   4.338   6.160 -1.6627  1.5938 -0.1337
 2771TIP3   OH229803   1.623   6.730  16.662 -0.3658 -0.4581  0.6397
 2771TIP3    H129804   1.575   6.723  16.745 -0.3587 -1.4519  0.5773
 2771TIP3    H229805   1.558   6.761  16.600  0.3483  3.4665  1.6028
 2772TIP3   OH229806   0.006   3.605  11.359  0.2068  0.0227 -0.2307
 2772TIP3    H129807   0.045   3.545  11.423  0.7965  0.7261  0.0827
 2772TIP3    H229808   0.024   3.564  11.274  2.7501  0.8845 -0.1963
 2773TIP3   OH229809   0.781   0.363  12.860  0.2580  0.2799 -0.8350
 2773TIP3    H129810   0.807   0.305  12.932  0.8310  0.2752 -1.0391
 2773TIP3    H229811   0.860   0.371  12.806 -0.7326 -1.4678 -2.6799
 2774TIP3   OH229812   1.182   1.382   4.587 -0.4551 -0.1702 -0.0354
 2774TIP3    H129813   1.221   1.295   4.597  0.0758  0.1980  1.4684
 2774TIP3    H229814   1.230   1.436   4.650 -0.7916  1.2118 -0.9428
 2775TIP3   OH229815   0.408   6.109  15.351 -0.3749  0.1756  0.6539
 2775TIP3    H129816   0.324   6.104  15.398 -0.5448  0.0908  0.3475
 2775TIP3    H229817   0.383   6.130  15.261  0.0977  3.9184  1.2238
 2776TIP3   OH229818   2.516   3.246   2.050 -0.3328 -1.0098  0.2519
 2776TIP3    H129819   2.485   3.175   2.106 -0.2689 -0.3604  1.1279
 2776TIP3    H229820   2.530   3.205   1.965  1.7254 -2.5489  1.2369
 2777TIP3   OH229821   1.277   2.585   1.627 -0.4574 -0.3693  0.4109
 2777TIP3    H129822   1.183   2.581   1.641 -0.4675 -1.8870  0.1147
 2777TIP3    H229823   1.287   2.577   1.532 -0.0541  0.6054  0.3636
 2778TIP3   OH229824   6.175   2.340  12.298 -0.0112  0.2662 -0.3091
 2778TIP3    H129825   6.190   2.342  12.203 -0.3171 -0.4792 -0.3754
 2778TIP3    H229826   6.141   2.253  12.315 -0.9368  0.7465  0.3491
 2779TIP3   OH229827   3.825   1.514   5.094  0.5946  0.1592 -0.0856
 2779TIP3    H129828   3.808   1.450   5.026 -0.5277  0.4818 -0.1389
 2779TIP3    H229829   3.844   1.462   5.172 -0.3923 -0.2628 -0.1056
 2780TIP3   OH229830   5.385   4.153   2.322 -0.1886  0.2267 -0.1773
 2780TIP3    H129831   5.418   4.243   2.319  1.0441 -0.1364  1.2245
 2780TIP3    H229832   5.462   4.101   2.346 -0.9467 -1.1732 -0.7056
 2781TIP3   OH229833   6.554   4.965  13.531  0.1077 -0.2556 -0.4909
 2781TIP3    H129834   6.464   4.974  13.564  1.6861  1.0744  4.4138
 2781TIP3    H229835   6.563   4.872  13.512 -1.7181 -0.8753  1.2886
 2782TIP3   OH229836   6.603   3.624   5.434  0.0822 -0.3205 -0.2173
 2782TIP3    H129837   6.544   3.570   5.486  0.8412  0.0216  1.0613
 2782TIP3    H229838   6.605   3.583   5.348 -0.1973 -1.6848  0.4094
 2783TIP3   OH229839   2.265   0.006   2.635 -0.1259  0.3381  0.0692
 2783TIP3    H129840   2.278   0.033   2.726  0.3573  1.5635 -0.3589
 2783TIP3    H229841   2.171   0.018   2.620 -0.4729 -1.1139  0.7690
 2784TIP3   OH229842   1.721   6.546  13.332  0.2026  0.2814 -0.3959
 2784TIP3    H129843   1.675   6.466  13.305 -0.1378  0.7712 -1.3114
 2784TIP3    H229844   1.675   6.575  13.410 -0.6412  0.4123 -0.9346
 2785TIP3   OH229845   0.154   3.931  10.687 -0.6909  0.0551  0.3377
 2785TIP3    H129846   0.071   3.898  10.653  0.0586  0.2254 -1.8047
 2785TIP3    H229847   0.208   3.853  10.698 -0.2061  0.1518 -1.0709
 2786TIP3   OH229848   6.600   1.637   0.696 -0.2146  0.1775  0.0703
 2786TIP3    H129849   6.648   1.576   0.753 -1.0564  0.6887  1.3641
 2786TIP3    H229850   6.669   1.683   0.648  0.4836 -3.8503 -3.3485
 2787TIP3   OH229851   3.312   3.959   2.461 -0.2145 -0.0382  0.2615
 2787TIP3    H129852   3.240   3.919   2.508  0.0242 -0.2920  0.4131
 2787TIP3    H229853   3.270   4.015   2.396 -0.5467  0.1900  0.6689
 2788TIP3   OH229854   6.616   5.905   0.578 -0.1241  0.6091  0.1122
 2788TIP3    H129855   6.559   5.828   0.582  2.5093 -1.4222  0.9840
 2788TIP3    H229856   6.645   5.909   0.487  0.4053  0.0467  0.2551
 2789TIP3   OH229857   0.367   0.726  14.078  0.0099 -0.0433  0.3767
 2789TIP3    H129858   0.433   0.657  14.066 -1.9084 -1.4908 -3.3490
 2789TIP3    H229859   0.417   0.807  14.071  1.6140 -1.0781 -1.2157
 2790TIP3   OH229860   1.219   5.680  14.454 -0.1327 -0.4186 -0.6301
 2790TIP3    H129861   1.213   5.589  14.427 -2.5617 -0.2477 -0.8574
 2790TIP3    H229862   1.203   5.730  14.374  0.7854  0.2304 -0.4299
 2791TIP3   OH229863   0.636   1.676   1.908  0.1605  0.0989 -0.1614
 2791TIP3    H129864   0.570   1.685   1.839  1.2552  0.2351 -1.2124
 2791TIP3    H229865   0.613   1.594   1.952 -1.3856  0.7103  0.2705
 2792TIP3   OH229866   1.910   4.245   4.760  0.6581 -0.2923 -0.1262
 2792TIP3    H129867   1.836   4.296   4.794  0.2584 -0.1132 -1.2398
 2792TIP3    H229868   1.931   4.286   4.676  1.0907 -1.2347 -0.4865
 2793TIP3   OH229869   0.244   5.696   3.267  0.6012 -0.4671 -0.0822
 2793TIP3    H129870   0.155   5.668   3.247  0.4585  0.3791 -0.6549
 2793TIP3    H229871   0.299   5.654   3.201  0.5165 -0.2897 -0.2676
 2794TIP3   OH229872   3.387   1.807   0.823 -0.3734  0.2519  0.4150
 2794TIP3    H129873   3.386   1.750   0.899 -0.5124 -0.2481  0.0431
 2794TIP3    H229874   3.430   1.755   0.754  0.7379  1.0893  0.4553
 2795TIP3   OH229875   6.374   4.558   5.198  0.0647  0.4717 -0.5586
 2795TIP3    H129876   6.390   4.644   5.239  0.0401  1.2259 -2.0702
 2795TIP3    H229877   6.367   4.498   5.272  1.4041  1.5390  0.5018
 2796TIP3   OH229878   2.321   1.798  10.279  0.1407 -0.4429  0.9285
 2796TIP3    H129879   2.291   1.834  10.362  0.1817  2.5221 -0.2350
 2796TIP3    H229880   2.412   1.827  10.272 -0.1544  0.1908 -0.5733
 2797TIP3   OH229881   0.072   3.347   1.173 -0.3007  0.0297 -0.2332
 2797TIP3    H129882   0.117   3.272   1.134 -0.1308 -1.1452  2.0527
 2797TIP3    H229883   0.142   3.405   1.201 -0.4336  1.1541 -2.0509
 2798TIP3   OH229884   5.159   1.134  15.139  0.3528 -0.2177  0.0362
 2798TIP3    H129885   5.128   1.044  15.152 -0.8561  0.0750 -0.6808
 2798TIP3    H229886   5.166   1.170  15.227 -0.5575 -0.5607  0.2592
 2799TIP3   OH229887   6.590   5.673  13.405 -0.1243 -0.6597  0.6722
 2799TIP3    H129888   6.529   5.684  13.332  1.4120  1.4612 -0.4015
 2799TIP3    H229889   6.534   5.676  13.483 -1.5024  0.3324 -0.2976
 2800TIP3   OH229890   1.670   3.162  16.733  0.8174 -0.2952  0.4441
 2800TIP3    H129891   1.689   3.070  16.715  0.7508 -0.6137  1.8337
 2800TIP3    H229892   1.577   3.164  16.752  0.5308  0.3156 -0.9222
 2801TIP3   OH229893   1.933   1.205  16.064  0.1538 -0.1870  0.3353
 2801TIP3    H129894   1.911   1.112  16.072  1.0123 -0.3568  0.8203
 2801TIP3    H229895   2.014   1.206  16.014  0.5383  0.2570  0.9581
 2802TIP3   OH229896   1.460   1.777   3.824 -0.7359  0.2855 -0.0657
 2802TIP3    H129897   1.437   1.746   3.912  1.0723 -0.0014  0.3424
 2802TIP3    H229898   1.390   1.742   3.769 -0.6801 -1.5726  0.9214
 2803TIP3   OH229899   1.113   1.686  16.238 -0.2067 -0.7467 -0.2284
 2803TIP3    H129900   1.039   1.724  16.192 -2.4723 -3.3322  0.9979
 2803TIP3    H229901   1.163   1.641  16.170 -0.5673 -0.2272 -0.8524
 2804TIP3   OH229902   2.665   3.417  11.478 -0.2308  0.1857  0.1260
 2804TIP3    H129903   2.595   3.442  11.538 -0.4680 -0.8283  0.3048
 2804TIP3    H229904   2.656   3.477  11.404 -1.0303  0.3462  0.3408
 2805TIP3   OH229905   4.023   0.720  11.406 -0.5655  0.9838  0.0887
 2805TIP3    H129906   3.986   0.768  11.480 -1.1615  0.1615  0.3476
 2805TIP3    H229907   3.954   0.719  11.340  0.0557  1.9344 -0.5976
 2806TIP3   OH229908   3.177   5.153   5.613  0.3007  0.2867 -0.2339
 2806TIP3    H129909   3.242   5.208   5.656  0.4320 -0.9471  1.2271
 2806TIP3    H229910   3.178   5.181   5.522  3.9982 -0.7093 -0.6521
 2807TIP3   OH229911   0.619   1.872   4.910  0.4545 -0.0841  0.7747
 2807TIP3    H129912   0.538   1.841   4.951  0.5457  0.8131  1.6818
 2807TIP3    H229913   0.595   1.885   4.818 -0.9742  1.8163  1.3334
 2808TIP3   OH229914   6.646   0.647  12.088 -0.0825  0.8268 -0.1027
 2808TIP3    H129915   6.595   0.717  12.048 -1.8647  0.5383  1.5514
 2808TIP3    H229916   6.595   0.619  12.164  1.6427 -0.7790  0.5618
 2809TIP3   OH229917   0.401   4.271  15.083  0.4588 -0.0702 -0.0546
 2809TIP3    H129918   0.411   4.180  15.112 -1.3018 -0.5856 -0.9554
 2809TIP3    H229919   0.307   4.283  15.070  0.5520  2.1606  0.8430
 2810TIP3   OH229920   3.458   0.301   5.573  0.2665 -0.0682  0.6678
 2810TIP3    H129921   3.532   0.358   5.594 -1.0252  2.1159 -0.3402
 2810TIP3    H229922   3.480   0.264   5.488 -0.2933  1.6402 -0.2842
 2811TIP3   OH229923   6.742   0.728   4.058 -0.1057  0.1867  0.3732
 2811TIP3    H129924   6.740   0.737   3.963  0.8323 -0.5888  0.2599
 2811TIP3    H229925   6.745   0.633   4.073  1.5142  0.3105  1.1020
 2812TIP3   OH229926   6.496   0.807   5.771 -0.3076  0.0852 -0.2322
 2812TIP3    H129927   6.577   0.759   5.752  0.3099  0.2951  1.6738
 2812TIP3    H229928   6.491   0.809   5.866 -1.9730  1.1007 -0.3022
 2813TIP3   OH229929   2.363   4.370   4.007 -0.2967  0.2734 -0.1135
 2813TIP3    H129930   2.441   4.398   4.054 -0.5297  2.2683 -0.8156
 2813TIP3    H229931   2.391   4.365   3.915 -0.5284 -0.8870 -0.1323
 2814TIP3   OH229932   5.863   1.373   4.901  0.2862  0.7167 -0.0516
 2814TIP3    H129933   5.811   1.433   4.954  1.9699  1.0024  1.3653
 2814TIP3    H229934   5.845   1.400   4.811 -0.6788  1.9114  0.4642
 2815TIP3   OH229935   0.590   0.777   6.063 -0.5231  0.3721 -0.3775
 2815TIP3    H129936   0.547   0.856   6.094 -0.8377 -0.5351  1.6773
 2815TIP3    H229937   0.652   0.754   6.132  1.6726  0.3635 -2.2224
 2816TIP3   OH229938   3.606   3.825   3.287  0.2753  0.2369 -0.1172
 2816TIP3    H129939   3.671   3.895   3.294  0.9179 -0.2487 -1.0064
 2816TIP3    H229940   3.573   3.832   3.197 -0.8197  0.3927  0.2773
 2817TIP3   OH229941   1.777   0.075  14.550 -0.2935  0.4485  0.1698
 2817TIP3    H129942   1.724   0.093  14.628  1.0125 -1.0258  1.4532
 2817TIP3    H229943   1.835   0.151  14.543 -1.8923  1.6740 -0.7625
 2818TIP3   OH229944   1.781   3.560   2.697  0.1176  0.0296  0.3297
 2818TIP3    H129945   1.710   3.613   2.732  0.7562  0.4901  0.9665
 2818TIP3    H229946   1.747   3.525   2.614 -0.9698 -0.0639  0.8012
 2819TIP3   OH229947   0.797   4.694  12.759  0.6641 -0.5633 -0.1166
 2819TIP3    H129948   0.758   4.747  12.690  0.4795  0.3851  0.6857
 2819TIP3    H229949   0.723   4.652  12.802  0.5889  0.3767  0.7125
 2820TIP3   OH229950   0.629   5.576   0.216 -0.6093 -0.4585  0.0778
 2820TIP3    H129951   0.684   5.518   0.268 -0.5550 -0.3969  0.0892
 2820TIP3    H229952   0.559   5.603   0.275 -0.1166  0.2404  0.3661
 2821TIP3   OH229953   1.913   2.554   1.321  0.1592 -0.1823 -0.4979
 2821TIP3    H129954   1.953   2.469   1.305 -1.5497 -1.3923  1.2065
 2821TIP3    H229955   1.888   2.553   1.413 -2.9734  0.7594 -1.1837
 2822TIP3   OH229956   1.798   4.836   2.034  0.0368  0.2884  0.3492
 2822TIP3    H129957   1.711   4.800   2.049 -0.5911  0.7208 -1.9310
 2822TIP3    H229958   1.785   4.930   2.025  0.5636  0.2540 -0.9900
 2823TIP3   OH229959   5.315   0.134   1.182 -0.3234 -0.2045  0.3585
 2823TIP3    H129960   5.278   0.186   1.110 -0.6854  0.5918  1.1034
 2823TIP3    H229961   5.270   0.050   1.177  1.6323 -1.2637 -2.0950
 2824TIP3   OH229962   1.851   6.605  16.802  0.2025 -0.3446  0.0247
 2824TIP3    H129963   1.816   6.523  16.836 -0.5263  0.1520  0.4891
 2824TIP3    H229964   1.839   6.600  16.707 -1.3944 -0.0739  0.1897
 2825TIP3   OH229965   2.228   5.122   1.265  0.4292  0.2415 -0.2229
 2825TIP3    H129966   2.296   5.158   1.323  0.1827  0.8728 -0.3163
 2825TIP3    H229967   2.277   5.077   1.196  0.7247 -0.6508  0.5476
 2826TIP3   OH229968   5.447   5.131   1.045  0.1475  0.5596  0.1699
 2826TIP3    H129969   5.417   5.050   1.003  0.7379  0.7327 -0.6087
 2826TIP3    H229970   5.368   5.183   1.056 -0.1958 -0.0072  0.4302
 2827TIP3   OH229971   3.726   4.260   1.140  0.2032 -0.0784 -0.0476
 2827TIP3    H129972   3.809   4.308   1.142  0.3527 -0.3333 -0.0533
 2827TIP3    H229973   3.710   4.243   1.047 -0.6797  1.3755 -0.1904
 2828TIP3   OH229974   1.566   5.171  13.125 -0.2466 -0.1581  0.0837
 2828TIP3    H129975   1.566   5.250  13.179 -0.4855  0.4749 -0.8364
 2828TIP3    H229976   1.475   5.159  13.098  0.1910  0.9146 -2.1281
 2829TIP3   OH229977   2.957   0.225   4.295  0.4196 -0.1563 -0.2937
 2829TIP3    H129978   3.032   0.205   4.238  0.6733 -0.9006  0.2813
 2829TIP3    H229979   2.992   0.215   4.384  0.2694  1.8365  0.0421
 2830TIP3   OH229980   4.421   3.119   3.093  0.0465 -0.0364 -0.1579
 2830TIP3    H129981   4.339   3.135   3.046 -1.3665 -0.5804  1.9821
 2830TIP3    H229982   4.404   3.039   3.142  1.4725  0.4721  1.2139
 2831TIP3   OH229983   0.578   3.735  11.762  0.0186 -0.0708  0.2915
 2831TIP3    H129984   0.525   3.673  11.813 -1.1243 -0.3332 -1.1535
 2831TIP3    H229985   0.651   3.683  11.729  0.3048 -0.0977  0.9573
 2832TIP3   OH229986   5.327   4.669  16.856 -0.1653  0.4472  0.1969
 2832TIP3    H129987   5.362   4.757  16.863  0.4443  0.3104 -0.9140
 2832TIP3    H229988   5.322   4.652  16.762  1.2756 -1.2888  0.3857
 2833TIP3   OH229989   0.670   4.119   4.195  0.2817  0.3094  1.1771
 2833TIP3    H129990   0.747   4.125   4.252  0.6562  2.8833  0.5091
 2833TIP3    H229991   0.693   4.169   4.118 -1.3695 -0.5391  0.0600
 2834TIP3   OH229992   5.276   1.349  11.083 -0.7198  0.3577  0.4825
 2834TIP3    H129993   5.300   1.319  11.170  1.3258 -1.0296 -0.4965
 2834TIP3    H229994   5.318   1.434  11.074  1.4945 -0.7268 -0.1067
 2835TIP3   OH229995   3.938   2.954   1.805 -0.1718 -0.0581 -0.1332
 2835TIP3    H129996   3.993   2.910   1.870 -0.4563 -0.7533 -0.3534
 2835TIP3    H229997   3.848   2.939   1.835 -0.2644  1.4188  0.4472
 2836TIP3   OH229998   6.558   4.372  16.753  0.0423  0.0300 -0.0690
 2836TIP3    H129999   6.495   4.322  16.701 -1.5136 -0.0134  1.7503
 2836TIP3    H230000   6.584   4.444  16.697 -0.1110 -1.0390 -1.5834
 2837TIP3   OH230001   6.196   2.762  12.357 -0.2081 -0.3016  0.2697
 2837TIP3    H130002   6.130   2.778  12.425 -1.1626  2.0024 -1.0939
 2837TIP3    H230003   6.265   2.826  12.375 -0.2823  0.0543 -0.6804
 2838TIP3   OH230004   5.771   2.349  14.981 -0.6070  0.0005 -0.6559
 2838TIP3    H130005   5.846   2.349  14.922 -0.9282  1.0133 -1.0745
 2838TIP3    H230006   5.768   2.260  15.016  1.8096  0.3638  0.6756
 2839TIP3   OH230007   4.347   4.561   2.530  0.4825  0.0538  0.1494
 2839TIP3    H130008   4.287   4.635   2.517  0.1064 -0.2578  0.0583
 2839TIP3    H230009   4.291   4.484   2.520  1.3886 -0.3435 -2.9138
 2840TIP3   OH230010   0.398   4.820   3.598 -0.1618  0.1783 -0.6509
 2840TIP3    H130011   0.376   4.733   3.562 -0.0554 -0.4077  0.6410
 2840TIP3    H230012   0.341   4.829   3.674  1.4008  0.2559  0.5650
 2841TIP3   OH230013   0.499   4.646  12.493  0.2943 -0.0707 -0.2720
 2841TIP3    H130014   0.434   4.694  12.441 -0.2909 -1.4327 -0.8572
 2841TIP3    H230015   0.571   4.708  12.503 -0.3702  0.8863 -1.0970
 2842TIP3   OH230016   5.628   5.145   6.195 -0.0499  0.2027 -0.4287
 2842TIP3    H130017   5.636   5.092   6.116 -1.5139 -0.6366 -0.0410
 2842TIP3    H230018   5.567   5.097   6.251 -0.7099  1.8355  0.3232
 2843TIP3   OH230019   5.519   5.426  15.115  0.1506 -0.4349  0.1384
 2843TIP3    H130020   5.447   5.456  15.169  0.4967  0.5122  0.0947
 2843TIP3    H230021   5.596   5.431  15.172  0.2962 -0.7574 -0.0248
 2844TIP3   OH230022   5.520   0.303  12.345  0.5702 -0.2531 -0.5758
 2844TIP3    H130023   5.499   0.321  12.437 -0.3405  0.0184 -0.8238
 2844TIP3    H230024   5.453   0.241  12.317  0.3984  0.2359 -1.2617
 2845TIP3   OH230025   6.186   5.837  13.317  0.5794  0.0280  0.3652
 2845TIP3    H130026   6.160   5.878  13.235  1.6054  0.2678  0.1475
 2845TIP3    H230027   6.171   5.744  13.304  0.3610  0.1077  0.0490
 2846TIP3   OH230028   5.668   6.302  12.515 -0.0684  0.2401  0.3086
 2846TIP3    H130029   5.712   6.217  12.506 -0.4295  0.2010 -1.4479
 2846TIP3    H230030   5.575   6.280  12.525 -0.5074  0.3974 -2.5989
 2847TIP3   OH230031   5.916   2.454   4.103 -0.0930 -0.0920  0.2562
 2847TIP3    H130032   5.974   2.457   4.179  1.8867 -1.7269 -1.0626
 2847TIP3    H230033   5.957   2.389   4.045 -1.5671  1.0139 -2.1554
 2848TIP3   OH230034   0.782   0.821   3.424  0.5436 -0.0918  0.0231
 2848TIP3    H130035   0.871   0.827   3.459  0.7397 -1.3632 -0.2108
 2848TIP3    H230036   0.731   0.880   3.480  1.4295  0.2532  0.4936
 2849TIP3   OH230037   5.114   4.835  12.456  0.2097  0.0621 -0.4123
 2849TIP3    H130038   5.101   4.900  12.525 -1.5815 -0.1837 -0.4686
 2849TIP3    H230039   5.064   4.869  12.381  0.9477 -0.3762 -1.1201
 2850TIP3   OH230040   5.132   0.211  13.077  0.4377 -1.4538  0.3265
 2850TIP3    H130041   5.070   0.179  13.142 -0.0642 -1.9733 -0.3847
 2850TIP3    H230042   5.091   0.190  12.993  0.4966  0.3044 -0.1811
 2851TIP3   OH230043   3.867   3.854   2.242  0.5168 -0.4228 -0.1596
 2851TIP3    H130044   3.923   3.776   2.241  1.0170 -0.0942  0.8716
 2851TIP3    H230045   3.809   3.840   2.317 -0.2247 -0.3661 -0.7125
 2852TIP3   OH230046   6.739   6.586   2.944 -0.2186  0.2409  0.3201
 2852TIP3    H130047   6.658   6.621   2.982  0.7079 -0.5132  3.2798
 2852TIP3    H230048   6.807   6.608   3.008  1.0993 -3.1862  0.3425
 2853TIP3   OH230049   6.167   3.877  11.860  0.2630 -0.1563 -0.1604
 2853TIP3    H130050   6.186   3.783  11.860  0.6990 -0.0673 -0.5896
 2853TIP3    H230051   6.249   3.919  11.886 -0.1921  0.0617  0.9893
 2854TIP3   OH230052   4.390   2.372   5.672 -0.2498 -0.0647  0.1034
 2854TIP3    H130053   4.446   2.295   5.662 -0.4899 -0.2656  0.2745
 2854TIP3    H230054   4.318   2.342   5.728 -1.3975 -0.2664 -1.4191
 2855TIP3   OH230055   4.325   0.754   6.260  0.8414  0.0848 -0.3535
 2855TIP3    H130056   4.273   0.833   6.274  0.2954 -0.1095 -1.1800
 2855TIP3    H230057   4.400   0.764   6.319  0.5125  0.9658 -0.0593
 2856TIP3   OH230058   5.690   5.017  14.143 -0.1659 -0.3499 -0.1071
 2856TIP3    H130059   5.684   4.936  14.093 -1.5009 -1.6741  2.0256
 2856TIP3    H230060   5.751   4.997  14.215  2.9365  1.9615 -1.8031
 2857TIP3   OH230061   0.635   6.370   1.705  0.7818 -0.0515 -0.1688
 2857TIP3    H130062   0.615   6.312   1.631  1.0647  0.0626 -0.3351
 2857TIP3    H230063   0.608   6.319   1.782  3.2100 -1.4227 -0.1316
 2858TIP3   OH230064   3.534   5.785  11.461  0.2438 -0.0740  0.2010
 2858TIP3    H130065   3.557   5.722  11.393  1.4316  0.6235 -0.0452
 2858TIP3    H230066   3.465   5.740  11.512 -0.8829 -0.4767 -1.5983
 2859TIP3   OH230067   2.506   4.861   1.834 -0.2080  0.1047 -1.0944
 2859TIP3    H130068   2.568   4.926   1.866  1.2524 -1.5931 -0.3150
 2859TIP3    H230069   2.427   4.911   1.813  1.0209  2.1721 -1.0308
 2860TIP3   OH230070   2.570   0.862  11.657 -0.0192 -0.5978  0.7279
 2860TIP3    H130071   2.487   0.828  11.622  0.3924  0.1378 -1.0990
 2860TIP3    H230072   2.572   0.832  11.748 -1.9317 -1.2656  0.5981
 2861TIP3   OH230073   4.700   2.170  13.397  0.2068  0.1295  0.2256
 2861TIP3    H130074   4.717   2.077  13.411  0.5103  0.1021 -0.3020
 2861TIP3    H230075   4.622   2.188  13.450 -0.5833 -0.7164 -0.5954
 2862TIP3   OH230076   2.795   1.128   4.031 -0.0843 -0.3511 -0.4828
 2862TIP3    H130077   2.781   1.209   3.982 -1.7322 -1.0288 -1.2344
 2862TIP3    H230078   2.707   1.092   4.042  0.6442 -2.2785 -0.6014
 2863TIP3   OH230079   5.282   1.857   3.478 -0.1365  0.1182 -0.0102
 2863TIP3    H130080   5.221   1.830   3.546  0.6251 -2.1250 -0.1426
 2863TIP3    H230081   5.246   1.821   3.397 -1.5188  3.5140 -1.0716
 2864TIP3   OH230082   2.950   4.419   1.100  0.4611  0.4187 -0.0185
 2864TIP3    H130083   2.898   4.486   1.056  0.0632  0.8537  1.0708
 2864TIP3    H230084   2.968   4.354   1.032  0.7867  1.5747 -1.0830
 2865TIP3   OH230085   0.973   4.408   6.717 -0.5144  0.1756 -0.5707
 2865TIP3    H130086   0.882   4.401   6.744 -0.1505  0.0096  0.6750
 2865TIP3    H230087   0.970   4.453   6.632 -1.8490 -1.2053 -1.3095
 2866TIP3   OH230088   3.996   5.872   0.953  0.4680 -0.4184  0.1508
 2866TIP3    H130089   3.929   5.928   0.913  0.1954  0.0293  1.2053
 2866TIP3    H230090   4.078   5.904   0.915  0.1348 -0.7139 -0.8557
 2867TIP3   OH230091   1.292   1.186  14.201 -0.2494  0.0393 -0.0200
 2867TIP3    H130092   1.253   1.270  14.179 -3.2558 -1.0864  0.6259
 2867TIP3    H230093   1.278   1.131  14.124  1.1196 -0.1155 -0.1938
 2868TIP3   OH230094   6.007   3.917  12.096  0.3573 -0.3363 -0.1159
 2868TIP3    H130095   6.055   3.924  12.013 -0.2415  1.9087 -0.3439
 2868TIP3    H230096   5.918   3.896  12.070  0.5899 -1.6696  0.1201
 2869TIP3   OH230097   2.360   6.057  16.629  0.1294 -0.0703  0.0228
 2869TIP3    H130098   2.345   5.997  16.556  1.1108 -0.0297 -0.2327
 2869TIP3    H230099   2.308   6.134  16.609  0.6516  0.0775 -0.8206
 2870TIP3   OH230100   0.500   3.302  16.629 -0.6663 -0.4915  0.8018
 2870TIP3    H130101   0.536   3.272  16.545 -1.5075 -1.6667  0.8341
 2870TIP3    H230102   0.570   3.285  16.692 -0.4199 -0.5778  0.5108
 2871TIP3   OH230103   3.223   2.786  16.162  0.1351 -0.1230  0.8103
 2871TIP3    H130104   3.140   2.766  16.119  0.5495 -0.6595  0.2355
 2871TIP3    H230105   3.279   2.710  16.143  1.1738  0.7855  0.0778
 2872TIP3   OH230106   1.446   0.182  14.143  0.2321  0.4302 -0.2407
 2872TIP3    H130107   1.468   0.183  14.049  1.0314  1.5556 -0.0565
 2872TIP3    H230108   1.430   0.089  14.162  2.3890 -0.1461 -0.9689
 2873TIP3   OH230109   2.184   3.080   3.644 -0.4130 -0.1953 -0.2753
 2873TIP3    H130110   2.096   3.102   3.614 -0.2780  0.4077 -0.2322
 2873TIP3    H230111   2.183   2.985   3.654 -0.4577 -0.4283 -2.1863
 2874TIP3   OH230112   4.181   4.098  15.199  0.1239  0.3170  0.0001
 2874TIP3    H130113   4.200   4.031  15.133 -0.5288  1.1033 -1.0191
 2874TIP3    H230114   4.153   4.174  15.148  0.3276  1.1942  1.1630
 2875TIP3   OH230115   5.514   2.721   3.756 -0.7266 -0.0243 -0.0220
 2875TIP3    H130116   5.444   2.775   3.791 -0.4929  0.6933 -0.6304
 2875TIP3    H230117   5.539   2.765   3.675  2.0766  1.1158  1.3425
 2876TIP3   OH230118   0.515   2.165  10.305 -0.1656 -0.2810 -0.1996
 2876TIP3    H130119   0.495   2.253  10.273  1.3868 -0.3754 -1.5175
 2876TIP3    H230120   0.535   2.178  10.398  0.7597  0.9059 -0.5285
 2877TIP3   OH230121   3.317   3.878  14.678  0.3628  0.2069  0.1211
 2877TIP3    H130122   3.239   3.837  14.642 -0.4583  1.6367  0.1932
 2877TIP3    H230123   3.388   3.849  14.621 -0.2727 -0.7765 -0.1926
 2878TIP3   OH230124   5.941   0.162   2.186 -0.3197  0.0428 -0.3826
 2878TIP3    H130125   6.018   0.148   2.131  0.1746  2.8111 -0.5417
 2878TIP3    H230126   5.876   0.199   2.127 -0.2219  1.8391  0.5558
 2879TIP3   OH230127   6.363   3.295   6.025 -0.0225  0.0274  0.2666
 2879TIP3    H130128   6.299   3.248   5.970  0.6357 -0.2255 -0.2949
 2879TIP3    H230129   6.375   3.238   6.101  3.1632 -2.4369 -1.8242
 2880TIP3   OH230130   2.984   1.248   1.196  0.0851 -0.3429 -0.1697
 2880TIP3    H130131   3.051   1.180   1.200 -0.3686 -0.7494  0.7006
 2880TIP3    H230132   2.966   1.269   1.288 -0.2260  0.5094 -0.4197
 2881TIP3   OH230133   1.775   3.652  16.878 -0.7423 -0.2500 -0.5237
 2881TIP3    H130134   1.722   3.639  16.957  0.4424  0.9049  0.4987
 2881TIP3    H230135   1.712   3.645  16.806 -1.7705 -1.8188  0.4569
 2882TIP3   OH230136   2.027   0.016  12.294 -0.5894 -0.4945 -0.3165
 2882TIP3    H130137   2.086   0.014  12.218  1.0634  1.2808  0.8404
 2882TIP3    H230138   2.004  -0.076  12.308  1.5962 -1.2191 -1.0634
 2883TIP3   OH230139   6.187   5.798   5.671 -0.2395 -0.6454 -0.2689
 2883TIP3    H130140   6.117   5.780   5.734 -0.7447  0.2823 -0.5523
 2883TIP3    H230141   6.173   5.888   5.644  0.4424 -0.7784 -1.1286
 2884TIP3   OH230142   0.517   4.268  14.590  0.8818 -0.3699 -0.0358
 2884TIP3    H130143   0.550   4.342  14.538 -1.7340  0.5600 -0.5550
 2884TIP3    H230144   0.513   4.302  14.679  1.2084 -0.4450  0.0083
 2885TIP3   OH230145   3.080   4.109  15.333  0.8691  0.4957  0.5024
 2885TIP3    H130146   3.075   4.091  15.427  1.5028 -0.6522  0.3339
 2885TIP3    H230147   3.080   4.022  15.292  1.3958  0.9607 -0.5183
 2886TIP3   OH230148   1.369   3.478  16.312 -0.3080  0.9759 -0.3362
 2886TIP3    H130149   1.297   3.521  16.357 -1.5894 -2.2466  1.0020
 2886TIP3    H230150   1.442   3.481  16.375 -0.4004  1.1467 -0.2359
 2887TIP3   OH230151   6.267   2.569  15.965 -0.0029 -0.2330  0.0735
 2887TIP3    H130152   6.326   2.592  15.893  0.0570 -0.2412  0.1203
 2887TIP3    H230153   6.266   2.474  15.966 -0.3178 -0.2350 -0.1744
 2888TIP3   OH230154   0.663   4.190  13.501  0.3851 -0.0918  0.3256
 2888TIP3    H130155   0.694   4.168  13.413  2.7877 -0.5475  1.2040
 2888TIP3    H230156   0.570   4.211  13.489 -0.1436 -2.9959 -1.8714
 2889TIP3   OH230157   1.371   1.696  16.403  0.3730  0.1742  0.1714
 2889TIP3    H130158   1.282   1.668  16.382 -0.2912  1.2063  1.4632
 2889TIP3    H230159   1.402   1.740  16.324 -0.9637  1.4106  0.2933
 2890TIP3   OH230160   0.856   5.369   0.593  0.2735  0.0105 -0.2949
 2890TIP3    H130161   0.839   5.295   0.651  0.7213 -1.4881 -1.9904
 2890TIP3    H230162   0.774   5.380   0.545  0.3009  0.4564 -0.2407
 2891TIP3   OH230163   3.580   0.806   0.471  0.2168  0.3816  0.1449
 2891TIP3    H130164   3.557   0.841   0.385  1.3899 -2.1635 -1.3084
 2891TIP3    H230165   3.664   0.846   0.491  1.1874 -0.8909 -1.1552
 2892TIP3   OH230166   2.905   0.982   2.960 -0.2136  0.0787 -0.1032
 2892TIP3    H130167   2.909   1.069   2.920 -0.2662 -0.1709 -0.6592
 2892TIP3    H230168   2.923   0.921   2.888  1.4724 -0.3077  0.5948
 2893TIP3   OH230169   4.676   0.480  12.484 -0.4107 -0.4380  0.6407
 2893TIP3    H130170   4.581   0.486  12.475 -0.4311  2.6424  1.9304
 2893TIP3    H230171   4.707   0.569  12.471  2.5847 -1.6445 -1.7248
 2894TIP3   OH230172   2.183   4.380  14.922  0.5058 -0.1145  0.4380
 2894TIP3    H130173   2.151   4.459  14.966  0.3698  0.2543 -0.2980
 2894TIP3    H230174   2.268   4.363  14.964 -0.2934 -0.6788  1.8924
 2895TIP3   OH230175   0.552   3.925   3.686  0.0896  0.0882 -0.6729
 2895TIP3    H130176   0.611   3.908   3.612  0.3539 -0.1085 -0.4217
 2895TIP3    H230177   0.568   4.017   3.708  0.2634  0.0511 -0.6423
 2896TIP3   OH230178   6.018   3.814   3.079  0.0296  0.9914 -0.8841
 2896TIP3    H130179   5.931   3.819   3.039 -0.5043  1.9366  0.3376
 2896TIP3    H230180   6.004   3.839   3.170  1.7711  2.4262 -0.9457
 2897TIP3   OH230181   5.610   4.572   5.089  0.2857  0.6471 -0.3219
 2897TIP3    H130182   5.533   4.523   5.059  0.6733  0.5944 -1.2579
 2897TIP3    H230183   5.596   4.583   5.183 -0.0147 -0.9292 -0.1417
 2898TIP3   OH230184   6.306   5.074  14.066 -0.2072 -0.6714  0.1345
 2898TIP3    H130185   6.248   5.051  14.139  0.5844  0.2873  1.0975
 2898TIP3    H230186   6.256   5.052  13.987 -1.5093 -0.6949  0.9475
 2899TIP3   OH230187   4.679   3.866   0.162 -0.3100 -0.2318 -0.0273
 2899TIP3    H130188   4.595   3.875   0.117  1.1626  1.8898 -2.6139
 2899TIP3    H230189   4.682   3.940   0.223  0.1144  0.3808 -0.7739
 2900TIP3   OH230190   4.113   1.943  13.493 -0.4334 -0.2466 -0.2624
 2900TIP3    H130191   4.173   2.013  13.467  0.0026 -0.5251 -0.0004
 2900TIP3    H230192   4.040   1.989  13.535 -0.0163  0.0356  0.1681
 2901TIP3   OH230193   4.965   4.990  11.218  0.6956  0.0970 -0.3309
 2901TIP3    H130194   4.923   4.977  11.133 -0.4575  3.9215 -0.5361
 2901TIP3    H230195   5.056   5.010  11.197  0.3217  1.4477 -0.7824
 2902TIP3   OH230196   6.301   2.303  15.918  0.6315 -0.0879  0.5174
 2902TIP3    H130197   6.287   2.252  15.998 -0.3686 -1.3722 -0.4246
 2902TIP3    H230198   6.392   2.286  15.894  1.3615  1.3915  2.0777
 2903TIP3   OH230199   0.554   3.163   4.043  0.0202  0.3270  0.1316
 2903TIP3    H130200   0.576   3.173   3.951 -0.2910  0.3000  0.0519
 2903TIP3    H230201   0.625   3.206   4.090  1.4828 -1.8027 -0.0240
 2904TIP3   OH230202   0.583   4.560  12.994 -0.2109  0.1634  0.2771
 2904TIP3    H130203   0.505   4.552  12.938 -0.3068  0.0303  0.4291
 2904TIP3    H230204   0.562   4.631  13.054  0.4705  1.3045 -0.7976
 2905TIP3   OH230205   5.061   6.172   3.278  0.4198 -0.2482  0.1345
 2905TIP3    H130206   5.088   6.250   3.327  2.3357  0.2529 -1.5689
 2905TIP3    H230207   4.981   6.198   3.233 -0.7330 -0.3538  2.0181
 2906TIP3   OH230208   1.176   0.076   4.055  0.2260  0.5439  0.4727
 2906TIP3    H130209   1.144   0.166   4.058  0.0012  0.4487  1.2574
 2906TIP3    H230210   1.232   0.068   4.133  1.1971  0.3506 -0.2322
 2907TIP3   OH230211   1.220   1.357  16.736 -0.4316 -0.1302 -0.5312
 2907TIP3    H130212   1.211   1.422  16.666  1.9371  1.0215  0.1306
 2907TIP3    H230213   1.130   1.341  16.765 -1.2676  1.1824 -2.1947
 2908TIP3   OH230214   0.569   3.520   3.063 -0.1729 -0.8535 -0.0176
 2908TIP3    H130215   0.567   3.427   3.087 -0.3116 -0.0618  3.6993
 2908TIP3    H230216   0.477   3.547   3.064  0.0010 -0.0193  2.6630
 2909TIP3   OH230217   1.807   0.691  13.710 -0.0164  0.4664 -0.0728
 2909TIP3    H130218   1.889   0.672  13.755 -0.5180  0.4786  0.8723
 2909TIP3    H230219   1.785   0.780  13.736  1.2065  1.6575 -2.7522
 2910TIP3   OH230220   6.512   2.236   2.882  0.8279 -0.2904 -0.0860
 2910TIP3    H130221   6.561   2.242   2.800  3.2726 -1.3489  1.1959
 2910TIP3    H230222   6.498   2.327   2.909 -0.8592  0.1098 -2.0551
 2911TIP3   OH230223   3.006   6.417   1.922  0.4999 -0.5036  0.0760
 2911TIP3    H130224   2.913   6.403   1.910  0.7219  0.1084 -3.2632
 2911TIP3    H230225   3.017   6.426   2.017 -2.6746 -1.2842  0.6258
 2912TIP3   OH230226   2.742   0.017  16.846  0.2073  0.1427  0.1547
 2912TIP3    H130227   2.680   0.089  16.837  0.5256  0.2317 -1.9062
 2912TIP3    H230228   2.694  -0.051  16.894 -1.1191  0.6236 -0.4543
 2913TIP3   OH230229   5.243   2.181   0.493 -0.0657 -0.2637  0.2056
 2913TIP3    H130230   5.191   2.214   0.567 -0.0049 -0.2948  0.2629
 2913TIP3    H230231   5.183   2.126   0.444 -0.2721  0.2249 -0.0957
 2914TIP3   OH230232   0.276   3.563  12.215 -0.5883  0.2870 -0.2809
 2914TIP3    H130233   0.194   3.518  12.194 -0.5864  0.0442  0.2379
 2914TIP3    H230234   0.254   3.656  12.209 -0.2708  0.2790 -2.6663
 2915TIP3   OH230235   6.816   0.928  14.885 -0.4159 -0.1557  0.0589
 2915TIP3    H130236   6.746   0.972  14.836  0.1887 -0.8948 -1.5494
 2915TIP3    H230237   6.770   0.871  14.947 -1.2068  1.4683  1.0467
 2916TIP3   OH230238   5.498   1.427  10.819  0.4531  0.2351  0.6852
 2916TIP3    H130239   5.436   1.357  10.796 -0.4509  1.4157 -0.6258
 2916TIP3    H230240   5.583   1.394  10.789 -0.0498 -0.0986 -0.4074
 2917TIP3   OH230241   0.696   3.285  13.284  0.0722  0.1593 -0.1451
 2917TIP3    H130242   0.730   3.342  13.353 -0.0980  0.5870 -0.4139
 2917TIP3    H230243   0.694   3.340  13.206 -2.0864  0.4298  0.0527
 2918TIP3   OH230244   3.742   5.286  16.143  0.1884 -0.4329 -0.0947
 2918TIP3    H130245   3.742   5.210  16.085 -0.3508 -1.1352  0.8000
 2918TIP3    H230246   3.818   5.273  16.200  0.6631  0.2065 -0.5605
 2919TIP3   OH230247   3.224   5.372   4.635 -0.1584 -0.1732  0.2856
 2919TIP3    H130248   3.177   5.293   4.662 -0.4064 -0.4097 -0.8077
 2919TIP3    H230249   3.309   5.365   4.678  0.7547 -2.2703 -1.6741
 2920TIP3   OH230250   4.380   4.657   0.413  0.3114  0.6212 -0.2526
 2920TIP3    H130251   4.364   4.727   0.350  1.5634  1.0101 -0.1695
 2920TIP3    H230252   4.474   4.640   0.406  0.1010 -0.7872  0.0114
 2921TIP3   OH230253   6.546   6.664  16.967  0.3116 -0.1829  0.2818
 2921TIP3    H130254   6.542   6.658  17.063  0.2090 -1.4098  0.2277
 2921TIP3    H230255   6.456   6.650  16.939  0.1342  1.3451  0.0282
 2922TIP3   OH230256   1.303   6.030   2.844 -0.2081  0.0900 -0.4585
 2922TIP3    H130257   1.328   6.023   2.936 -1.6447 -0.9804 -0.1146
 2922TIP3    H230258   1.213   6.064   2.846 -0.2510  0.0692 -1.4684
 2923TIP3   OH230259   0.796   2.886   5.911  0.2198  0.1541  0.5801
 2923TIP3    H130260   0.806   2.805   5.962 -2.0055 -1.2588 -1.0706
 2923TIP3    H230261   0.717   2.926   5.946  0.0131  0.4152 -0.1775
 2924TIP3   OH230262   0.693   1.891  16.684 -0.0882 -0.4055  0.3506
 2924TIP3    H130263   0.658   1.978  16.701 -0.8416 -0.2072 -1.9325
 2924TIP3    H230264   0.628   1.831  16.721 -0.3576 -0.0161  0.5094
 2925TIP3   OH230265   2.994   2.753   0.438  0.0521 -0.2039 -0.1078
 2925TIP3    H130266   2.986   2.658   0.454 -2.0879  0.1303  1.3126
 2925TIP3    H230267   3.023   2.788   0.523  1.3130  0.4063 -0.7652
 2926TIP3   OH230268   6.676   3.433  14.671 -0.2557 -0.2381 -0.5569
 2926TIP3    H130269   6.728   3.386  14.737 -0.9955  2.1668  1.9734
 2926TIP3    H230270   6.608   3.477  14.722  0.4283  3.5925 -2.5733
 2927TIP3   OH230271   5.595   2.592  14.756 -0.2680 -0.5227 -0.2631
 2927TIP3    H130272   5.600   2.686  14.739 -4.5943 -0.0171  0.1199
 2927TIP3    H230273   5.586   2.552  14.670  0.8960 -0.5680 -0.3809
 2928TIP3   OH230274   4.264   5.900   6.405 -0.2747 -0.0231  0.5946
 2928TIP3    H130275   4.215   5.885   6.486 -0.6142  1.9876  0.8156
 2928TIP3    H230276   4.248   5.992   6.384 -1.3597 -0.7765 -2.5375
 2929TIP3   OH230277   4.622   4.240  17.077 -0.2319  0.3817 -0.5156
 2929TIP3    H130278   4.674   4.253  17.157 -1.2627  1.2320  0.0464
 2929TIP3    H230279   4.586   4.327  17.058 -1.7568 -0.2626 -0.6497
 2930TIP3   OH230280   4.521   0.569   1.072 -0.0691  0.1377 -0.4796
 2930TIP3    H130281   4.482   0.592   1.156  1.7728 -0.1743  0.5119
 2930TIP3    H230282   4.543   0.653   1.032 -0.1993  0.2705 -0.2714
 2931TIP3   OH230283   1.973   2.927  11.801 -0.2290 -0.9417  0.0865
 2931TIP3    H130284   1.979   2.923  11.896 -1.2837 -0.4199  0.1890
 2931TIP3    H230285   2.007   2.843  11.771  1.1992 -0.6681  0.8544
 2932TIP3   OH230286   1.102   1.149  11.191  0.2226  0.4535 -0.7164
 2932TIP3    H130287   1.093   1.191  11.105  4.0538 -1.6395 -2.3994
 2932TIP3    H230288   1.036   1.080  11.191 -0.6439  1.2642 -1.4513
 2933TIP3   OH230289   2.878   0.486   4.407 -0.0029 -0.5810 -0.3148
 2933TIP3    H130290   2.804   0.535   4.443 -0.4977 -0.4532 -1.4739
 2933TIP3    H230291   2.895   0.417   4.472  0.8485  1.1890  1.4734
 2934TIP3   OH230292   5.143   4.698   4.892  0.1031  0.1172 -0.3458
 2934TIP3    H130293   5.048   4.707   4.887  0.0744  0.9548  1.1296
 2934TIP3    H230294   5.172   4.693   4.801 -1.4589 -1.4903 -0.8172
 2935TIP3   OH230295   4.285   5.330   1.156 -0.0139 -0.1107  0.4320
 2935TIP3    H130296   4.228   5.257   1.181  1.6771 -1.3920  0.6864
 2935TIP3    H230297   4.314   5.367   1.239 -0.2145  0.3379  0.3042
 2936TIP3   OH230298   2.689   2.243  15.312 -0.1374 -0.5412 -0.4171
 2936TIP3    H130299   2.774   2.202  15.328  0.5831  1.9748  3.8492
 2936TIP3    H230300   2.710   2.332  15.283 -1.1981  0.2531  1.0904
 2937TIP3   OH230301   6.560   6.308   3.821  0.3044 -0.2360 -0.0536
 2937TIP3    H130302   6.619   6.380   3.797  0.1992  0.0322  0.4646
 2937TIP3    H230303   6.609   6.258   3.886 -0.1065  0.1005  0.5269
 2938TIP3   OH230304   4.372   1.734   3.499  0.2248  0.3460 -0.5372
 2938TIP3    H130305   4.349   1.645   3.472 -0.4622 -0.0849  1.2972
 2938TIP3    H230306   4.386   1.781   3.417 -1.2449 -0.9650 -1.6145
 2939TIP3   OH230307   1.689   4.985  12.613  0.3068 -0.3550  0.1338
 2939TIP3    H130308   1.741   4.942  12.546  2.1293  0.3537  1.0407
 2939TIP3    H230309   1.618   5.028  12.565  1.8909  0.6328 -1.4210
 2940TIP3   OH230310   6.369   0.075   6.629 -0.3194  0.5901  0.1666
 2940TIP3    H130311   6.373   0.143   6.561 -1.2646  0.1812 -0.3201
 2940TIP3    H230312   6.282   0.085   6.668  0.3486  1.0673  1.6158
 2941TIP3   OH230313   0.648   6.757   2.288  0.3123 -0.3234  0.3774
 2941TIP3    H130314   0.603   6.745   2.205 -0.7489 -0.3775  0.9424
 2941TIP3    H230315   0.692   6.673   2.304 -0.5958 -0.7870  0.5125
 2942TIP3   OH230316   5.368   6.354  11.348 -0.6473  0.0163  0.3051
 2942TIP3    H130317   5.296   6.291  11.346  1.0720 -2.0203 -0.9696
 2942TIP3    H230318   5.440   6.310  11.304  0.9835  2.5141  0.2792
 2943TIP3   OH230319   1.471   2.604  14.296  0.4726  0.0510  0.0383
 2943TIP3    H130320   1.511   2.518  14.308 -1.8495 -1.1997 -0.6504
 2943TIP3    H230321   1.446   2.631  14.384  4.6473  1.9417  0.8633
 2944TIP3   OH230322   5.801   5.235   1.255  0.0555 -0.6980  0.5524
 2944TIP3    H130323   5.823   5.293   1.182 -1.6858  0.1537  0.6458
 2944TIP3    H230324   5.774   5.153   1.212 -0.9331 -0.2115  0.1960
 2945TIP3   OH230325   5.226   3.126  14.394  0.1860 -0.4291  0.2098
 2945TIP3    H130326   5.245   3.192  14.327  1.9358  1.7070  2.5962
 2945TIP3    H230327   5.132   3.135  14.410 -0.0609 -0.2491 -1.1575
 2946TIP3   OH230328   1.661   5.575   2.749  0.0986 -0.0276  0.2147
 2946TIP3    H130329   1.680   5.646   2.687 -0.7416  2.3959  2.5258
 2946TIP3    H230330   1.723   5.506   2.726  1.6509  1.8259 -1.5802
 2947TIP3   OH230331   4.898   1.158  10.748  0.3392 -0.0284 -0.1646
 2947TIP3    H130332   4.810   1.152  10.710 -0.9630  0.6677  2.4467
 2947TIP3    H230333   4.932   1.069  10.746 -1.0030 -0.5622 -0.0183
 2948TIP3   OH230334   2.984   3.552  13.996 -0.0754  0.2372  0.0512
 2948TIP3    H130335   2.989   3.485  14.065  0.9136  0.3993  0.1522
 2948TIP3    H230336   2.911   3.607  14.022  0.3336  0.3391  1.0242
 2949TIP3   OH230337   0.323   0.706  14.817 -0.1258 -0.5639 -0.4024
 2949TIP3    H130338   0.230   0.690  14.797 -0.0465 -0.6636 -0.7012
 2949TIP3    H230339   0.367   0.626  14.788 -0.0396 -0.8386  0.4549
 2950TIP3   OH230340   6.088   3.354   4.480  0.0854 -0.4813  0.0677
 2950TIP3    H130341   6.166   3.377   4.531  0.7197 -1.0557 -0.6239
 2950TIP3    H230342   6.018   3.349   4.545  0.8675 -1.1638  0.8843
 2951TIP3   OH230343   5.988   5.155   0.561  0.2176  0.2985 -0.2085
 2951TIP3    H130344   5.905   5.162   0.514 -0.5145 -0.4336  0.9316
 2951TIP3    H230345   6.031   5.240   0.547 -0.9181  0.8492 -0.4482
 2952TIP3   OH230346   2.847   5.205   1.447 -0.1298  0.0956 -0.4006
 2952TIP3    H130347   2.831   5.151   1.369  1.5241  0.9066 -1.3345
 2952TIP3    H230348   2.760   5.218   1.485 -0.6144 -3.8633  0.3676
 2953TIP3   OH230349   4.382   1.813  17.014 -0.1461 -0.0497 -0.0634
 2953TIP3    H130350   4.374   1.735  17.069  1.5438 -0.1457  0.0895
 2953TIP3    H230351   4.359   1.782  16.926  0.7762 -0.8060 -0.0535
 2954TIP3   OH230352   6.735   1.460   5.289 -0.3479 -0.3426  0.0503
 2954TIP3    H130353   6.700   1.447   5.201 -0.4703 -0.2232  0.0815
 2954TIP3    H230354   6.795   1.387   5.302  1.2361  0.7310 -0.9165
 2955TIP3   OH230355   2.307   5.390   0.412  0.1640  0.1213 -0.6399
 2955TIP3    H130356   2.222   5.426   0.385  0.1136  1.3984  1.0536
 2955TIP3    H230357   2.367   5.416   0.343 -0.6031  0.1986 -1.2975
 2956TIP3   OH230358   0.041   4.157   2.820 -0.6787  0.0702  0.5369
 2956TIP3    H130359   0.045   4.252   2.826  0.9219 -0.0208  1.3144
 2956TIP3    H230360  -0.020   4.140   2.748  1.0858  1.7382 -1.4713
 2957TIP3   OH230361   2.225   1.451  16.068  0.0108 -0.4309 -0.1815
 2957TIP3    H130362   2.215   1.419  15.979  2.0515  0.4547 -0.7861
 2957TIP3    H230363   2.294   1.397  16.106 -0.3181 -0.3057  0.6150
 2958TIP3   OH230364   5.793   4.887  14.840  0.2576 -0.2353  0.8393
 2958TIP3    H130365   5.700   4.882  14.865 -1.5302  5.5949 -2.5699
 2958TIP3    H230366   5.831   4.948  14.903  2.0004 -2.4246  2.0798
 2959TIP3   OH230367   0.881   5.654  12.923 -0.4238 -0.2051 -0.4297
 2959TIP3    H130368   0.789   5.680  12.922 -0.5051 -0.1154  2.1026
 2959TIP3    H230369   0.927   5.727  12.881 -1.5665 -0.8615 -2.9932
 2960TIP3   OH230370   5.190   5.573  13.424 -0.0073 -0.6746  0.5240
 2960TIP3    H130371   5.270   5.625  13.431  0.8144 -1.6633 -0.9884
 2960TIP3    H230372   5.120   5.637  13.419  0.8702  0.2578 -0.1198
 2961TIP3   OH230373   3.492   1.486  11.518  0.3028 -0.2177 -0.1603
 2961TIP3    H130374   3.444   1.568  11.505  0.6495  0.1780  0.8828
 2961TIP3    H230375   3.440   1.438  11.583  1.6865  0.6024  1.6581
 2962TIP3   OH230376   6.648   1.010  11.818 -0.5285 -0.3327 -0.4529
 2962TIP3    H130377   6.611   1.092  11.785  0.6628  0.9280  1.1627
 2962TIP3    H230378   6.710   1.038  11.886 -1.2293 -2.6694  1.2453
 2963TIP3   OH230379   4.737   1.516   4.311  0.1412  0.3149 -0.8872
 2963TIP3    H130380   4.718   1.434   4.356  0.4048  0.1213 -1.1226
 2963TIP3    H230381   4.792   1.490   4.236  0.0221  0.6732 -1.1032
 2964TIP3   OH230382   3.355   1.717  11.511  0.5672 -0.0344  0.1251
 2964TIP3    H130383   3.390   1.757  11.432  0.5306 -1.2061 -0.5114
 2964TIP3    H230384   3.262   1.739  11.510  0.5217 -0.2467 -0.2862
 2965TIP3   OH230385   3.422   2.436   5.433 -0.3989 -0.5100  0.4840
 2965TIP3    H130386   3.513   2.443   5.462 -0.3337 -0.6084  0.3070
 2965TIP3    H230387   3.411   2.344   5.410  0.1291 -0.0927 -1.6602
 2966TIP3   OH230388   0.725   6.825   1.742 -0.0374  0.1024  1.0024
 2966TIP3    H130389   0.698   6.786   1.825 -2.3351  0.0294  0.3050
 2966TIP3    H230390   0.740   6.751   1.684  0.1531  0.1813  0.9496
 2967TIP3   OH230391   2.616   4.490   0.173  0.3810  0.3122  0.1233
 2967TIP3    H130392   2.690   4.432   0.154  0.4402  0.5075 -0.2340
 2967TIP3    H230393   2.653   4.559   0.228  0.3095  0.0107  0.5540
 2968TIP3   OH230394   1.091   0.535   4.267 -0.5580  0.1355  0.3357
 2968TIP3    H130395   1.129   0.572   4.347  0.0679  0.4613 -0.1074
 2968TIP3    H230396   1.008   0.583   4.255 -0.3850  0.4734  0.4825
 2969TIP3   OH230397   3.082   5.618  12.503  0.2422  0.4086  0.1514
 2969TIP3    H130398   3.032   5.647  12.579  0.4762 -1.9597  1.2920
 2969TIP3    H230399   3.147   5.687  12.489  0.3735  0.7742  2.2809
 2970TIP3   OH230400   0.428   0.150  15.138  0.3369 -0.3564 -0.9079
 2970TIP3    H130401   0.498   0.189  15.191  0.3221  0.7278 -1.6498
 2970TIP3    H230402   0.469   0.074  15.096 -0.4050 -3.0954  2.8483
 2971TIP3   OH230403   3.432   6.164   4.420 -0.1120 -0.2561  0.0236
 2971TIP3    H130404   3.398   6.103   4.486  0.7325 -0.5120  0.2361
 2971TIP3    H230405   3.474   6.108   4.355  0.0084  0.0637 -0.1767
 2972TIP3   OH230406   1.636   4.550   3.853  0.1352  0.1816 -0.2851
 2972TIP3    H130407   1.719   4.552   3.804  0.6905 -1.3898  0.5382
 2972TIP3    H230408   1.571   4.524   3.787  0.5220  0.1332 -0.6591
 2973TIP3   OH230409   5.055   1.761  14.110 -0.6279 -0.2723 -0.4491
 2973TIP3    H130410   5.147   1.757  14.139 -0.2400  0.2323 -1.5561
 2973TIP3    H230411   5.014   1.686  14.153 -0.2690  0.7849  1.9371
 2974TIP3   OH230412   3.287   5.558  17.160 -0.3789 -0.0288  0.0004
 2974TIP3    H130413   3.369   5.522  17.194 -0.5005  0.0523  0.3881
 2974TIP3    H230414   3.285   5.532  17.068 -1.0540 -2.0648  0.5420
 2975TIP3   OH230415   4.079   4.997   2.865 -0.2919  0.2221  0.3628
 2975TIP3    H130416   4.141   4.924   2.859 -0.9464 -0.2244 -1.7108
 2975TIP3    H230417   3.994   4.955   2.878 -0.8642  0.4713 -2.1716
 2976TIP3   OH230418   2.977   5.863  12.191 -0.1157 -0.2090 -0.3118
 2976TIP3    H130419   3.004   5.890  12.278  0.5932  0.7531 -0.8032
 2976TIP3    H230420   2.946   5.773  12.202 -0.9169  0.2122  1.0753
 2977TIP3   OH230421   3.308   5.685  16.189 -0.2877  0.5527  0.1312
 2977TIP3    H130422   3.225   5.703  16.144  0.3688  0.1309 -1.3037
 2977TIP3    H230423   3.355   5.627  16.130  0.7571  0.2206  1.2477
 2978TIP3   OH230424   0.732   0.166  13.028 -0.4783  0.4026  0.0305
 2978TIP3    H130425   0.733   0.186  13.122 -1.1142 -2.1843  0.6806
 2978TIP3    H230426   0.652   0.115  13.016  0.5072 -0.8637 -1.5504
 2979TIP3   OH230427   0.452   2.238   5.700  0.3349 -0.0975  0.5017
 2979TIP3    H130428   0.506   2.227   5.778 -0.5312  2.3961  1.5541
 2979TIP3    H230429   0.440   2.333   5.692 -0.1486 -0.3042 -2.3097
 2980TIP3   OH230430   1.127   4.367  11.445 -0.1264 -0.0478 -0.8186
 2980TIP3    H130431   1.065   4.311  11.491 -0.3305  0.0131 -1.0195
 2980TIP3    H230432   1.145   4.322  11.363 -0.0007 -0.0035 -0.8167
 2981TIP3   OH230433   5.049   4.605  10.483 -0.4706  0.1885 -0.2850
 2981TIP3    H130434   5.114   4.574  10.546 -2.4181 -1.9009  0.8604
 2981TIP3    H230435   5.100   4.625  10.405  1.5960 -1.0615  0.6383
 2982TIP3   OH230436   3.308   5.023   1.707  0.2272 -0.1422 -0.0999
 2982TIP3    H130437   3.374   4.956   1.724  1.7899  1.2148 -0.5433
 2982TIP3    H230438   3.341   5.072   1.632 -0.3412  1.7413  0.7922
 2983TIP3   OH230439   1.846   4.005   4.846  0.0483 -0.2824  0.3644
 2983TIP3    H130440   1.875   4.006   4.937 -0.4241  0.0018  0.5158
 2983TIP3    H230441   1.859   4.095   4.816  2.2816 -0.8321 -0.5332
 2984TIP3   OH230442   5.455   0.384   1.299  0.3272 -0.2040 -0.7553
 2984TIP3    H130443   5.420   0.301   1.268 -0.6251  0.1674 -0.6811
 2984TIP3    H230444   5.456   0.441   1.222 -0.2656  0.1271 -0.5233
 2985TIP3   OH230445   4.001   1.689   0.912 -0.7596 -0.0613  0.2194
 2985TIP3    H130446   3.943   1.630   0.960  0.0095 -0.2574  0.9266
 2985TIP3    H230447   4.034   1.749   0.979 -0.4626  0.3052 -0.2525
 2986TIP3   OH230448   1.066   3.899   4.093  0.6840  0.6164  0.1287
 2986TIP3    H130449   0.987   3.883   4.041  0.0626  2.3502  0.4677
 2986TIP3    H230450   1.037   3.889   4.183  1.1197  0.2136  0.2252
 2987TIP3   OH230451   1.255   2.005   0.956  0.2675 -0.7311  0.0461
 2987TIP3    H130452   1.308   1.939   0.911 -0.6446  0.2861 -2.7137
 2987TIP3    H230453   1.210   1.955   1.025  1.0663 -2.5777 -0.6890
 2988TIP3   OH230454   2.376   0.721   4.350  0.6292 -0.0012  0.6460
 2988TIP3    H130455   2.425   0.797   4.382 -0.9175  1.7896 -0.9906
 2988TIP3    H230456   2.288   0.732   4.387  0.6617 -1.6691  1.3058
 2989TIP3   OH230457   2.755   1.053  13.140  0.0792  0.0209 -0.4448
 2989TIP3    H130458   2.800   1.031  13.221  0.7856  1.0954 -0.5261
 2989TIP3    H230459   2.816   1.028  13.071 -0.7418 -1.4121 -0.7025
 2990TIP3   OH230460   0.698   0.314   5.778 -0.0471  0.1974  0.1304
 2990TIP3    H130461   0.740   0.231   5.797 -0.8548  0.0731  1.5224
 2990TIP3    H230462   0.768   0.370   5.744  1.0072 -0.3063  1.4125
 2991TIP3   OH230463   5.507   2.300  14.815  0.9349  0.2955 -0.1767
 2991TIP3    H130464   5.526   2.383  14.773  0.7647 -0.6069 -2.1290
 2991TIP3    H230465   5.593   2.269  14.846  1.0038  1.1397  0.5339
 2992TIP3   OH230466   5.135   4.306   0.466 -0.4537 -0.3879 -0.1550
 2992TIP3    H130467   5.153   4.388   0.419 -0.6100 -0.2488  0.0275
 2992TIP3    H230468   5.201   4.303   0.535  1.4920 -1.8812 -1.9483
 2993TIP3   OH230469   1.816   1.449  16.971  0.3879 -0.0068  0.0322
 2993TIP3    H130470   1.884   1.512  16.947  0.8825  0.3517  2.1560
 2993TIP3    H230471   1.838   1.423  17.060 -1.7280 -0.5960  0.4414
 2994TIP3   OH230472   2.834   6.256   3.442 -0.4678  0.8664  0.3177
 2994TIP3    H130473   2.891   6.293   3.375 -0.7362  0.3574 -0.2056
 2994TIP3    H230474   2.754   6.308   3.437 -0.8719  0.1890 -0.4663
 2995TIP3   OH230475   5.837   2.225  14.539  0.2716  0.3694 -0.3949
 2995TIP3    H130476   5.838   2.187  14.451  1.4943  1.2859 -0.8053
 2995TIP3    H230477   5.911   2.285  14.540  1.2327 -0.7225  1.7592
 2996TIP3   OH230478   3.556   2.416   1.728 -0.6398  0.1020  0.0555
 2996TIP3    H130479   3.569   2.488   1.789  3.0444 -0.7685  0.5378
 2996TIP3    H230480   3.556   2.458   1.641  1.5712  0.8035  0.3137
 2997TIP3   OH230481   4.095   3.044  16.594 -0.1261 -0.5037 -0.3942
 2997TIP3    H130482   4.013   3.021  16.552  0.0498 -0.3953 -0.7953
 2997TIP3    H230483   4.082   3.020  16.686 -1.3728  1.4622 -0.0046
 2998TIP3   OH230484   5.601   3.227   0.673 -0.4110 -0.8880 -0.0527
 2998TIP3    H130485   5.530   3.283   0.640  2.0326  2.4706 -0.1663
 2998TIP3    H230486   5.589   3.226   0.768 -1.9840 -2.5683 -0.2023
 2999TIP3   OH230487   1.420   0.339   2.960  0.0212  0.2486 -0.1860
 2999TIP3    H130488   1.397   0.261   3.012 -0.7885 -0.2812 -1.2860
 2999TIP3    H230489   1.335   0.372   2.930  0.4448  0.8925 -0.6761
 3000TIP3   OH230490   6.041   1.670  17.089 -0.9378  0.3988 -0.1379
 3000TIP3    H130491   6.064   1.763  17.086 -1.2381  0.5449  1.3832
 3000TIP3    H230492   6.112   1.629  17.139 -0.7645 -0.2212 -0.8689
 3001TIP3   OH230493   1.352   3.530  14.467 -0.3188  0.1759 -0.0294
 3001TIP3    H130494   1.436   3.557  14.432 -0.7757 -0.1778 -1.4434
 3001TIP3    H230495   1.370   3.451  14.518 -0.0709 -1.0521 -1.9570
 3002TIP3   OH230496   3.742   1.667  16.851  0.3635  0.8150  0.1182
 3002TIP3    H130497   3.838   1.673  16.847  0.5088 -1.1622 -0.8982
 3002TIP3    H230498   3.711   1.754  16.826  1.8983  1.3666  0.0426
 3003TIP3   OH230499   4.598   1.481   3.041  0.0605  0.4098  0.0260
 3003TIP3    H130500   4.617   1.569   3.009  3.2912  0.0603  0.6226
 3003TIP3    H230501   4.629   1.423   2.971  1.5982 -0.2407  1.1807
 3004TIP3   OH230502   3.770   6.310   4.112  0.0492 -0.1678 -0.0944
 3004TIP3    H130503   3.756   6.331   4.204  0.9308 -1.6452  0.4188
 3004TIP3    H230504   3.864   6.291   4.106  0.1144  0.4321 -1.4249
 3005TIP3   OH230505   0.889   2.573  11.904  0.2912  0.2732 -0.1025
 3005TIP3    H130506   0.900   2.571  11.809 -1.9985  2.1086 -0.4898
 3005TIP3    H230507   0.916   2.661  11.930  2.1891 -0.6357  1.2001
 3006TIP3   OH230508   5.465   2.092  16.886  0.0523  0.4124 -0.6249
 3006TIP3    H130509   5.447   2.175  16.842 -0.0919 -0.4718 -2.3204
 3006TIP3    H230510   5.380   2.049  16.893  0.0474  0.5940  0.7140
 3007TIP3   OH230511   2.060   2.307   6.450 -0.6505 -0.4535 -0.7434
 3007TIP3    H130512   2.127   2.328   6.515  0.8592  0.5362 -2.5255
 3007TIP3    H230513   1.989   2.369   6.467  0.4411  0.9236 -1.0466
 3008TIP3   OH230514   4.740   6.226  16.470 -0.4068 -0.2241 -0.8744
 3008TIP3    H130515   4.747   6.133  16.448  2.3625 -0.1787 -0.6188
 3008TIP3    H230516   4.793   6.236  16.550 -0.1969  1.6337 -1.1933
 3009TIP3   OH230517   3.956   2.502   2.157 -0.2829  0.7271 -0.1880
 3009TIP3    H130518   3.872   2.534   2.123 -0.7550  0.6849  0.9010
 3009TIP3    H230519   3.972   2.556   2.234 -1.2361 -1.7805  1.8950
 3010TIP3   OH230520   2.832   3.930   0.313  0.1041 -0.4231  0.5304
 3010TIP3    H130521   2.793   4.015   0.336  1.8383  0.3979  0.6111
 3010TIP3    H230522   2.815   3.874   0.388 -2.0303 -0.5347  0.0353
 3011TIP3   OH230523   6.719   3.454   1.357  0.0245 -0.1607  0.0961
 3011TIP3    H130524   6.724   3.376   1.412 -0.9402 -0.2018  0.1374
 3011TIP3    H230525   6.726   3.421   1.268  0.3239 -0.2166  0.1380
 3012TIP3   OH230526   0.762   1.112   1.436 -0.1797  0.4314 -0.2336
 3012TIP3    H130527   0.760   1.016   1.430 -0.8697  0.2038  2.2790
 3012TIP3    H230528   0.671   1.137   1.453 -0.0491  1.5810 -1.1128
 3013TIP3   OH230529   2.721   4.661  16.929 -0.4424  0.0515 -0.4775
 3013TIP3    H130530   2.768   4.743  16.940 -2.4490  1.0115  1.7261
 3013TIP3    H230531   2.743   4.609  17.006 -3.4155  0.8621  1.0820
 3014TIP3   OH230532   4.594   0.527   0.550 -0.0954  0.2910 -0.4640
 3014TIP3    H130533   4.518   0.522   0.492 -0.2656  2.7898 -0.5813
 3014TIP3    H230534   4.558   0.511   0.638 -1.0649  2.5836 -0.3731
 3015TIP3   OH230535   2.438   5.529   0.170  0.4013 -1.1291  0.3822
 3015TIP3    H130536   2.390   5.602   0.208 -0.0360  0.9226 -3.5425
 3015TIP3    H230537   2.529   5.557   0.169  0.1841 -0.2994 -1.4888
 3016TIP3   OH230538   4.099   5.491   4.612  0.5527  0.0273 -0.6888
 3016TIP3    H130539   4.148   5.553   4.557  0.1668  1.4797  0.5417
 3016TIP3    H230540   4.134   5.503   4.700 -1.2741  0.3673  0.0459
 3017TIP3   OH230541   4.028   3.357  12.958 -0.5374 -0.1219 -0.2942
 3017TIP3    H130542   4.098   3.331  12.898 -0.1905  1.3100 -0.5355
 3017TIP3    H230543   3.994   3.439  12.922 -0.8925  0.3255  1.0043
 3018TIP3   OH230544   3.859   3.970  16.230 -0.2468 -0.3140  0.5972
 3018TIP3    H130545   3.924   3.904  16.208  0.0720  0.0932  0.2990
 3018TIP3    H230546   3.838   4.012  16.147 -1.3167 -0.8153  0.5934
 3019TIP3   OH230547   3.631   0.498   5.658  0.8842  0.0501  0.1386
 3019TIP3    H130548   3.661   0.492   5.749 -1.7291  0.0923  1.0842
 3019TIP3    H230549   3.585   0.582   5.653 -2.0738 -1.4523 -0.1380
 3020TIP3   OH230550   1.694   0.483  16.695  0.1703  0.1142 -0.3749
 3020TIP3    H130551   1.698   0.445  16.607  1.4263  0.8890 -0.6831
 3020TIP3    H230552   1.632   0.427  16.742  1.0400 -1.5705 -1.1361
 3021TIP3   OH230553   0.953   0.855  16.955 -0.2816 -0.3672  0.1045
 3021TIP3    H130554   0.908   0.932  16.989  0.4474  0.8581 -1.5614
 3021TIP3    H230555   0.959   0.795  17.030 -1.3742  0.9442  1.2865
 3022TIP3   OH230556   5.421   6.249   5.333  0.8549  0.1115 -0.4443
 3022TIP3    H130557   5.485   6.300   5.283  0.6964 -1.5834 -2.5269
 3022TIP3    H230558   5.388   6.185   5.270 -0.6070 -1.0723  1.4397
 3023TIP3   OH230559   5.092   6.344   6.345  0.1308  0.4870  0.3205
 3023TIP3    H130560   5.030   6.407   6.381 -0.5273  0.7957 -1.2483
 3023TIP3    H230561   5.170   6.352   6.400 -1.1457  0.1720  2.2669
 3024TIP3   OH230562   5.369   2.169  13.504 -0.1593 -0.2650  0.4260
 3024TIP3    H130563   5.426   2.224  13.559 -0.8829 -0.0183  0.9498
 3024TIP3    H230564   5.430   2.121  13.448  0.4932  1.2368 -0.2165
 3025TIP3   OH230565   0.679   0.423  16.846 -0.1689 -1.0316 -0.8445
 3025TIP3    H130566   0.727   0.341  16.836  1.1366 -0.7113  2.0140
 3025TIP3    H230567   0.596   0.397  16.886 -0.3021 -1.0768 -1.1464
 3026TIP3   OH230568   3.033   0.964  12.236  0.3745 -0.1845 -0.0384
 3026TIP3    H130569   2.971   1.001  12.173  0.2220 -0.9199 -0.3261
 3026TIP3    H230570   2.996   0.988  12.322 -0.0634 -0.2120 -0.2152
 3027TIP3   OH230571   3.102   1.836   2.522  0.2678  0.5652 -0.1171
 3027TIP3    H130572   3.058   1.918   2.543  0.3490  0.1005  2.1139
 3027TIP3    H230573   3.146   1.852   2.439 -1.5891  2.0198 -0.8921
 3028TIP3   OH230574   4.800   2.361   6.717  0.3170 -0.4279 -0.7044
 3028TIP3    H130575   4.870   2.387   6.657  1.5807 -1.4636  0.2470
 3028TIP3    H230576   4.765   2.280   6.680 -0.2809 -0.0153 -1.0729
 3029TIP3   OH230577   2.889   5.574  13.447  0.7499  0.1893  0.6551
 3029TIP3    H130578   2.879   5.580  13.542 -3.7171  0.6460  0.3884
 3029TIP3    H230579   2.865   5.661  13.415 -1.4167 -0.8719 -0.9010
 3030TIP3   OH230580   5.985   1.216   0.755  0.1052  0.1320 -0.2522
 3030TIP3    H130581   5.941   1.252   0.678  0.8766  0.1325 -0.7028
 3030TIP3    H230582   6.029   1.291   0.795 -0.8950  0.2825  0.6353
 3031TIP3   OH230583   3.918   4.739  15.189 -0.1148 -0.3631 -0.4061
 3031TIP3    H130584   3.940   4.788  15.268 -0.3511  0.0791 -0.6117
 3031TIP3    H230585   3.997   4.689  15.169  0.1367 -0.0476 -0.2097
 3032TIP3   OH230586   4.617   5.418  14.941 -0.3535 -0.2831 -0.2943
 3032TIP3    H130587   4.594   5.380  14.856 -0.1417 -0.0118 -0.4771
 3032TIP3    H230588   4.534   5.442  14.980 -0.4480 -0.3230 -0.4695
 3033TIP3   OH230589   0.361   2.946  12.934 -0.7137  0.0019 -0.2724
 3033TIP3    H130590   0.311   2.906  13.006 -2.4308  0.4395 -1.1657
 3033TIP3    H230591   0.330   2.900  12.856 -2.8159  3.0241 -1.3600
 3034TIP3   OH230592   5.503   6.093   4.485  0.6518 -0.2526  0.4347
 3034TIP3    H130593   5.516   6.059   4.574  0.6710 -1.0864  0.1225
 3034TIP3    H230594   5.418   6.137   4.489  1.0141  0.4197  1.0664
 3035TIP3   OH230595   0.379   1.634   1.418  0.2779 -0.1106 -0.4468
 3035TIP3    H130596   0.458   1.609   1.369 -0.7877  0.6706 -2.6985
 3035TIP3    H230597   0.309   1.584   1.377 -0.4963 -0.4767  1.2461
 3036TIP3   OH230598   4.599   1.265   4.399  0.5384  0.3310 -0.2285
 3036TIP3    H130599   4.618   1.175   4.375 -1.9267 -0.4182  0.3806
 3036TIP3    H230600   4.524   1.290   4.345  0.8221  1.8394  0.0178
 3037TIP3   OH230601   6.504   4.477   0.676 -0.1963 -0.0622  0.3395
 3037TIP3    H130602   6.560   4.454   0.602 -1.1276 -1.1612 -0.0496
 3037TIP3    H230603   6.482   4.569   0.661 -1.3510 -0.5690 -1.4592
 3038TIP3   OH230604   2.641   0.584   1.112 -0.5854 -1.1432  0.3421
 3038TIP3    H130605   2.671   0.657   1.058 -1.8390  0.1388  1.2756
 3038TIP3    H230606   2.720   0.549   1.153  0.5078 -2.6127 -2.7605
 3039TIP3   OH230607   1.691   3.843  10.595 -0.3462 -0.3999  0.4370
 3039TIP3    H130608   1.675   3.765  10.648 -1.1193  0.8579  2.1385
 3039TIP3    H230609   1.675   3.916  10.655  0.4114  1.0710 -1.0923
 3040TIP3   OH230610   6.301   2.051   0.128  0.5863 -0.7638 -0.6822
 3040TIP3    H130611   6.304   2.087   0.039  0.2956 -0.0404 -0.4019
 3040TIP3    H230612   6.391   2.023   0.146  0.7785 -0.3279 -0.9629
 3041TIP3   OH230613   2.861   2.274  10.706  0.2207  0.0417 -0.5945
 3041TIP3    H130614   2.785   2.246  10.654 -0.8962  1.5425  0.1678
 3041TIP3    H230615   2.853   2.369  10.711  2.6470  0.3317 -1.1870
 3042TIP3   OH230616   6.739   3.409  16.877  0.1386 -0.0231  0.0048
 3042TIP3    H130617   6.777   3.489  16.913  0.7842 -0.9359  1.4820
 3042TIP3    H230618   6.645   3.427  16.871  0.4522  1.3681 -1.1980
 3043TIP3   OH230619   5.461   0.991   0.924  0.2491 -0.0531 -0.2617
 3043TIP3    H130620   5.496   0.978   0.836  2.8828  2.2188  0.2866
 3043TIP3    H230621   5.529   0.955   0.982 -0.9886 -0.6380  0.8769
 3044TIP3   OH230622   2.722   0.617  15.933 -0.4944 -0.1466 -0.0739
 3044TIP3    H130623   2.656   0.578  15.991 -1.0389  1.2166  0.2526
 3044TIP3    H230624   2.683   0.699  15.904 -0.3139 -0.8799 -2.5598
 3045TIP3   OH230625   3.823   2.502   0.788 -0.3321  0.1550 -0.1247
 3045TIP3    H130626   3.876   2.501   0.708  1.8582 -0.9681  1.2551
 3045TIP3    H230627   3.767   2.425   0.781 -0.2980  0.1764 -0.6574
 3046TIP3   OH230628   0.378   6.260  10.788 -0.1245 -0.0051  0.0894
 3046TIP3    H130629   0.328   6.256  10.707 -1.0215 -1.2368  0.6662
 3046TIP3    H230630   0.466   6.229  10.765 -0.0941  0.5715 -0.5898
 3047TIP3   OH230631   2.520   4.587  15.278  0.0602 -0.6199 -0.0758
 3047TIP3    H130632   2.437   4.623  15.247  0.9987  0.5349 -1.3602
 3047TIP3    H230633   2.539   4.637  15.358  0.4831  0.5436 -0.8789
 3048TIP3   OH230634   4.843   4.529   4.006  0.0922  0.9754  0.0576
 3048TIP3    H130635   4.814   4.452   3.958  1.6958  0.9097 -0.8943
 3048TIP3    H230636   4.775   4.594   3.991 -1.5404 -0.3589  1.2937
 3049TIP3   OH230637   5.445   6.564  12.973 -0.0562 -0.4951 -0.7254
 3049TIP3    H130638   5.503   6.639  12.977  0.2085 -0.6631 -1.2974
 3049TIP3    H230639   5.497   6.495  12.932 -0.3679 -0.9231 -0.4187
 3050TIP3   OH230640   5.608   6.284   0.325 -0.3123 -0.0143 -0.3423
 3050TIP3    H130641   5.642   6.195   0.333  0.5070  0.3725  0.6788
 3050TIP3    H230642   5.635   6.313   0.238 -0.3374 -0.6560 -0.5661
 3051TIP3   OH230643   5.471   5.624  12.266 -0.3496 -0.0475  0.1526
 3051TIP3    H130644   5.508   5.541  12.235 -0.5412 -0.3610  0.7619
 3051TIP3    H230645   5.387   5.632  12.221  0.0288  0.2267 -0.5389
 3052TIP3   OH230646   1.372   3.727  12.651  0.2497 -0.1188  0.5092
 3052TIP3    H130647   1.416   3.795  12.601 -1.6866 -0.2024 -1.4617
 3052TIP3    H230648   1.334   3.669  12.585  0.6980 -2.4037  2.1107
 3053TIP3   OH230649   5.984   5.017  11.799 -0.8263  0.0176 -0.2385
 3053TIP3    H130650   6.003   5.039  11.890 -0.9709  1.5498 -0.5521
 3053TIP3    H230651   5.902   4.968  11.802 -1.3587  0.9215  0.3937
 3054TIP3   OH230652   4.159   3.497  15.733  0.1718 -0.1498  0.4047
 3054TIP3    H130653   4.097   3.440  15.687  0.0534 -1.3312  1.9474
 3054TIP3    H230654   4.108   3.533  15.805  0.8581  0.1596  0.7387
 3055TIP3   OH230655   4.408   0.041   0.357 -0.2663  0.6138  0.3870
 3055TIP3    H130656   4.331   0.082   0.397  0.0733  1.1003  0.5550
 3055TIP3    H230657   4.470   0.032   0.429 -0.3338 -0.2161  0.3514
 3056TIP3   OH230658   6.087   1.878   2.185 -0.1649 -0.7136  0.3049
 3056TIP3    H130659   6.082   1.944   2.255  1.1732  0.9285 -1.0497
 3056TIP3    H230660   6.181   1.862   2.174 -0.3626 -1.1029 -0.9463
 3057TIP3   OH230661   4.656   4.712  16.983 -0.0352 -0.6016 -0.5119
 3057TIP3    H130662   4.744   4.684  17.009 -0.3532 -0.8422  0.3526
 3057TIP3    H230663   4.642   4.793  17.031 -0.6688 -1.0966  0.1561
 3058TIP3   OH230664   6.835   2.184   2.519 -0.1268 -0.3424  0.3944
 3058TIP3    H130665   6.820   2.112   2.459  1.6518 -0.7926  0.4265
 3058TIP3    H230666   6.777   2.254   2.489 -0.0876 -0.9446 -1.1410
 3059TIP3   OH230667   0.393   0.846   5.470  0.0793 -0.2179 -0.2503
 3059TIP3    H130668   0.368   0.860   5.562  2.8404 -2.1218  0.9234
 3059TIP3    H230669   0.488   0.856   5.469  0.1766 -0.7426 -2.8309
 3060TIP3   OH230670   5.092   1.650   0.174 -0.5800 -0.1155  0.4145
 3060TIP3    H130671   5.068   1.605   0.255 -1.8938 -0.3167 -0.0533
 3060TIP3    H230672   5.094   1.581   0.108  0.8685 -0.0154  0.3238
 3061TIP3   OH230673   4.617   2.407  14.244 -0.2538  0.0324 -0.0742
 3061TIP3    H130674   4.603   2.437  14.154 -0.8301  2.2316  0.6808
 3061TIP3    H230675   4.528   2.393  14.278 -0.0707 -0.0637  0.3604
 3062TIP3   OH230676   0.245   2.931  11.395  0.3947 -0.1698  0.6494
 3062TIP3    H130677   0.315   2.956  11.455 -0.7688 -2.1539  3.0164
 3062TIP3    H230678   0.278   2.852  11.352  1.1208  1.1021 -1.2740
 3063TIP3   OH230679   0.302   2.634  15.661  0.2772  0.6159 -0.2629
 3063TIP3    H130680   0.333   2.626  15.751 -1.0906 -1.9332  0.1013
 3063TIP3    H230681   0.207   2.647  15.670 -0.0424 -0.7758 -1.2738
 3064TIP3   OH230682   4.700   3.097  14.187 -0.3196  0.1742 -0.1394
 3064TIP3    H130683   4.696   3.166  14.121  0.5141 -2.5488 -3.3116
 3064TIP3    H230684   4.613   3.055  14.183 -0.0413 -0.4268 -0.0696
 3065TIP3   OH230685   2.480   3.528   2.088 -0.2935 -0.3281  0.6465
 3065TIP3    H130686   2.497   3.434   2.082  0.0798 -0.4016  2.3410
 3065TIP3    H230687   2.395   3.540   2.047 -1.6851 -1.8895  2.8317
 3066TIP3   OH230688   5.879   4.692   0.920  0.2116 -0.3648  0.3857
 3066TIP3    H130689   5.811   4.674   0.856 -1.3570  1.7310  1.3595
 3066TIP3    H230690   5.958   4.709   0.867 -0.5738 -0.5266 -0.8742
 3067TIP3   OH230691   4.039   1.689  13.658  0.0652 -0.1598  0.0411
 3067TIP3    H130692   3.954   1.656  13.628  0.1329 -2.6307  2.1695
 3067TIP3    H230693   4.098   1.674  13.585 -1.1946  1.2043 -1.3214
 3068TIP3   OH230694   2.826   5.231   2.718  0.6983  0.7973  0.3341
 3068TIP3    H130695   2.751   5.283   2.745 -0.4358 -0.6609  0.1506
 3068TIP3    H230696   2.800   5.140   2.735  2.6881  0.2800  0.8994
 3069TIP3   OH230697   6.009   5.957  14.642 -0.6302  0.1019  0.4752
 3069TIP3    H130698   6.087   5.964  14.587 -1.3631  3.0134 -0.3848
 3069TIP3    H230699   6.034   6.000  14.724 -1.7001  2.5471 -0.3896
 3070TIP3   OH230700   1.899   5.097  11.726 -0.2545 -0.0734  0.3757
 3070TIP3    H130701   1.896   5.024  11.664 -2.6205  0.1206  0.1944
 3070TIP3    H230702   1.831   5.077  11.790 -1.1308  2.1055  0.1764
 3071TIP3   OH230703   3.807   4.608   1.988 -0.2696 -0.5562  0.2543
 3071TIP3    H130704   3.828   4.665   1.914 -1.7785 -1.0336 -0.5943
 3071TIP3    H230705   3.869   4.536   1.981  0.6872  0.2125  0.4704
 3072TIP3   OH230706   0.399   0.036  15.876 -0.1050  0.4883  0.2806
 3072TIP3    H130707   0.431   0.125  15.891  1.3320  0.2317 -0.9326
 3072TIP3    H230708   0.426   0.016  15.786 -1.7226 -0.6402  0.0108
 3073TIP3   OH230709   2.205   3.435  13.566 -0.0102 -0.1867 -0.5798
 3073TIP3    H130710   2.135   3.498  13.580 -0.2533  0.0370 -2.5003
 3073TIP3    H230711   2.166   3.350  13.589 -0.4998  0.0707 -0.4468
 3074TIP3   OH230712   3.381   6.794   2.985  0.3979  0.6314  0.3136
 3074TIP3    H130713   3.467   6.766   2.953  1.5226  2.5656  1.4442
 3074TIP3    H230714   3.352   6.859   2.920  0.0701  0.4400  0.2671
 3075TIP3   OH230715   4.523   2.501  16.998  0.4957  0.1389  0.3757
 3075TIP3    H130716   4.439   2.546  16.994 -0.8823 -2.2626  0.3517
 3075TIP3    H230717   4.574   2.538  16.925 -1.3431  0.1742 -0.9573
 3076TIP3   OH230718   2.009   3.528   0.192  0.3648  0.2775 -0.1393
 3076TIP3    H130719   1.923   3.491   0.171 -0.5007  1.6062  0.9073
 3076TIP3    H230720   2.008   3.616   0.154  0.5314  0.9878  1.4166
 3077TIP3   OH230721   3.060   0.391   2.610 -0.1006 -0.1254  0.4801
 3077TIP3    H130722   3.003   0.439   2.671 -0.9150 -1.1264  0.5261
 3077TIP3    H230723   3.053   0.300   2.637  0.0297 -0.5085 -0.7271
 3078TIP3   OH230724   2.086   0.002  16.262 -0.1424 -0.3723 -0.3931
 3078TIP3    H130725   2.140   0.020  16.185  0.7811 -0.9023  0.1182
 3078TIP3    H230726   2.045  -0.083  16.243  0.7082 -0.8883  0.0225
 3079TIP3   OH230727   5.339   3.303  16.704 -0.1877  0.2723 -0.3744
 3079TIP3    H130728   5.291   3.221  16.713  0.1168  0.1248 -0.0726
 3079TIP3    H230729   5.406   3.300  16.773 -0.5869  1.0667  0.0674
 3080TIP3   OH230730   0.867   2.899  14.396 -0.2790  0.6228  0.1438
 3080TIP3    H130731   0.877   2.965  14.465 -0.4471 -0.3828  1.1744
 3080TIP3    H230732   0.880   2.816  14.441  1.3137 -0.0221 -1.3853
 3081TIP3   OH230733   3.439   1.815  15.319 -0.0587 -1.0424 -0.7273
 3081TIP3    H130734   3.446   1.752  15.392 -0.8952 -0.0793  0.2186
 3081TIP3    H230735   3.518   1.869  15.327 -1.1409  0.4288  0.8462
 3082TIP3   OH230736   0.800   6.751  13.250 -0.6994 -0.6248 -0.1367
 3082TIP3    H130737   0.862   6.820  13.273 -2.3767  0.7850  0.4264
 3082TIP3    H230738   0.847   6.695  13.188  0.9435  0.6385 -0.0898
 3083TIP3   OH230739   6.656   6.488   5.525  0.3003 -0.3109 -0.1437
 3083TIP3    H130740   6.622   6.533   5.602 -1.6408  0.8218 -1.5970
 3083TIP3    H230741   6.579   6.449   5.483  1.6194 -3.2482 -0.1322
 3084TIP3   OH230742   6.503   6.053   2.761  0.8189 -0.0296 -0.0674
 3084TIP3    H130743   6.429   6.085   2.814  0.8918  1.3866 -0.7624
 3084TIP3    H230744   6.531   6.130   2.711  2.5424 -0.6349 -0.0939
 3085TIP3   OH230745   6.500   5.973   0.959  0.2496 -0.0759  0.0836
 3085TIP3    H130746   6.540   5.969   1.046 -0.4495 -0.9422  0.3681
 3085TIP3    H230747   6.566   5.937   0.900  0.0044 -1.2495  0.5174
 3086TIP3   OH230748   2.942   5.315   4.164  0.2834  0.4183  0.3415
 3086TIP3    H130749   2.952   5.359   4.248  0.3517  0.4614  0.3113
 3086TIP3    H230750   3.029   5.277   4.147 -0.2060 -1.1528  1.1678
 3087TIP3   OH230751   0.846   2.971   3.713  0.5219  0.4148 -0.3571
 3087TIP3    H130752   0.765   2.918   3.713 -0.5631  2.0078  0.1155
 3087TIP3    H230753   0.909   2.917   3.665 -0.1389 -1.8501  1.1429
 3088TIP3   OH230754   4.370   3.248  11.749 -0.2921  0.2579  0.3795
 3088TIP3    H130755   4.347   3.321  11.806  1.9669  1.2362  0.1305
 3088TIP3    H230756   4.465   3.241  11.756 -0.2811 -1.6138 -0.8983
 3089TIP3   OH230757   1.493   2.753  11.893  0.3406 -0.1077  0.1306
 3089TIP3    H130758   1.559   2.704  11.941 -1.4255 -1.8921  0.8645
 3089TIP3    H230759   1.474   2.699  11.816 -0.8500 -0.0449  0.3663
 3090TIP3   OH230760   4.642   0.881   3.353  0.3133 -0.1011 -0.3342
 3090TIP3    H130761   4.674   0.906   3.267 -0.7360  1.7386 -0.2481
 3090TIP3    H230762   4.572   0.944   3.371  1.2851  0.3283  2.3547
 3091TIP3   OH230763   3.642   2.605   4.613 -0.6094 -0.8044 -0.2269
 3091TIP3    H130764   3.633   2.672   4.681 -0.3190 -0.3483 -0.6293
 3091TIP3    H230765   3.580   2.537   4.638  1.3281 -1.9214  1.9801
 3092TIP3   OH230766   3.709   3.822   3.656  0.0737  0.2122  0.9297
 3092TIP3    H130767   3.751   3.908   3.658  3.6003 -1.2397 -1.8755
 3092TIP3    H230768   3.648   3.827   3.582  1.2601 -0.0072 -0.1009
 3093TIP3   OH230769   1.771   5.752   2.532  0.8084 -0.4982  0.0795
 3093TIP3    H130770   1.835   5.691   2.494  2.0074 -0.5288  2.0305
 3093TIP3    H230771   1.708   5.767   2.461  1.5773 -2.4361 -1.1065
 3094TIP3   OH230772   2.729   6.812   0.239 -0.9462 -0.1079  0.0138
 3094TIP3    H130773   2.802   6.874   0.225 -1.6873  0.9908  0.8553
 3094TIP3    H230774   2.684   6.845   0.316 -1.4456 -1.6645  0.4203
 3095TIP3   OH230775   2.914   5.146  16.831 -0.6652 -0.3173  0.5850
 3095TIP3    H130776   2.838   5.192  16.867  0.2529  0.4738  1.5733
 3095TIP3    H230777   2.980   5.214  16.820 -0.6877 -0.6249 -2.1381
 3096TIP3   OH230778   1.533   1.775   4.297  0.3576 -0.4016  0.2942
 3096TIP3    H130779   1.556   1.821   4.217  0.8587  0.2270  0.7922
 3096TIP3    H230780   1.472   1.832   4.342 -0.4902 -1.0780  0.0288
 3097TIP3   OH230781   5.767   0.015  10.743  0.0659 -0.4331 -0.2276
 3097TIP3    H130782   5.805  -0.073  10.740  0.1193 -0.4720  1.0441
 3097TIP3    H230783   5.790   0.054  10.659 -0.9878 -2.0457 -1.3385
 3098TIP3   OH230784   0.299   2.018   3.894 -0.0752 -0.3546 -0.5158
 3098TIP3    H130785   0.388   2.032   3.862 -0.6583  1.8785 -1.3557
 3098TIP3    H230786   0.296   2.065   3.977 -0.7140  0.4508 -0.9766
 3099TIP3   OH230787   1.240   2.846   6.278  0.3262 -0.0736 -0.0676
 3099TIP3    H130788   1.151   2.878   6.261  0.3340  0.8365  1.4108
 3099TIP3    H230789   1.229   2.754   6.299 -0.2499 -0.0110 -0.0791
 3100TIP3   OH230790   5.089   2.431   3.103  0.0237  0.0804  0.3487
 3100TIP3    H130791   4.998   2.400   3.097  1.2359 -3.6903 -1.8844
 3100TIP3    H230792   5.121   2.395   3.186  0.8652 -3.6498 -1.3655
 3101TIP3   OH230793   2.418   5.219  13.703 -0.6055 -0.6713  0.1369
 3101TIP3    H130794   2.396   5.272  13.780  0.3406  0.4398 -0.3332
 3101TIP3    H230795   2.497   5.171  13.729  0.3832  0.5623 -0.4916
 3102TIP3   OH230796   4.170   2.932  13.471  0.2766 -0.1155  0.2197
 3102TIP3    H130797   4.233   3.003  13.463 -0.5979  0.6774  0.1723
 3102TIP3    H230798   4.088   2.976  13.495  0.0156 -1.2263  1.4981
 3103TIP3   OH230799   2.953   5.249  12.122 -0.3021 -0.6011 -0.1340
 3103TIP3    H130800   2.908   5.305  12.059  1.5826 -1.1401 -2.0611
 3103TIP3    H230801   3.014   5.308  12.168 -1.5941 -0.2324  1.2112
 3104TIP3   OH230802   3.164   0.112   4.162  0.0804  0.7544 -0.6524
 3104TIP3    H130803   3.201   0.075   4.243 -1.3243 -1.2550 -0.8485
 3104TIP3    H230804   3.241   0.128   4.107  0.8685 -1.6396 -0.3994
 3105TIP3   OH230805   1.918   4.216  12.222  0.3829  0.7731  0.4989
 3105TIP3    H130806   1.972   4.195  12.145 -1.4023 -2.1860 -0.1123
 3105TIP3    H230807   1.838   4.254  12.185 -0.4359 -0.5529  0.8517
 3106TIP3   OH230808   3.762   1.992  14.046 -0.0407  0.2755  0.9113
 3106TIP3    H130809   3.819   2.061  14.081 -0.8362  1.7510 -0.5777
 3106TIP3    H230810   3.706   2.037  13.983 -0.2207 -1.8520 -0.5438
 3107TIP3   OH230811   1.591   6.132  12.863 -0.3648  0.3530  0.2447
 3107TIP3    H130812   1.559   6.199  12.923  1.2035  1.2973  0.0746
 3107TIP3    H230813   1.635   6.181  12.794  1.4985 -0.8364  0.5168
 3108TIP3   OH230814   6.417   1.207  12.404  0.0830 -0.2826 -0.1550
 3108TIP3    H130815   6.378   1.129  12.443 -0.6719  0.5440  0.8327
 3108TIP3    H230816   6.356   1.232  12.334  1.1116 -1.4116 -1.4886
 3109TIP3   OH230817   3.844   0.823  10.711  0.1537  0.0632 -0.0545
 3109TIP3    H130818   3.877   0.907  10.741 -0.9486  0.3242  0.4772
 3109TIP3    H230819   3.784   0.844  10.640  1.0479 -0.3989 -0.9675
 3110TIP3   OH230820   1.171   4.148   4.145 -0.1182  0.2986  0.5732
 3110TIP3    H130821   1.146   4.068   4.100  2.1950 -0.1147 -0.0921
 3110TIP3    H230822   1.179   4.122   4.237 -0.2624  0.0111  0.5072
 3111TIP3   OH230823   3.370   0.969   6.713 -0.7553 -0.8488  0.1234
 3111TIP3    H130824   3.379   0.992   6.805 -0.7702  0.3789 -0.1671
 3111TIP3    H230825   3.277   0.947   6.702 -0.8363 -0.6041  0.3176
 3112TIP3   OH230826   5.772   5.936  13.675  0.3003 -0.3568 -0.1744
 3112TIP3    H130827   5.815   5.941  13.760 -0.0800 -0.4540  0.0291
 3112TIP3    H230828   5.841   5.956  13.612  0.5265 -0.0216  0.1717
 3113TIP3   OH230829   2.600   3.093  11.855  0.0144 -0.2376  0.3551
 3113TIP3    H130830   2.558   3.179  11.855  0.0678 -0.1888  1.7002
 3113TIP3    H230831   2.594   3.063  11.946  4.5063  0.6236  1.1971
 3114TIP3   OH230832   6.325   6.059  12.748  0.3045  0.0492 -0.5338
 3114TIP3    H130833   6.343   6.023  12.835  1.1417  0.8485 -0.3568
 3114TIP3    H230834   6.236   6.031  12.729 -0.4560  1.0991  1.2193
 3115TIP3   OH230835   0.624   0.984   3.550 -0.1526  0.2342 -0.5101
 3115TIP3    H130836   0.578   1.004   3.631 -0.5870  0.8068 -0.8910
 3115TIP3    H230837   0.584   1.042   3.485  0.3734 -0.0278 -1.0733
 3116TIP3   OH230838   2.553   2.390  14.768  0.6806  0.8287  0.0863
 3116TIP3    H130839   2.481   2.404  14.830  1.8482  2.4559  1.1564
 3116TIP3    H230840   2.584   2.302  14.789 -1.8253 -0.5084 -1.3661
 3117TIP3   OH230841   2.104   4.676   4.854 -0.1359 -0.1558 -0.2760
 3117TIP3    H130842   2.144   4.763   4.852  1.0203 -0.6698 -0.5243
 3117TIP3    H230843   2.064   4.666   4.767 -1.1754  0.5198  0.1133
 3118TIP3   OH230844   5.342   6.105  17.174 -0.6761 -0.1799 -0.2807
 3118TIP3    H130845   5.283   6.057  17.116 -0.8161  0.8595 -1.0351
 3118TIP3    H230846   5.409   6.142  17.115 -0.5564  0.5106  0.2723
 3119TIP3   OH230847   6.447   6.606   0.135  0.1249 -0.0953  0.3058
 3119TIP3    H130848   6.530   6.573   0.168  1.6749  0.7966 -2.4106
 3119TIP3    H230849   6.400   6.527   0.107  1.2767 -0.4491 -0.7165
 3120TIP3   OH230850   4.662   1.026  15.296  0.0964 -0.0297 -0.6097
 3120TIP3    H130851   4.610   0.947  15.283  0.4320 -0.2343 -0.7457
 3120TIP3    H230852   4.648   1.078  15.217  0.0325 -0.0496 -0.6107
 3121TIP3   OH230853   6.623   0.538  16.944  0.4046  0.4833 -0.1877
 3121TIP3    H130854   6.607   0.473  16.876  1.0386 -1.6071  1.5759
 3121TIP3    H230855   6.719   0.543  16.950  0.4039  2.4878 -1.0692
 3122TIP3   OH230856   1.645   1.808   1.697  1.1588 -0.3639 -0.0426
 3122TIP3    H130857   1.672   1.838   1.784  2.0103  1.3742 -0.8514
 3122TIP3    H230858   1.613   1.719   1.711  0.1699  0.2643  2.2339
 3123TIP3   OH230859   2.206   6.466   4.450 -0.0469  0.8934  0.5915
 3123TIP3    H130860   2.192   6.530   4.520  0.1808  1.2791  0.2792
 3123TIP3    H230861   2.177   6.383   4.489 -3.8227  1.6541 -0.1370
 3124TIP3   OH230862   2.728   3.163  11.557  0.1851 -0.2017  0.1370
 3124TIP3    H130863   2.730   3.256  11.532 -0.6570 -0.5355 -1.2329
 3124TIP3    H230864   2.663   3.158  11.627  0.4774  0.2731  0.4548
 3125TIP3   OH230865   4.203   3.983  14.662 -0.2309 -0.1284  0.1648
 3125TIP3    H130866   4.136   4.041  14.626  1.5682  1.8256 -0.2576
 3125TIP3    H230867   4.244   3.943  14.586  0.9250  0.9084  0.2076
 3126TIP3   OH230868   5.427   1.562  11.054 -0.2354 -0.4971  0.6057
 3126TIP3    H130869   5.458   1.498  10.990 -1.6634  0.3464 -1.0445
 3126TIP3    H230870   5.467   1.645  11.027 -2.4422  0.2714 -0.5426
 3127TIP3   OH230871   2.794   4.939   2.851  0.0614  0.9249 -0.4285
 3127TIP3    H130872   2.805   4.894   2.767  1.2949  0.3534  0.0172
 3127TIP3    H230873   2.719   4.895   2.892  0.9589 -0.4824 -0.1992
 3128TIP3   OH230874   5.800   5.569  11.293  0.2277 -0.2024 -0.4698
 3128TIP3    H130875   5.872   5.570  11.357  1.6605 -1.0504 -2.0004
 3128TIP3    H230876   5.839   5.602  11.212 -1.3736  0.2131 -1.1004
 3129TIP3   OH230877   1.064   5.319  10.603 -0.1589 -0.2043 -0.1802
 3129TIP3    H130878   1.109   5.247  10.647  0.0441 -0.9704 -1.5667
 3129TIP3    H230879   1.010   5.359  10.671  3.1444  1.2900  1.8073
 3130TIP3   OH230880   6.588   2.198   2.005 -0.1462 -0.1625 -0.1624
 3130TIP3    H130881   6.502   2.200   1.962  0.6806 -1.6357 -2.0428
 3130TIP3    H230882   6.613   2.290   2.013 -2.0447  0.3195  0.8292
 3131TIP3   OH230883   2.210   1.497  10.720 -0.3403  0.4592 -0.1807
 3131TIP3    H130884   2.194   1.452  10.637  0.1947 -1.2156  0.5870
 3131TIP3    H230885   2.240   1.584  10.694  1.3274 -0.5263 -1.8005
 3132TIP3   OH230886   2.478   1.865   3.648 -0.1315 -0.0695 -0.2041
 3132TIP3    H130887   2.485   1.834   3.739 -0.4989  0.1861 -0.0865
 3132TIP3    H230888   2.390   1.837   3.621 -0.6544  1.2693  0.0554
 3133TIP3   OH230889   1.427   5.875  11.554 -0.2297 -0.9410  0.0330
 3133TIP3    H130890   1.453   5.844  11.640 -0.3520 -0.2083  0.3360
 3133TIP3    H230891   1.425   5.795  11.500  1.6758 -1.1582  0.2165
 3134TIP3   OH230892   4.990   4.015  12.768  0.2511 -0.5273 -0.4055
 3134TIP3    H130893   5.086   4.015  12.767  0.2546 -0.0092 -1.5409
 3134TIP3    H230894   4.966   3.927  12.795  1.0346 -0.2143  1.5032
 3135TIP3   OH230895   6.015   1.444   3.902  0.1281 -0.2030  0.2844
 3135TIP3    H130896   6.024   1.493   3.983  1.3139 -1.0314  0.6773
 3135TIP3    H230897   5.926   1.407   3.907  0.6025 -1.2269  1.7858
 3136TIP3   OH230898   3.485   5.882   5.661 -0.3120 -0.1294  0.3005
 3136TIP3    H130899   3.498   5.839   5.577 -0.2464  0.7713 -0.1674
 3136TIP3    H230900   3.551   5.844   5.718  0.4285  0.0890 -0.3875
 3137TIP3   OH230901   2.980   1.030  16.217  0.3855  0.5127  0.0632
 3137TIP3    H130902   2.975   0.995  16.306  0.0005  2.5144  0.9078
 3137TIP3    H230903   3.010   0.957  16.164  0.9887 -0.6612  1.9005
 3138TIP3   OH230904   2.215   3.340   6.467  0.2333 -0.1373  0.0638
 3138TIP3    H130905   2.206   3.418   6.522  0.1052  0.5587 -0.9312
 3138TIP3    H230906   2.183   3.268   6.523 -0.4623  0.6395  0.6909
 3139TIP3   OH230907   3.790   1.136   4.777  0.5058  0.2759 -0.1247
 3139TIP3    H130908   3.789   1.187   4.695  0.1514  1.7028  0.7317
 3139TIP3    H230909   3.826   1.051   4.752 -0.2985  0.4068 -1.9294
 3140TIP3   OH230910   6.067   0.139   3.459  0.3445  0.3780  0.5820
 3140TIP3    H130911   6.091   0.057   3.502 -1.0631 -0.9984 -1.1125
 3140TIP3    H230912   6.123   0.141   3.381 -0.2963  0.5160  0.1169
 3141TIP3   OH230913   0.243   0.754   4.784 -0.1363  0.1571 -0.0835
 3141TIP3    H130914   0.321   0.710   4.750 -0.1889  0.9606 -1.2996
 3141TIP3    H230915   0.257   0.757   4.879  0.9275 -0.4108 -0.2038
 3142TIP3   OH230916   1.741   6.117  15.961 -1.0509 -0.0291 -0.3847
 3142TIP3    H130917   1.820   6.067  15.981 -1.3875 -0.6138 -0.4805
 3142TIP3    H230918   1.685   6.055  15.914 -1.8926  0.1321  0.3754
 3143TIP3   OH230919   1.174   0.070  12.098 -0.0178 -0.2992 -0.1229
 3143TIP3    H130920   1.193  -0.022  12.116 -0.6950 -0.3315  0.4364
 3143TIP3    H230921   1.133   0.103  12.177 -0.3766  0.3214 -0.5544
 3144TIP3   OH230922   1.960   5.647  11.875 -0.3498 -0.1552 -0.3498
 3144TIP3    H130923   2.009   5.701  11.938  0.9648 -0.0139 -1.4210
 3144TIP3    H230924   1.927   5.574  11.926  0.6679 -0.0446  0.5104
 3145TIP3   OH230925   6.748   3.876  13.579 -0.0757  0.2582  0.1318
 3145TIP3    H130926   6.666   3.923  13.565 -0.8572 -1.2273 -0.5126
 3145TIP3    H230927   6.728   3.785  13.557  1.5317 -0.2911  0.7658
 3146TIP3   OH230928   6.262   5.105   5.007 -0.0463 -0.1833 -0.3086
 3146TIP3    H130929   6.171   5.129   4.988 -0.0916 -0.4070 -0.3821
 3146TIP3    H230930   6.291   5.060   4.928  0.4185  0.6921 -0.6405
 3147TIP3   OH230931   5.039   2.384  10.691 -0.3168 -0.1734  0.4286
 3147TIP3    H130932   5.001   2.300  10.664 -0.0757 -0.3712  0.7054
 3147TIP3    H230933   5.133   2.374  10.675 -0.4030  0.4387 -0.5858
 3148TIP3   OH230934   2.811   0.938  14.939 -0.2304 -0.2013 -0.6148
 3148TIP3    H130935   2.767   0.889  14.870 -0.4147 -0.7035 -0.1510
 3148TIP3    H230936   2.811   0.878  15.014  0.3003  0.1942 -0.2943
 3149TIP3   OH230937   3.654   6.471   0.347 -0.0926  0.5205 -0.0788
 3149TIP3    H130938   3.645   6.394   0.290 -1.6550  1.1463 -0.7306
 3149TIP3    H230939   3.574   6.521   0.332 -0.6498  0.6392  2.8368
 3150TIP3   OH230940   1.326   1.930   4.380 -0.4511 -0.1773  0.2220
 3150TIP3    H130941   1.298   2.021   4.388 -0.4837 -0.1796  0.1334
 3150TIP3    H230942   1.247   1.879   4.396 -0.7097 -0.1658 -0.9822
 3151TIP3   OH230943   2.082   0.274  12.418  0.5969 -0.5486 -0.4396
 3151TIP3    H130944   2.094   0.310  12.330 -1.9099  0.2137 -0.5524
 3151TIP3    H230945   2.043   0.187  12.403 -0.1053 -0.3013 -0.1151
 3152TIP3   OH230946   5.919   4.370  12.730  0.2961  0.2752 -0.3882
 3152TIP3    H130947   5.989   4.414  12.777  0.9422 -1.6126  0.5486
 3152TIP3    H230948   5.962   4.295  12.687 -1.0834 -0.8253  0.0714
 3153TIP3   OH230949   5.533   5.743  16.803 -0.1033 -0.0692 -0.1036
 3153TIP3    H130950   5.565   5.683  16.736 -0.8125 -1.5488  0.8321
 3153TIP3    H230951   5.441   5.756  16.781  0.4298  2.2147 -1.3612
 3154TIP3   OH230952   0.425   2.823  10.226 -0.1886 -0.3010 -0.8132
 3154TIP3    H130953   0.448   2.732  10.243  1.2363  0.5240  2.5380
 3154TIP3    H230954   0.333   2.830  10.253  0.6388 -0.1515  2.4454
 3155TIP3   OH230955   4.962   3.091   5.402 -0.8751  0.4759  0.5242
 3155TIP3    H130956   4.923   3.173   5.371 -0.7939  1.2929  2.4396
 3155TIP3    H230957   5.041   3.081   5.350 -1.6581  0.8128 -0.7728
 3156TIP3   OH230958   4.388   4.502  15.388  0.6690 -0.0677  0.2458
 3156TIP3    H130959   4.466   4.537  15.430  0.4498 -0.8396  1.3362
 3156TIP3    H230960   4.406   4.508  15.294  1.7222  0.4472  0.4685
 3157TIP3   OH230961   0.234   5.497  12.106 -0.1278  0.3685 -0.2196
 3157TIP3    H130962   0.319   5.454  12.103 -0.4312 -0.5154  1.9540
 3157TIP3    H230963   0.171   5.425  12.103 -0.6940  0.7728  1.3916
 3158TIP3   OH230964   5.545   1.124   4.157  0.2768  0.0821 -0.2409
 3158TIP3    H130965   5.568   1.137   4.065  0.1812 -1.3930 -0.4961
 3158TIP3    H230966   5.618   1.075   4.194 -0.3164 -0.5802  0.0954
 3159TIP3   OH230967   2.907   2.444  15.291  0.4223  0.6791  0.1574
 3159TIP3    H130968   2.956   2.444  15.209  0.5955  1.7946  0.2467
 3159TIP3    H230969   2.886   2.536  15.307 -1.1625  0.2934  0.4575
 3160TIP3   OH230970   6.162   0.053  14.889 -0.5860 -0.4706 -0.5448
 3160TIP3    H130971   6.110   0.083  14.964  0.6364  0.1336  0.0954
 3160TIP3    H230972   6.246   0.097  14.899 -0.1910 -0.8410 -1.9665
 3161TIP3   OH230973   0.509   4.635   2.426 -0.1195  0.7582 -0.5911
 3161TIP3    H130974   0.550   4.678   2.501 -0.6174 -0.9366  0.7372
 3161TIP3    H230975   0.423   4.675   2.420 -0.3225  0.4747  0.1923
 3162TIP3   OH230976   3.439   0.447  14.832 -0.0290  0.3560 -0.2752
 3162TIP3    H130977   3.357   0.495  14.846 -0.8086 -0.5611 -1.4192
 3162TIP3    H230978   3.488   0.458  14.913 -1.5277  0.4713  0.6615
 3163TIP3   OH230979   0.285   5.349   2.073 -0.6764  0.2697  0.2344
 3163TIP3    H130980   0.369   5.393   2.068 -0.1612 -0.7732 -0.8706
 3163TIP3    H230981   0.307   5.259   2.100 -1.0826 -0.7831 -2.5962
 3164TIP3   OH230982   3.593   5.627  17.069 -0.1145 -0.0392  0.0979
 3164TIP3    H130983   3.675   5.664  17.035  0.6179 -0.9663  0.7891
 3164TIP3    H230984   3.547   5.596  16.991  0.8581 -0.7902 -0.1999
 3165TIP3   OH230985   0.767   5.144  11.630  0.0200 -0.5970  0.5134
 3165TIP3    H130986   0.861   5.162  11.623  0.0680 -1.1610 -0.4644
 3165TIP3    H230987   0.757   5.056  11.593 -1.1961  0.3446 -1.5458
 3166TIP3   OH230988   0.032   2.682  16.032  0.2181 -0.3353  0.0518
 3166TIP3    H130989  -0.023   2.635  15.969 -0.5836  1.1751 -0.4418
 3166TIP3    H230990   0.088   2.738  15.978 -1.0527  1.5973  0.6246
 3167TIP3   OH230991   5.503   0.674   0.112  0.2808 -0.4350 -0.2233
 3167TIP3    H130992   5.566   0.622   0.063 -0.3079 -0.5848 -0.8377
 3167TIP3    H230993   5.466   0.613   0.176  0.9500 -0.2748  0.3276
 3168TIP3   OH230994   1.852   3.394  10.349 -0.3754 -0.0165  0.2501
 3168TIP3    H130995   1.849   3.489  10.364  0.3799  0.1063 -0.3643
 3168TIP3    H230996   1.943   3.375  10.328 -0.6715 -0.7602 -0.4184
 3169TIP3   OH230997   2.484   5.562   0.952 -0.3557 -0.1840  0.4688
 3169TIP3    H130998   2.541   5.638   0.938  0.4510 -1.0049 -1.0136
 3169TIP3    H230999   2.502   5.534   1.042 -0.1763  0.9897  0.8042
 3170TIP3   OH231000   1.088   2.668  11.148 -0.0027  0.0048 -0.2326
 3170TIP3    H131001   1.031   2.604  11.192  0.6114 -1.0127 -0.8687
 3170TIP3    H231002   1.103   2.630  11.061  2.6873 -0.4441  0.3442
 3171TIP3   OH231003   1.752   0.639   5.720 -0.3938  0.0856  0.3561
 3171TIP3    H131004   1.752   0.548   5.692  1.2111  0.0099  0.5136
 3171TIP3    H231005   1.673   0.647   5.774 -1.4732 -0.7375 -1.0137
 3172TIP3   OH231006   0.983   5.459  16.610  0.2924 -0.5044  0.1247
 3172TIP3    H131007   0.911   5.445  16.672  1.0525  0.6557  1.3241
 3172TIP3    H231008   1.018   5.371  16.594 -0.6059 -0.9416  0.4841
 3173TIP3   OH231009   0.966   4.870  13.399 -0.4910 -0.3539  0.6133
 3173TIP3    H131010   0.920   4.950  13.375 -1.1850 -0.8924  0.1065
 3173TIP3    H231011   0.899   4.802  13.395  0.2800 -1.1016  0.1755
 3174TIP3   OH231012   6.343   4.955   4.798  0.3899 -0.3806  0.2492
 3174TIP3    H131013   6.382   4.868   4.791 -2.5305 -1.6623 -1.9877
 3174TIP3    H231014   6.289   4.964   4.719 -1.0973  2.5946  1.4497
 3175TIP3   OH231015   4.948   5.609   2.525 -1.2036 -0.3801  0.3932
 3175TIP3    H131016   4.949   5.522   2.485  1.1289  0.5329 -1.8243
 3175TIP3    H231017   5.038   5.640   2.517 -2.3479  3.1327 -1.0393
 3176TIP3   OH231018   5.799   1.793   3.735 -0.6553 -0.0423  0.1332
 3176TIP3    H131019   5.830   1.805   3.825 -0.2304 -0.9729  0.1185
 3176TIP3    H231020   5.751   1.874   3.715  1.7593  1.4725  0.1379
 3177TIP3   OH231021   4.862   1.692  15.310 -0.1627 -0.2596  0.1199
 3177TIP3    H131022   4.866   1.768  15.369 -2.7002  0.9308 -1.0975
 3177TIP3    H231023   4.936   1.705  15.251 -0.3760  1.1467  0.1143
 3178TIP3   OH231024   6.482   0.196  14.326  0.1057  0.2115  0.9014
 3178TIP3    H131025   6.425   0.120  14.315 -0.5532  0.8644 -0.4468
 3178TIP3    H231026   6.433   0.268  14.287  1.1859  1.1171  1.1718
 3179TIP3   OH231027   3.436   2.074   4.734  0.4005  0.6725 -0.4587
 3179TIP3    H131028   3.461   2.132   4.807  1.6667 -0.5627  0.1213
 3179TIP3    H231029   3.517   2.060   4.685 -0.1253  0.2566 -1.2281
 3180TIP3   OH231030   6.787   0.822   6.388 -0.1484  0.0959 -0.3696
 3180TIP3    H131031   6.831   0.829   6.303 -1.3751  0.5922 -0.9873
 3180TIP3    H231032   6.720   0.890   6.386 -0.4170 -0.1131  0.8656
 3181TIP3   OH231033   1.175   4.828  16.666 -0.3016  0.0986  0.1578
 3181TIP3    H131034   1.096   4.856  16.711 -0.8021 -1.2659  0.1825
 3181TIP3    H231035   1.156   4.840  16.573 -1.0323 -1.3473  0.0926
 3182TIP3   OH231036   1.348   6.242   0.679 -0.1868  0.1737  0.3227
 3182TIP3    H131037   1.253   6.251   0.665  0.0038  1.6581 -0.1864
 3182TIP3    H231038   1.384   6.229   0.591  0.2051  0.9113  0.3715
 3183TIP3   OH231039   0.848   4.275   1.743 -0.4882 -0.1794 -0.5812
 3183TIP3    H131040   0.827   4.294   1.834 -0.5032 -1.2970 -0.3477
 3183TIP3    H231041   0.778   4.317   1.693 -1.6026 -1.2500  0.0352
 3184TIP3   OH231042   0.859   5.222   0.283 -0.0687 -0.3118  0.3648
 3184TIP3    H131043   0.873   5.311   0.251  0.3792 -0.9537 -1.3671
 3184TIP3    H231044   0.829   5.232   0.373 -1.7282  1.6445 -0.3522
 3185TIP3   OH231045   1.740   2.068   2.780  0.4733 -0.5062  0.1080
 3185TIP3    H131046   1.788   2.147   2.754  1.3390 -0.8397  0.6705
 3185TIP3    H231047   1.718   2.025   2.697  0.5618 -0.0097 -0.1781
 3186TIP3   OH231048   5.996   6.751  15.196 -0.3776  0.5425  0.1147
 3186TIP3    H131049   5.998   6.823  15.133 -0.0585 -0.2663 -0.8211
 3186TIP3    H231050   6.076   6.764  15.248  0.2016  0.3169 -0.6921
 3187TIP3   OH231051   5.897   4.609  14.077  0.6982  0.1490  0.3822
 3187TIP3    H131052   5.865   4.592  14.166 -1.2596  1.8619  0.0673
 3187TIP3    H231053   5.818   4.622  14.025  1.7975 -0.9674 -1.7029
 3188TIP3   OH231054   3.366   0.504  14.107  0.5050 -0.8946  0.1116
 3188TIP3    H131055   3.370   0.466  14.195 -1.4318 -1.4116  0.0176
 3188TIP3    H231056   3.373   0.429  14.048  0.9059 -0.6410 -0.1706
 3189TIP3   OH231057   2.195   3.349  11.705 -0.1582  0.1663  0.6861
 3189TIP3    H131058   2.175   3.392  11.788 -0.6326  0.3605  0.4778
 3189TIP3    H231059   2.143   3.269  11.706 -1.6564  1.0550 -0.1981
 3190TIP3   OH231060   0.534   2.686   2.723 -0.4127 -0.1920  0.2581
 3190TIP3    H131061   0.442   2.679   2.697 -1.0654 -1.1746  2.5757
 3190TIP3    H231062   0.575   2.605   2.692 -0.2303  0.3339 -0.9514
 3191TIP3   OH231063   1.610   0.305   0.595 -0.0489 -0.1139  0.0945
 3191TIP3    H131064   1.556   0.384   0.598 -0.9509 -0.7462  1.5257
 3191TIP3    H231065   1.547   0.233   0.586  0.7636 -0.7005 -1.3655
 3192TIP3   OH231066   5.075   4.254   3.685  0.2775  0.0917 -0.4740
 3192TIP3    H131067   5.095   4.345   3.708  0.5137  0.8916 -3.4362
 3192TIP3    H231068   5.012   4.225   3.751  2.0022  1.5513  1.9620
 3193TIP3   OH231069   3.394   2.951   1.245 -0.0916  0.6409  0.4207
 3193TIP3    H131070   3.455   3.007   1.198  0.7832  1.3583  2.2797
 3193TIP3    H231071   3.338   3.013   1.294  1.2067 -0.0052  2.9017
 3194TIP3   OH231072   1.374   0.007  13.747 -0.0164 -0.1086  0.3319
 3194TIP3    H131073   1.392  -0.069  13.803 -0.8831  0.3088  1.2280
 3194TIP3    H231074   1.283  -0.005  13.719 -0.3744  0.8815  0.9922
 3195TIP3   OH231075   2.826   6.333  16.696 -0.6529 -0.8323  0.3621
 3195TIP3    H131076   2.837   6.428  16.693 -1.5834 -0.6119  2.1525
 3195TIP3    H231077   2.808   6.315  16.789  0.0772 -2.8242  0.1522
 3196TIP3   OH231078   5.733   2.700   0.390  0.0676  0.4799  0.3986
 3196TIP3    H131079   5.681   2.711   0.469  0.4550 -0.4896  0.8096
 3196TIP3    H231080   5.692   2.757   0.325 -0.3922  1.1061  1.2293
 3197TIP3   OH231081   5.550   1.650  15.939 -0.4344  0.4901  0.0189
 3197TIP3    H131082   5.506   1.566  15.926 -1.8238  0.3938  3.9699
 3197TIP3    H231083   5.635   1.639  15.896  0.0844 -3.5774  1.5753
 3198TIP3   OH231084   5.299   3.932  13.680  0.3809 -0.1077 -0.0777
 3198TIP3    H131085   5.312   3.858  13.621  1.2244  1.9659 -2.6967
 3198TIP3    H231086   5.203   3.940  13.688  0.2639 -0.7404 -0.7375
 3199TIP3   OH231087   3.740   1.843  16.223  0.7338 -0.0894 -0.5596
 3199TIP3    H131088   3.720   1.892  16.142  0.0914 -0.8376 -0.8687
 3199TIP3    H231089   3.738   1.909  16.292 -0.9529  0.2090 -0.8539
 3200TIP3   OH231090   4.882   4.957   2.615 -0.4211  0.1175 -0.2297
 3200TIP3    H131091   4.850   4.880   2.663 -0.4098  0.8654  1.0205
 3200TIP3    H231092   4.944   4.921   2.551  0.3023 -0.8505  0.9676
 3201TIP3   OH231093   3.872   3.888  14.605  0.4445  0.3229  0.8736
 3201TIP3    H131094   3.908   3.824  14.666 -1.1706 -0.8677  0.6298
 3201TIP3    H231095   3.924   3.878  14.526  0.2442 -0.6383  0.8616
 3202TIP3   OH231096   0.241   4.685   6.328  0.0377  0.3638 -0.7554
 3202TIP3    H131097   0.214   4.612   6.272  0.1967  1.1143 -1.8374
 3202TIP3    H231098   0.329   4.662   6.356  0.1398  0.1978 -1.2019
 3203TIP3   OH231099   5.543   0.166  13.151  0.3826 -0.2758 -0.2251
 3203TIP3    H131100   5.478   0.100  13.129 -1.3256  0.8507  1.2215
 3203TIP3    H231101   5.611   0.155  13.085 -0.6566 -2.3324 -1.0290
 3204TIP3   OH231102   2.578   0.696   0.082 -0.3212 -0.2198 -0.1058
 3204TIP3    H131103   2.625   0.620   0.117 -0.4300 -0.1565  0.1796
 3204TIP3    H231104   2.635   0.729   0.012 -0.7427 -1.1589 -0.9048
 3205TIP3   OH231105   1.287   3.328   5.273 -0.3019 -0.2063 -0.0126
 3205TIP3    H131106   1.238   3.397   5.228  0.9225 -0.0116 -1.1202
 3205TIP3    H231107   1.373   3.367   5.290 -0.4229 -0.6177  1.6694
 3206TIP3   OH231108   0.703   1.184  13.445  0.1256  0.1190 -0.2493
 3206TIP3    H131109   0.726   1.117  13.380  1.9460 -0.4941  0.9674
 3206TIP3    H231110   0.770   1.251  13.436 -0.1687  0.5070  0.3549
 3207TIP3   OH231111   5.120   0.161   3.955  0.3897 -0.2253 -0.2094
 3207TIP3    H131112   5.182   0.181   4.024  0.3366 -0.2595 -0.1514
 3207TIP3    H231113   5.125   0.065   3.945  0.5241 -0.2030 -0.3733
 3208TIP3   OH231114   4.542   4.227   3.039 -0.2167  0.0238 -0.1607
 3208TIP3    H131115   4.485   4.173   3.093  0.9993  0.1522  1.3322
 3208TIP3    H231116   4.486   4.259   2.969 -1.9586  0.0995  1.2073
 3209TIP3   OH231117   4.973   6.162   0.994 -0.0155  0.2147  0.0306
 3209TIP3    H131118   5.048   6.136   1.047 -0.6844  1.0489  1.4303
 3209TIP3    H231119   5.010   6.179   0.907  1.1821 -0.6678  0.3443
 3210TIP3   OH231120   0.523   2.942  16.670 -0.1172 -0.1219  0.1151
 3210TIP3    H131121   0.480   2.982  16.745  0.5314  1.5470 -0.3518
 3210TIP3    H231122   0.455   2.887  16.631 -0.9762  0.2843  0.9768
 3211TIP3   OH231123   1.665   2.655   3.548  0.4440 -0.2715  0.1977
 3211TIP3    H131124   1.681   2.723   3.613  0.3518 -0.4290  0.3869
 3211TIP3    H231125   1.738   2.662   3.487  0.5007 -0.0865  0.2869
 3212TIP3   OH231126   3.805   5.071   2.526  0.4171 -0.2149 -0.3532
 3212TIP3    H131127   3.734   5.060   2.463  0.7011 -0.8243 -0.5741
 3212TIP3    H231128   3.805   4.990   2.577  1.4297 -0.5527 -0.8506
 3213TIP3   OH231129   3.610   0.958  13.496 -0.2699  0.6693 -0.0481
 3213TIP3    H131130   3.598   1.049  13.468  1.1428  0.5859 -0.9925
 3213TIP3    H231131   3.671   0.964  13.570 -0.2716  0.4929 -0.0333
 3214TIP3   OH231132   6.219   3.302  12.559 -0.1849  0.0075  0.2187
 3214TIP3    H131133   6.302   3.328  12.599 -0.2313  2.3445 -1.0310
 3214TIP3    H231134   6.232   3.316  12.466 -2.0917  0.8639  0.0309
 3215TIP3   OH231135   5.102   2.316   3.803  0.6478  0.4304  0.2652
 3215TIP3    H131136   5.194   2.291   3.790  0.8711  1.7550 -0.8808
 3215TIP3    H231137   5.052   2.242   3.768  1.2751  0.3550 -0.4950
 3216TIP3   OH231138   2.924   1.487  12.135 -1.0247  0.2347  0.0191
 3216TIP3    H131139   2.837   1.460  12.103 -1.8361  0.4603  1.9334
 3216TIP3    H231140   2.979   1.409  12.124 -1.1926  0.3453 -2.0265
 3217TIP3   OH231141   2.946   2.181  15.168 -0.7454  0.0461  0.3791
 3217TIP3    H131142   2.928   2.221  15.083 -1.3738 -0.0391  0.4665
 3217TIP3    H231143   2.930   2.088  15.155  3.0748 -0.6816 -0.5034
 3218TIP3   OH231144   3.471   1.834  13.611  1.0622 -0.2227 -0.4736
 3218TIP3    H131145   3.516   1.785  13.542  1.6660  0.4484 -0.5576
 3218TIP3    H231146   3.442   1.915  13.568 -0.0414 -0.5377 -0.3644
 3219TIP3   OH231147   4.527   5.653  13.792 -0.1181  0.4953  0.0664
 3219TIP3    H131148   4.481   5.589  13.737 -1.7369  1.3981  0.3136
 3219TIP3    H231149   4.565   5.600  13.863 -1.1392 -0.2515  0.0786
 3220TIP3   OH231150   6.478   0.077  13.302 -0.2332  0.2218 -0.0860
 3220TIP3    H131151   6.482   0.157  13.354 -1.4704 -0.1558  0.6464
 3220TIP3    H231152   6.568   0.046  13.298  0.0959  1.0549  0.5750
 3221TIP3   OH231153   0.030   3.358  13.630  0.3388  0.5106 -0.1819
 3221TIP3    H131154   0.112   3.404  13.610 -0.5943  1.6476 -1.5063
 3221TIP3    H231155   0.049   3.312  13.712  1.1809  3.6265  1.5154
 3222TIP3   OH231156   4.973   4.900  11.704 -0.2847 -0.2743 -0.1933
 3222TIP3    H131157   5.025   4.850  11.642  2.0176 -0.7204  1.9399
 3222TIP3    H231158   4.949   4.979  11.656  0.7802 -0.9066 -1.8727
 3223TIP3   OH231159   1.806   3.464  11.536  0.3961  0.6961 -0.5973
 3223TIP3    H131160   1.894   3.501  11.528  0.7608  0.0211  0.1785
 3223TIP3    H231161   1.786   3.430  11.448  1.2659  0.0920 -0.5723
 3224TIP3   OH231162   3.808   3.191   5.796  0.4788  0.2969  0.3329
 3224TIP3    H131163   3.772   3.138   5.725  0.4138  0.5744  0.1610
 3224TIP3    H231164   3.752   3.172   5.871  0.6207 -0.0914  0.3446
 3225TIP3   OH231165   5.117   6.810  10.381  0.0150  0.1592 -0.5621
 3225TIP3    H131166   5.167   6.890  10.399  3.3767 -1.1162 -2.9752
 3225TIP3    H231167   5.036   6.840  10.341  0.4472  2.3740  0.1221
 3226TIP3   OH231168   6.332   5.364   3.244  0.0868  1.1406 -0.1895
 3226TIP3    H131169   6.288   5.292   3.290 -0.5705  1.7139  0.1035
 3226TIP3    H231170   6.423   5.337   3.238 -0.2941 -0.0790 -0.7970
 3227TIP3   OH231171   3.837   6.261   5.212 -0.3555 -0.5726  0.4110
 3227TIP3    H131172   3.792   6.224   5.136  0.6105 -2.0292  0.5246
 3227TIP3    H231173   3.795   6.220   5.287 -1.8067  1.4054  0.7684
 3228TIP3   OH231174   5.942   5.310  12.391  0.1091  0.0382  0.2925
 3228TIP3    H131175   5.916   5.223  12.359  0.5319  0.7411 -2.0957
 3228TIP3    H231176   5.975   5.293  12.480 -0.7437 -2.0763  0.2773
 3229TIP3   OH231177   2.111   0.725  13.361 -0.2770 -0.5128 -0.8331
 3229TIP3    H131178   2.145   0.799  13.312 -2.2098  0.1406 -1.2793
 3229TIP3    H231179   2.018   0.746  13.375 -0.2368 -1.5464  1.4791
 3230TIP3   OH231180   6.585   5.821  14.827 -0.3679 -0.6265 -0.2940
 3230TIP3    H131181   6.639   5.896  14.854 -1.6358  0.4515 -0.6392
 3230TIP3    H231182   6.645   5.765  14.777  0.2153  1.0625 -1.5988
 3231TIP3   OH231183   1.439   4.491  14.417 -0.6205 -0.6267  0.0461
 3231TIP3    H131184   1.375   4.445  14.472 -0.4411 -1.3715 -0.3545
 3231TIP3    H231185   1.508   4.426  14.401  0.3117  0.1962  0.5824
 3232TIP3   OH231186   5.360   6.282  12.506  0.3986 -0.9590 -0.4981
 3232TIP3    H131187   5.331   6.290  12.416 -2.0469 -2.0455  0.1154
 3232TIP3    H231188   5.321   6.357  12.551 -0.3146 -1.6504  0.0691
 3233TIP3   OH231189   1.310   4.295   0.200 -0.2281 -0.3897  0.8553
 3233TIP3    H131190   1.311   4.200   0.191 -1.4181 -0.3070 -0.4403
 3233TIP3    H231191   1.379   4.326   0.141 -0.8204 -0.3880  0.1540
 3234TIP3   OH231192   4.455   3.342  13.043  0.3016  0.2188  0.2858
 3234TIP3    H131193   4.449   3.390  13.126  0.8412  0.8781 -0.0474
 3234TIP3    H231194   4.377   3.287  13.042  1.9489 -2.4660  2.8395
 3235TIP3   OH231195   2.078   1.300   2.474  0.3157  0.0393  0.2349
 3235TIP3    H131196   2.076   1.323   2.567 -0.5842  0.2482  0.1751
 3235TIP3    H231197   2.054   1.381   2.428  1.1272  0.0396 -0.2033
 3236TIP3   OH231198   4.465   1.226   6.435 -0.0619 -0.0196 -0.2492
 3236TIP3    H131199   4.542   1.272   6.468  0.5529  0.7681 -2.5655
 3236TIP3    H231200   4.405   1.297   6.409  0.8280 -0.3649 -3.7269
 3237TIP3   OH231201   3.383   2.806  11.667 -0.6183  0.1545 -0.0053
 3237TIP3    H131202   3.299   2.849  11.656 -0.4028  0.1513 -1.9734
 3237TIP3    H231203   3.444   2.876  11.688 -0.6872  0.4993 -0.9320
 3238TIP3   OH231204   5.894   1.141  14.484 -0.0132 -0.1217  0.4703
 3238TIP3    H131205   5.818   1.161  14.429 -0.5653 -2.0758  0.4532
 3238TIP3    H231206   5.856   1.110  14.567  0.6570 -2.8384 -0.1506
 3239TIP3   OH231207   3.928   5.936  15.889 -0.7166 -0.6968  0.4961
 3239TIP3    H131208   3.964   5.848  15.884 -0.1835 -0.4268 -0.7756
 3239TIP3    H231209   3.991   5.990  15.841 -1.3416  0.2724  0.7432
 3240TIP3   OH231210   4.948   1.430  11.897 -0.2162  0.1217 -0.0919
 3240TIP3    H131211   5.006   1.412  11.823 -1.9293 -3.5080 -0.7763
 3240TIP3    H231212   4.870   1.469  11.858 -0.3054  0.1004  0.0609
 3241TIP3   OH231213   6.527   4.589  13.234  1.1557  0.2520 -0.4804
 3241TIP3    H131214   6.458   4.546  13.285  0.0704  2.0723 -0.3424
 3241TIP3    H231215   6.609   4.554  13.269  0.3527 -0.5692  0.6190
 3242TIP3   OH231216   5.116   2.199  12.444  0.1562 -0.0715 -0.0226
 3242TIP3    H131217   5.107   2.221  12.351  1.0772  0.4250 -0.0058
 3242TIP3    H231218   5.033   2.224  12.483 -0.0013  0.3317 -0.6060
 3243TIP3   OH231219   4.093   3.887   2.544 -0.2801  0.4216  0.4758
 3243TIP3    H131220   4.170   3.899   2.600  1.4210 -2.4611 -1.0146
 3243TIP3    H231221   4.028   3.845   2.601  0.5470 -0.2745  0.9250
 3244TIP3   OH231222   4.328   2.129   1.083  0.0395  0.1389  0.1277
 3244TIP3    H131223   4.357   2.216   1.112 -1.3839  0.7627 -0.2383
 3244TIP3    H231224   4.306   2.141   0.991 -0.5046 -0.5232  0.1666
 3245TIP3   OH231225   6.249   3.394  13.472  0.1017  0.5452 -0.0957
 3245TIP3    H131226   6.234   3.348  13.554 -0.8664 -0.0801 -0.6049
 3245TIP3    H231227   6.278   3.482  13.499  0.7886  0.0384  0.8885
 3246TIP3   OH231228   3.508   2.118  15.331  0.7113  0.4033 -0.3644
 3246TIP3    H131229   3.593   2.118  15.374  1.7462  1.4305 -2.2398
 3246TIP3    H231230   3.528   2.091  15.241 -1.1652 -0.6248 -0.5100
 3247TIP3   OH231231   4.224   3.267  12.776  0.3532 -0.5910  0.1605
 3247TIP3    H131232   4.253   3.176  12.785  2.5538  0.0370 -0.0981
 3247TIP3    H231233   4.259   3.295  12.691 -2.0869 -0.0940 -0.7577
 3248TIP3   OH231234   1.098   5.354  14.603 -0.2756  0.2516  0.3270
 3248TIP3    H131235   1.126   5.381  14.516  1.7639  0.7430  1.0864
 3248TIP3    H231236   1.074   5.262  14.594  0.8010  0.0489 -0.5661
 3249TIP3   OH231237   1.842   6.340  12.388 -0.6366 -0.4394  0.4581
 3249TIP3    H131238   1.901   6.290  12.444  1.0536 -1.0513 -1.7481
 3249TIP3    H231239   1.805   6.275  12.328 -2.1255  0.2527  0.5746
 3250TIP3   OH231240   4.055   2.090  15.507 -0.4963 -0.4075 -0.0145
 3250TIP3    H131241   4.094   2.002  15.511 -1.2774 -0.7140  2.0629
 3250TIP3    H231242   3.975   2.078  15.455 -0.5804 -0.9125  0.2260
 3251TIP3   OH231243   4.509   5.840  14.394  0.4271 -0.1608  0.0551
 3251TIP3    H131244   4.580   5.905  14.400  0.4346 -0.0311 -1.1701
 3251TIP3    H231245   4.543   5.763  14.440  2.2066 -0.7910 -2.1397
 3252TIP3   OH231246   5.382   4.457   4.977  0.1592 -0.1604  0.3306
 3252TIP3    H131247   5.429   4.383   4.940 -1.2083 -0.7231 -0.3661
 3252TIP3    H231248   5.347   4.504   4.902 -1.5517 -0.5764  0.7987
 3253TIP3   OH231249   3.537   1.687  10.900 -0.1486 -0.1063  0.1682
 3253TIP3    H131250   3.592   1.673  10.823  0.5042 -2.3692  0.9581
 3253TIP3    H231251   3.447   1.686  10.867  0.1627  0.3567 -0.7228
 3254TIP3   OH231252   6.548   1.565   2.632 -0.0463  0.4883 -0.1503
 3254TIP3    H131253   6.500   1.639   2.596 -0.8618  0.5003  0.9360
 3254TIP3    H231254   6.528   1.566   2.725  3.8704  1.8926  0.8784
 3255TIP3   OH231255   6.540   3.983  15.877 -0.2031 -0.2793 -0.1269
 3255TIP3    H131256   6.570   3.894  15.857 -1.7307 -0.5677 -1.3704
 3255TIP3    H231257   6.541   4.028  15.792  0.3034  0.8276  0.4448
 3256TIP3   OH231258   3.757   3.338   1.173 -0.0184 -0.0495  0.2507
 3256TIP3    H131259   3.691   3.382   1.120  0.1026 -0.4159 -0.2166
 3256TIP3    H231260   3.709   3.306   1.249 -0.6253 -1.2538 -0.5989
 3257TIP3   OH231261   3.095   5.457   5.702 -0.7097  0.0944  0.2463
 3257TIP3    H131262   3.100   5.549   5.729  0.8681  0.0516  0.2000
 3257TIP3    H231263   3.183   5.423   5.717 -0.5413 -0.7269 -2.1240
 3258TIP3   OH231264   3.573   1.515  16.650 -0.2837 -0.1963  0.2600
 3258TIP3    H131265   3.489   1.553  16.675 -0.5535  1.1001 -2.2878
 3258TIP3    H231266   3.636   1.585  16.665  0.0276 -0.4654  0.2221
 3259TIP3   OH231267   6.806   5.164  12.324  0.6110  0.6954  0.0464
 3259TIP3    H131268   6.824   5.174  12.231 -0.2756 -0.8618 -0.3338
 3259TIP3    H231269   6.725   5.113  12.327  0.8122  0.4177  1.6700
 3260TIP3   OH231270   1.629   5.810   5.799  0.2779  0.0532 -0.0510
 3260TIP3    H131271   1.547   5.768   5.773  0.8183 -0.3471 -1.1749
 3260TIP3    H231272   1.694   5.740   5.799  0.7278  0.4593  0.3304
 3261TIP3   OH231273   6.716   4.902  11.261  0.0573 -0.3796  0.7790
 3261TIP3    H131274   6.685   4.819  11.297 -1.7789 -0.2848 -0.4340
 3261TIP3    H231275   6.669   4.969  11.311 -0.3674 -0.1702  0.1168
 3262TIP3   OH231276   3.424   2.587  15.616 -0.1884 -0.5306 -0.6432
 3262TIP3    H131277   3.404   2.561  15.526  0.8247 -2.2180 -0.4229
 3262TIP3    H231278   3.451   2.506  15.659 -2.3199 -0.1269  1.6970
 3263TIP3   OH231279   3.306   5.016   1.027  0.0010  0.0356  0.2346
 3263TIP3    H131280   3.246   5.071   0.976  0.1571 -0.5995 -0.6680
 3263TIP3    H231281   3.251   4.977   1.094 -0.7965 -1.1369 -1.0503
 3264TIP3   OH231282   1.385   6.767   5.803 -0.1524 -0.5985  0.5693
 3264TIP3    H131283   1.419   6.701   5.743 -1.4480 -2.1973  1.5407
 3264TIP3    H231284   1.298   6.788   5.768  0.4605  1.0805 -0.0629
 3265TIP3   OH231285   0.786   1.308   2.558 -0.0907 -0.2269 -0.1599
 3265TIP3    H131286   0.709   1.330   2.506 -0.1754 -1.5325 -0.6278
 3265TIP3    H231287   0.797   1.214   2.545 -0.1028 -0.6012  2.1882
 3266TIP3   OH231288   5.098   1.188   0.311 -0.1574  0.4226  0.2540
 3266TIP3    H131289   5.051   1.217   0.389  0.0768 -1.0616  0.9877
 3266TIP3    H231290   5.032   1.187   0.242 -0.4476  1.4240  0.4991
 3267TIP3   OH231291   6.757   3.915   1.952 -0.1910  0.0762 -0.2593
 3267TIP3    H131292   6.774   3.987   2.013 -0.2104  0.3739 -0.5929
 3267TIP3    H231293   6.683   3.946   1.899 -1.0551 -0.7414  0.4439
 3268TIP3   OH231294   2.667   4.226  15.042  0.6865  0.0248 -0.0337
 3268TIP3    H131295   2.743   4.283  15.055 -0.7252  1.8865  0.6010
 3268TIP3    H231296   2.687   4.178  14.961  1.8128  1.7314 -0.8432
 3269TIP3   OH231297   5.778   4.718  16.854  0.3217 -0.0148  0.3018
 3269TIP3    H131298   5.867   4.686  16.838 -0.2971 -1.4000 -0.6285
 3269TIP3    H231299   5.758   4.689  16.943  0.3171 -0.9133  0.0165
 3270TIP3   OH231300   5.532   5.603   2.430  0.4339 -0.9791 -0.1380
 3270TIP3    H131301   5.479   5.680   2.412 -0.1546 -1.0936  1.0158
 3270TIP3    H231302   5.621   5.637   2.443  0.8104 -0.8467 -2.6152
 3271TIP3   OH231303   3.811   1.183  16.353  0.3062 -0.3711 -0.2064
 3271TIP3    H131304   3.886   1.238  16.330 -0.0590 -0.6616 -2.2392
 3271TIP3    H231305   3.831   1.151  16.441  1.3016  1.6646  0.3675
 3272TIP3   OH231306   0.572   5.474   5.087  0.4974 -0.3962 -0.4736
 3272TIP3    H131307   0.547   5.557   5.045 -0.3718 -1.4108 -2.0862
 3272TIP3    H231308   0.637   5.436   5.028  1.1930 -0.6945  0.4635
 3273TIP3   OH231309   3.385   6.621  16.696  0.0853  0.1175  0.3728
 3273TIP3    H131310   3.295   6.603  16.670  0.0520  0.2399  0.4046
 3273TIP3    H231311   3.384   6.711  16.728  0.7145  1.0906 -2.1131
 3274TIP3   OH231312   5.160   5.325  11.099  0.6394 -0.1083  0.1825
 3274TIP3    H131313   5.068   5.334  11.076 -0.1759 -0.4441  2.9555
 3274TIP3    H231314   5.181   5.233  11.084  0.5020 -0.0593 -0.3213
 3275TIP3   OH231315   2.903   2.816   2.051 -0.0968  0.3122  0.1543
 3275TIP3    H131316   2.921   2.910   2.044  0.6224  0.1147 -0.7801
 3275TIP3    H231317   2.810   2.811   2.073 -0.4243  1.2183 -0.9264
 3276TIP3   OH231318   5.269   1.846   1.297  0.3025 -0.4726 -0.1360
 3276TIP3    H131319   5.237   1.826   1.209 -1.2129 -0.9657  0.4946
 3276TIP3    H231320   5.345   1.902   1.282 -1.0206  1.0299 -1.7292
 3277TIP3   OH231321   4.552   0.492  13.879  0.1645 -0.2916 -0.3351
 3277TIP3    H131322   4.462   0.498  13.910  0.1138  2.1565 -0.7635
 3277TIP3    H231323   4.604   0.530  13.950  0.9634 -2.2082  0.1537
 3278TIP3   OH231324   4.783   4.535   3.618  0.1876 -0.1396  0.3996
 3278TIP3    H131325   4.765   4.507   3.528  0.1825 -1.1591  0.7068
 3278TIP3    H231326   4.875   4.564   3.616 -0.8761  3.7732 -0.8470
 3279TIP3   OH231327   1.058   2.404   4.224  0.3138 -0.3479 -0.0553
 3279TIP3    H131328   1.112   2.456   4.283  0.9195  1.2540 -1.9070
 3279TIP3    H231329   0.969   2.433   4.240  0.7578  2.8245 -2.2759
 3280TIP3   OH231330   2.464   3.415   3.316  0.0927  0.8218 -0.2761
 3280TIP3    H131331   2.545   3.405   3.365 -1.6073 -0.6568  2.4512
 3280TIP3    H231332   2.456   3.335   3.264 -0.0131  0.6157  0.0604
 3281TIP3   OH231333   4.677   6.756   3.360  0.2032 -0.3237  0.0576
 3281TIP3    H131334   4.681   6.850   3.344  0.7340 -0.4785 -0.7941
 3281TIP3    H231335   4.616   6.746   3.433  0.7912  0.7408  0.7181
 3282TIP3   OH231336   2.029   3.557   2.452  0.0017 -0.0828 -0.2082
 3282TIP3    H131337   2.018   3.648   2.482 -1.6906 -0.1914 -0.4132
 3282TIP3    H231338   2.115   3.556   2.411 -0.0832  1.5203 -0.4992
 3283TIP3   OH231339   1.872   4.587   2.710  0.2903  0.3287  0.1824
 3283TIP3    H131340   1.877   4.497   2.742 -1.6937  0.6744  1.6703
 3283TIP3    H231341   1.922   4.637   2.775 -1.2438  0.6568  1.1549
 3284TIP3   OH231342   4.910   5.066   3.105  0.4734  0.1484 -0.0504
 3284TIP3    H131343   4.946   5.036   3.022  2.3789 -1.2204  1.1705
 3284TIP3    H231344   4.864   4.990   3.141  0.8136  0.2855  0.7143
 3285TIP3   OH231345   2.070   4.932  10.784  0.4686  0.4458  0.4020
 3285TIP3    H131346   2.154   4.959  10.749  0.1923 -0.5577 -1.1239
 3285TIP3    H231347   2.059   4.842  10.753 -1.0862  0.4939  0.7294
 3286TIP3   OH231348   1.631   5.444  13.217 -0.1057  0.2428 -0.5943
 3286TIP3    H131349   1.645   5.529  13.175 -1.1409  0.9558  0.4492
 3286TIP3    H231350   1.717   5.420  13.252  0.2721  0.6765 -1.2090
 3287TIP3   OH231351   1.014   6.721   1.916 -0.1697  0.7077  0.0017
 3287TIP3    H131352   0.996   6.764   1.999 -1.9092 -1.2272  0.7106
 3287TIP3    H231353   0.965   6.639   1.920  0.9626 -0.1749 -2.3007
 3288TIP3   OH231354   0.490   6.567  12.006  0.3589 -0.0353 -0.2101
 3288TIP3    H131355   0.406   6.531  11.978  0.9578 -1.5271 -0.1512
 3288TIP3    H231356   0.476   6.662  12.007 -0.4309 -0.0304 -3.1231
 3289TIP3   OH231357   2.026   6.557   4.257 -0.1486 -0.1597  0.2516
 3289TIP3    H131358   2.059   6.521   4.339 -0.0691  0.9981  0.7431
 3289TIP3    H231359   2.073   6.640   4.246 -1.9576  0.9318  0.3307
 3290TIP3   OH231360   5.893   4.935   5.058 -0.0611 -0.2326  0.2759
 3290TIP3    H131361   5.970   4.878   5.051 -0.8883 -1.3216 -0.2721
 3290TIP3    H231362   5.921   5.006   5.117  1.4862 -0.3681 -0.2528
 3291TIP3   OH231363   2.051   3.295  16.152 -0.2702  0.1427  0.1431
 3291TIP3    H131364   1.963   3.319  16.126 -1.5376 -3.0808  0.9620
 3291TIP3    H231365   2.053   3.309  16.247  0.5802  1.4272 -0.0442
 3292TIP3   OH231366   0.754   1.323   4.840  0.2512  0.3993  0.1405
 3292TIP3    H131367   0.724   1.359   4.924 -0.3711 -1.9971  1.0470
 3292TIP3    H231368   0.689   1.256   4.818  0.9194  0.3206 -1.7962
 3293TIP3   OH231369   3.840   2.581  12.296 -0.0144  0.1768  0.2330
 3293TIP3    H131370   3.774   2.642  12.330 -0.2802  0.7152 -1.1827
 3293TIP3    H231371   3.790   2.516  12.247  0.3573 -0.6392  0.9005
 3294TIP3   OH231372   4.370   0.988  16.543  0.3388 -0.8198 -0.2444
 3294TIP3    H131373   4.443   1.046  16.566  0.9551 -1.3417 -0.8573
 3294TIP3    H231374   4.332   1.027  16.464 -0.8917  0.1786  0.7804
 3295TIP3   OH231375   4.301   5.285  15.735  0.3649  0.1689 -0.2157
 3295TIP3    H131376   4.316   5.373  15.700  2.0516  0.4481  1.0153
 3295TIP3    H231377   4.293   5.299  15.830  1.9988 -1.0959  0.1535
 3296TIP3   OH231378   3.365   5.514   4.928  0.7378  0.0559 -0.6586
 3296TIP3    H131379   3.441   5.548   4.975  0.2316  0.4866 -0.1416
 3296TIP3    H231380   3.398   5.437   4.882  1.6980  0.7387 -1.1492
 3297TIP3   OH231381   1.179   1.030  16.056 -0.1899 -0.2187 -0.0099
 3297TIP3    H131382   1.143   1.119  16.053 -1.4770 -0.7274 -0.6835
 3297TIP3    H231383   1.215   1.021  16.144 -1.8112  0.3280  0.7513
 3298TIP3   OH231384   5.088   3.460   0.908 -0.3750  0.1669  0.0885
 3298TIP3    H131385   5.163   3.519   0.909  0.8259 -1.3031  0.3965
 3298TIP3    H231386   5.013   3.515   0.930  0.9085  1.2803  1.8797
 3299TIP3   OH231387   5.915   1.736  11.311  0.5242  0.1104  0.0946
 3299TIP3    H131388   5.860   1.664  11.279  0.8443  0.0324 -0.2859
 3299TIP3    H231389   5.893   1.743  11.404  0.2667 -0.2779  0.0663
 3300TIP3   OH231390   4.788   2.818  11.896 -0.4837  0.3342  0.9196
 3300TIP3    H131391   4.858   2.763  11.931  1.6938  1.7442 -0.9128
 3300TIP3    H231392   4.814   2.907  11.918 -1.2958  0.9505 -0.4913
 3301TIP3   OH231393   3.389   4.604  11.007 -0.0794  0.2771  0.0528
 3301TIP3    H131394   3.451   4.542  10.968 -0.1154 -1.6021  2.7498
 3301TIP3    H231395   3.303   4.575  10.976 -0.0044 -0.3910  0.4560
 3302TIP3   OH231396   5.989   1.256  16.486 -0.0318 -0.5500 -0.0349
 3302TIP3    H131397   5.964   1.178  16.535 -1.2593 -0.0418  0.1972
 3302TIP3    H231398   5.952   1.328  16.536 -1.9940 -0.0534 -2.0484
 3303TIP3   OH231399   5.713   1.183  13.459  0.2307 -0.2812  0.2867
 3303TIP3    H131400   5.690   1.243  13.529  0.4309 -0.1888  0.2757
 3303TIP3    H231401   5.673   1.220  13.381 -1.1272 -1.0948  0.5702
 3304TIP3   OH231402   5.150   5.365  15.222 -0.4970  0.5241  0.3961
 3304TIP3    H131403   5.173   5.328  15.136 -1.6118  0.4167  0.1227
 3304TIP3    H231404   5.127   5.456  15.204  1.0160  1.0193  0.8758
 3305TIP3   OH231405   5.229   1.169  15.416  0.4084  0.1299 -0.0830
 3305TIP3    H131406   5.269   1.083  15.417  1.3597  0.4926  2.9482
 3305TIP3    H231407   5.147   1.158  15.464  1.4249  1.1989  2.0139
 3306TIP3   OH231408   6.003   1.165  14.833 -0.0891 -0.4193  0.3272
 3306TIP3    H131409   5.968   1.100  14.894  0.0828  0.2490  1.1562
 3306TIP3    H231410   6.089   1.130  14.808 -0.1802 -0.7193  0.4236
 3307TIP3   OH231411   6.404   5.722  11.106 -0.4658  0.4464  0.2565
 3307TIP3    H131412   6.398   5.744  11.199  0.5529  1.1503  0.1728
 3307TIP3    H231413   6.484   5.670  11.099 -1.4083 -1.0627  0.0090
 3308TIP3   OH231414   0.992   4.206  16.471 -0.2264  0.4433 -0.1194
 3308TIP3    H131415   1.033   4.280  16.425  0.5051 -0.4093 -0.8902
 3308TIP3    H231416   0.958   4.244  16.552 -0.8341  1.8470 -0.9711
 3309TIP3   OH231417   0.442   1.565   5.289  0.5283 -0.1169  0.0154
 3309TIP3    H131418   0.478   1.654   5.294 -1.1301  0.5344  1.0552
 3309TIP3    H231419   0.347   1.577   5.287  0.2885 -1.8241 -1.4249
 3310TIP3   OH231420   6.360   0.055   4.650  0.3657 -0.0088 -0.1191
 3310TIP3    H131421   6.389  -0.036   4.649  0.9165  0.1012 -2.6484
 3310TIP3    H231422   6.411   0.096   4.720 -0.8435 -1.8443  1.9688
 3311TIP3   OH231423   4.817   3.234  12.588 -0.8484  0.2718  0.1029
 3311TIP3    H131424   4.789   3.317  12.625 -0.8503  0.1828  0.3015
 3311TIP3    H231425   4.761   3.222  12.511  1.4184  2.1431 -2.0271
 3312TIP3   OH231426   4.600   3.912   1.832 -0.3262  0.2181 -0.4306
 3312TIP3    H131427   4.514   3.950   1.818  0.1507  2.0095  1.0557
 3312TIP3    H231428   4.651   3.982   1.872  0.6677 -1.9040  2.4146
 3313TIP3   OH231429   1.691   6.276   5.283 -0.0742  0.0405 -0.4702
 3313TIP3    H131430   1.638   6.318   5.215  1.0067 -0.0874 -1.4244
 3313TIP3    H231431   1.707   6.188   5.250  0.4398 -0.0364 -0.0237
 3314TIP3   OH231432   5.878   1.054   4.482 -0.5445  0.1135  0.0946
 3314TIP3    H131433   5.784   1.047   4.465 -0.5404  1.7351 -0.7867
 3314TIP3    H231434   5.888   1.023   4.572 -1.6764 -1.5293 -0.2975
 3315TIP3   OH231435   2.731   6.319  16.291  0.5442 -0.4980  0.1113
 3315TIP3    H131436   2.760   6.284  16.375 -1.7782 -1.7217  0.4812
 3315TIP3    H231437   2.791   6.280  16.227  1.8298 -0.1899  1.0735
 3316TIP3   OH231438   4.176   0.504   2.784  0.1674  0.3433  0.2458
 3316TIP3    H131439   4.187   0.452   2.864  0.0275 -1.0222 -0.5976
 3316TIP3    H231440   4.234   0.579   2.797 -0.0752  0.3138  1.7541
 3317TIP3   OH231441   0.615   4.890  14.110 -0.0153  0.2696  0.1259
 3317TIP3    H131442   0.625   4.854  14.198 -2.1962 -0.5810  0.0823
 3317TIP3    H231443   0.608   4.985  14.124  0.2751  0.1975  0.8048
 3318TIP3   OH231444   2.165   4.499  13.918  0.2539  0.4942 -0.2455
 3318TIP3    H131445   2.200   4.550  13.845  0.3470  0.6951 -0.0633
 3318TIP3    H231446   2.219   4.420  13.921 -1.7216 -1.0734 -2.3840
 3319TIP3   OH231447   0.095   1.417  11.105  1.0157  0.1829  0.2238
 3319TIP3    H131448   0.154   1.470  11.052  0.6425  0.6964  0.3136
 3319TIP3    H231449   0.128   1.328  11.096  0.9527  0.2586 -0.8782
 3320TIP3   OH231450   2.853   2.535  13.216  0.2340  0.4518 -0.9007
 3320TIP3    H131451   2.767   2.511  13.183 -0.2741  0.1528  0.5679
 3320TIP3    H231452   2.854   2.631  13.214  0.5236  0.4419 -2.4677
 3321TIP3   OH231453   2.721   2.510   2.076 -0.2044  0.2725  0.0223
 3321TIP3    H131454   2.792   2.539   2.018 -0.3246  0.7047  0.0823
 3321TIP3    H231455   2.696   2.424   2.043  0.1947  0.2191 -0.1413
 3322TIP3   OH231456   6.192   2.559   1.843 -0.3551  0.0626  0.0422
 3322TIP3    H131457   6.164   2.639   1.799  0.4221  0.0232 -0.5242
 3322TIP3    H231458   6.288   2.561   1.838 -0.2908 -0.3892  0.9348
 3323TIP3   OH231459   6.605   1.007  13.108 -0.4353  0.2497  0.1206
 3323TIP3    H131460   6.682   1.061  13.088 -0.7743  0.8057  0.2895
 3323TIP3    H231461   6.544   1.027  13.037 -0.2412 -0.5632 -0.2803
 3324TIP3   OH231462   4.982   2.307   0.148 -0.4225 -0.3479 -0.1629
 3324TIP3    H131463   4.908   2.254   0.116  0.0148 -1.2232  0.2419
 3324TIP3    H231464   5.051   2.293   0.084 -1.0509  1.7062 -1.4079
 3325TIP3   OH231465   6.247   4.276  14.245 -0.5816  0.0087 -0.1587
 3325TIP3    H131466   6.309   4.203  14.243 -1.1161 -0.7309  3.5074
 3325TIP3    H231467   6.303   4.354  14.249  0.1618 -0.5460  1.0054
 3326TIP3   OH231468   1.719   6.668  17.162  0.3602  0.1980  0.3919
 3326TIP3    H131469   1.742   6.584  17.123  3.0942  0.5750  0.9472
 3326TIP3    H231470   1.786   6.728  17.129 -2.0089  2.4498 -0.7100
 3327TIP3   OH231471   4.915   4.768  16.077  0.2480  0.5450 -0.7496
 3327TIP3    H131472   4.842   4.818  16.042  0.9079  2.4941  0.4981
 3327TIP3    H231473   4.946   4.715  16.003 -2.3367 -0.3106 -1.3083
 3328TIP3   OH231474   0.976   6.472  15.169  0.5491  0.4695  0.5558
 3328TIP3    H131475   1.070   6.466  15.185  0.4261 -0.0059  1.1350
 3328TIP3    H231476   0.939   6.392  15.208 -0.0946  0.6486  0.3379
 3329TIP3   OH231477   3.743   2.602   4.333  0.2415  0.2838 -0.2234
 3329TIP3    H131478   3.825   2.575   4.376  0.1603  1.4926  0.7740
 3329TIP3    H231479   3.683   2.621   4.405 -1.1220 -1.0919 -0.9510
 3330TIP3   OH231480   1.564   2.681  13.813 -0.3417 -0.6831 -0.9037
 3330TIP3    H131481   1.518   2.648  13.891  1.2541 -0.6148  0.1239
 3330TIP3    H231482   1.655   2.657  13.828  0.0113 -0.6241 -2.7704
 3331TIP3   OH231483   3.006   6.826  13.795 -0.0484 -0.2136 -0.7259
 3331TIP3    H131484   2.960   6.785  13.722  3.1819  0.3589 -3.3226
 3331TIP3    H231485   3.030   6.913  13.762  0.1937  0.6860  1.6344
 3332TIP3   OH231486   1.650   4.658   1.825 -0.2128 -0.1924 -0.4603
 3332TIP3    H131487   1.605   4.725   1.876 -0.6638  1.1148 -2.4918
 3332TIP3    H231488   1.580   4.601   1.794 -0.0122 -0.5781 -0.2113
 3333TIP3   OH231489   5.195   3.446   0.424  0.2105  0.1429 -0.3541
 3333TIP3    H131490   5.229   3.535   0.416 -1.7698  1.0023  0.2110
 3333TIP3    H231491   5.165   3.423   0.336  0.9968 -0.1115 -0.5662
 3334TIP3   OH231492   4.024   0.045  15.998  0.4056 -0.0414  0.0749
 3334TIP3    H131493   4.041   0.125  15.948  1.4846 -0.2607  0.0830
 3334TIP3    H231494   3.969  -0.007  15.939 -2.1158  1.5253  0.8634
 3335TIP3   OH231495   6.419   3.554  16.982  0.1316  0.1182 -0.1117
 3335TIP3    H131496   6.411   3.484  17.046 -1.2384  0.9987  0.7212
 3335TIP3    H231497   6.461   3.626  17.029  1.7265 -0.1512 -1.0162
 3336TIP3   OH231498   4.024   1.293   0.469 -0.1060  0.3792 -0.5119
 3336TIP3    H131499   3.988   1.261   0.552  0.4586  1.5921  0.2271
 3336TIP3    H231500   4.109   1.249   0.461 -0.5278 -0.3869 -0.8871
 3337TIP3   OH231501   1.747   6.541  16.424  0.4750  0.4058  0.7540
 3337TIP3    H131502   1.685   6.468  16.425  1.3857 -0.3734  1.0475
 3337TIP3    H231503   1.694   6.617  16.450 -1.1102  0.4243 -2.1553
 3338TIP3   OH231504   4.896   0.517   6.680 -0.4655 -0.2811 -0.0337
 3338TIP3    H131505   4.922   0.568   6.603 -0.7847 -1.5360 -1.0006
 3338TIP3    H231506   4.819   0.468   6.652 -2.3286  1.3191  1.9617
 3339TIP3   OH231507   5.794   4.595   1.774 -0.1693  0.1783 -0.3239
 3339TIP3    H131508   5.732   4.668   1.769  1.2077  1.5592  1.4694
 3339TIP3    H231509   5.786   4.563   1.864  2.1629  0.8382  0.1744
 3340TIP3   OH231510   1.490   4.077  16.446 -0.0881  0.3256 -0.2063
 3340TIP3    H131511   1.467   3.986  16.427 -0.0394  0.3916 -0.5888
 3340TIP3    H231512   1.422   4.106  16.507 -0.1973  0.0849 -0.2093
 3341TIP3   OH231513   1.251   5.446   4.630 -0.0400 -0.1396  0.4557
 3341TIP3    H131514   1.219   5.405   4.549 -1.8528  2.0194 -0.0065
 3341TIP3    H231515   1.295   5.525   4.601 -1.6322  1.2252  1.5608
 3342TIP3   OH231516   2.246   3.914   0.951 -0.2492 -0.9293 -0.9852
 3342TIP3    H131517   2.334   3.943   0.929 -1.1106  2.0133 -0.9761
 3342TIP3    H231518   2.196   3.923   0.869 -0.8939 -0.9878 -0.6086
 3343TIP3   OH231519   6.125   5.291  16.119  0.4024 -0.0186  0.4585
 3343TIP3    H131520   6.162   5.269  16.033 -0.5483  0.3709 -0.0729
 3343TIP3    H231521   6.039   5.247  16.120  0.2752  0.2290  1.0860
 3344TIP3   OH231522   5.040   0.426  13.510  0.3636 -0.4142 -0.1572
 3344TIP3    H131523   5.122   0.434  13.462  0.3480  1.9666  0.0965
 3344TIP3    H231524   4.980   0.484  13.464 -0.5406 -0.4405  0.9428
 3345TIP3   OH231525   2.778   1.593  15.242 -0.0080  0.1144  0.5640
 3345TIP3    H131526   2.738   1.507  15.239 -0.3468  0.2747  0.4535
 3345TIP3    H231527   2.704   1.654  15.242  0.2380  0.4252 -0.1769
 3346TIP3   OH231528   0.544   0.236  11.788  0.8713  0.3055  0.3040
 3346TIP3    H131529   0.596   0.163  11.753  1.4651  0.6168  0.5135
 3346TIP3    H231530   0.544   0.301  11.717 -0.2674 -0.1759 -0.1621
 3347TIP3   OH231531   0.154   4.403   3.455 -0.3995 -0.6047  0.0471
 3347TIP3    H131532   0.167   4.319   3.500  1.0583 -0.1198  0.5897
 3347TIP3    H231533   0.143   4.379   3.363 -0.1525 -1.4003  0.2177
 3348TIP3   OH231534   3.823   2.886   5.306 -0.0357 -0.6078 -0.0691
 3348TIP3    H131535   3.800   2.911   5.216 -1.6140 -1.3542  0.0949
 3348TIP3    H231536   3.776   2.948   5.361 -1.7343 -2.1437  0.2802
 3349TIP3   OH231537   6.659   1.941  16.416  0.2927  0.0174 -0.2786
 3349TIP3    H131538   6.728   2.008  16.419 -0.9764  1.4089 -0.6395
 3349TIP3    H231539   6.581   1.986  16.449 -1.0601 -0.7047 -2.2807
 3350TIP3   OH231540   6.698   0.631   5.702 -0.3472 -0.1384  0.0189
 3350TIP3    H131541   6.749   0.665   5.776  2.4303  0.5934 -2.0938
 3350TIP3    H231542   6.763   0.599   5.640 -2.3793  1.4650 -3.1922
 3351TIP3   OH231543   2.914   3.243  14.145  0.1617 -0.3036  0.0851
 3351TIP3    H131544   2.956   3.288  14.218 -1.5511  1.6464 -0.0363
 3351TIP3    H231545   2.878   3.163  14.183  1.5613 -0.6454  0.7594
 3352TIP3   OH231546   2.255   4.414   2.549  0.0476  0.2112  0.3932
 3352TIP3    H131547   2.305   4.368   2.617 -0.0097  1.0701  1.0301
 3352TIP3    H231548   2.316   4.480   2.516  0.2587 -0.5452 -0.7904
 3353TIP3   OH231549   4.658   5.930   1.135  0.1887 -0.2278  0.0497
 3353TIP3    H131550   4.745   5.905   1.166 -0.3760  0.5051  2.5031
 3353TIP3    H231551   4.600   5.865   1.173 -0.4423 -0.0182 -0.5542
 3354TIP3   OH231552   5.112   1.959   1.820  0.0548  0.6114 -0.1321
 3354TIP3    H131553   5.118   2.020   1.746 -0.5830  1.2762  0.3491
 3354TIP3    H231554   5.053   1.890   1.790  0.1803  0.6236 -0.4109
 3355TIP3   OH231555   2.605   3.652   1.314 -0.4497 -0.0227 -0.1435
 3355TIP3    H131556   2.700   3.649   1.321 -0.4570  1.5697  1.2094
 3355TIP3    H231557   2.576   3.695   1.394 -2.2623  0.2067 -0.8691
 3356TIP3   OH231558   3.146   6.819   5.414 -0.1332 -0.0121 -0.0458
 3356TIP3    H131559   3.207   6.847   5.482  1.9980  1.4868 -2.3876
 3356TIP3    H231560   3.097   6.899   5.392 -1.4290 -0.6914  0.2814
 3357TIP3   OH231561   4.436   2.800  11.353 -0.2288 -0.3303  0.2011
 3357TIP3    H131562   4.457   2.710  11.376  0.4822  0.1363  1.4762
 3357TIP3    H231563   4.511   2.851  11.384  0.1122  0.5430 -1.8800
 3358TIP3   OH231564   1.441   1.687  13.915  0.1255  0.0435  0.0831
 3358TIP3    H131565   1.368   1.737  13.953 -0.6786 -0.9205 -0.1672
 3358TIP3    H231566   1.516   1.746  13.924 -0.8047  1.3519 -0.2987
 3359TIP3   OH231567   4.873   2.394   5.500 -0.3242 -0.4712  0.1844
 3359TIP3    H131568   4.791   2.402   5.452 -1.2478 -1.6193  1.4919
 3359TIP3    H231569   4.940   2.387   5.432 -1.4712 -1.1053 -0.9293
 3360TIP3   OH231570   5.653   2.890   4.001  0.4307  0.1415 -0.3516
 3360TIP3    H131571   5.737   2.932   3.982  1.9454 -2.8520 -0.7787
 3360TIP3    H231572   5.676   2.806   4.041 -2.3553 -1.0864 -1.0885
 3361TIP3   OH231573   2.795   4.203   0.157  0.0088  0.6531 -0.6258
 3361TIP3    H131574   2.887   4.230   0.151 -0.4372  2.0971 -1.5597
 3361TIP3    H231575   2.774   4.212   0.249  1.2871 -1.5227 -0.0421
 3362TIP3   OH231576   6.810   2.102  10.984  0.5052 -0.8809 -0.8035
 3362TIP3    H131577   6.831   2.126  11.074 -0.2542 -0.0044 -0.8558
 3362TIP3    H231578   6.720   2.069  10.988  0.0878  0.1625 -1.4074
 3363TIP3   OH231579   3.599   2.365  13.181  0.8101  0.1817  0.1879
 3363TIP3    H131580   3.649   2.316  13.116  0.0418 -0.3643 -0.0084
 3363TIP3    H231581   3.512   2.324  13.180  0.9099 -0.1206  1.8716
 3364TIP3   OH231582   1.334   3.308   3.163 -0.3739 -0.0319 -0.1915
 3364TIP3    H131583   1.367   3.243   3.225  0.1311  0.4092  0.0059
 3364TIP3    H231584   1.384   3.387   3.182 -0.3306  0.1555 -1.0567
 3365TIP3   OH231585   4.226   3.168   0.018 -0.1833 -0.8431  0.6161
 3365TIP3    H131586   4.235   3.107  -0.055 -1.6178 -1.8710  1.2644
 3365TIP3    H231587   4.218   3.254  -0.023  0.2344 -1.2662 -0.3736
 3366TIP3   OH231588   4.910   2.334  12.565 -0.3062 -0.2784  0.3060
 3366TIP3    H131589   4.880   2.279  12.638 -0.0200 -2.0710 -0.8720
 3366TIP3    H231590   4.831   2.380  12.537 -0.1563  1.5719  2.6069
 3367TIP3   OH231591   3.622   4.522   0.550 -0.1252  0.6368  0.0397
 3367TIP3    H131592   3.584   4.548   0.466  0.8442  0.0375 -0.5995
 3367TIP3    H231593   3.573   4.572   0.615 -0.9866  1.0007 -0.8707
 3368TIP3   OH231594   2.903   1.494  14.217 -0.5271  0.7745 -0.0638
 3368TIP3    H131595   2.849   1.571  14.236 -1.4852  0.4187 -1.2321
 3368TIP3    H231596   2.880   1.470  14.127  1.0062  0.1272 -0.3129
 3369TIP3   OH231597   4.168   6.409   4.796  0.7040  0.6783 -0.3314
 3369TIP3    H131598   4.079   6.431   4.771  0.4309 -2.0879 -2.2196
 3369TIP3    H231599   4.166   6.403   4.892 -1.0325  0.9983 -0.3305
 3370TIP3   OH231600   5.935   0.032  14.494 -0.6509  0.1267  0.1618
 3370TIP3    H131601   5.985  -0.020  14.556 -0.4767  0.4091  0.2588
 3370TIP3    H231602   5.897  -0.032  14.434 -1.0287 -0.1630  0.7070
 3371TIP3   OH231603   2.768   3.743  15.841  0.2491  0.2639  0.2960
 3371TIP3    H131604   2.684   3.785  15.824  0.4177  1.4977  2.2927
 3371TIP3    H231605   2.834   3.805  15.810  0.4646 -0.0357  0.1366
 3372TIP3   OH231606   4.829   4.873   2.104  0.3012  0.2714 -0.0201
 3372TIP3    H131607   4.760   4.812   2.130 -0.1289  1.3283  1.4487
 3372TIP3    H231608   4.868   4.833   2.026 -1.6175 -0.6113 -0.5998
 3373TIP3   OH231609   4.212   1.647   0.371 -0.4760  0.4755 -0.0449
 3373TIP3    H131610   4.149   1.662   0.441  0.1075  0.5948  0.4659
 3373TIP3    H231611   4.291   1.615   0.416 -0.4357 -0.4544 -0.7467
 3374TIP3   OH231612   1.259   4.675  15.576 -0.5230 -0.6174 -0.3254
 3374TIP3    H131613   1.297   4.589  15.561 -1.3630 -1.1696  0.6047
 3374TIP3    H231614   1.254   4.683  15.671  1.4762  1.3490 -0.2980
 3375TIP3   OH231615   5.227   5.993  11.680  0.2918  0.3226  0.1752
 3375TIP3    H131616   5.197   5.967  11.766  0.3326 -1.7984 -0.4053
 3375TIP3    H231617   5.149   6.030  11.638 -0.9300 -2.5255 -0.3183
 3376TIP3   OH231618   3.022   3.400  14.330  0.3234 -0.2492  0.1828
 3376TIP3    H131619   3.028   3.401  14.426  1.3437  0.2113  0.1338
 3376TIP3    H231620   3.028   3.493  14.305 -0.4334 -0.3255 -0.3099
 3377TIP3   OH231621   5.517   4.221  10.977  0.0146  0.0055 -0.2617
 3377TIP3    H131622   5.519   4.265  11.062  2.6380  1.5569 -0.9894
 3377TIP3    H231623   5.448   4.266  10.928  0.0595  0.7039  0.2974
 3378TIP3   OH231624   6.185   0.925  12.821  0.0319  0.2590  0.2324
 3378TIP3    H131625   6.210   1.013  12.851  0.9399 -0.7761  2.8768
 3378TIP3    H231626   6.239   0.909  12.744  0.6596  1.5943  0.3703
 3379TIP3   OH231627   2.537   3.293   4.998 -0.3122  0.0956  0.4945
 3379TIP3    H131628   2.450   3.310   5.035 -1.3563 -1.1445 -1.2580
 3379TIP3    H231629   2.568   3.214   5.043 -1.2639 -0.9864 -0.6830
 3380TIP3   OH231630   0.018   3.038   5.639 -0.0312 -0.2957  0.1624
 3380TIP3    H131631  -0.041   3.007   5.571 -1.1990 -2.2468  1.9725
 3380TIP3    H231632  -0.023   3.118   5.672 -1.3747 -1.2678  0.9368
 3381TIP3   OH231633   4.753   4.065  16.906 -0.6080  0.4080 -0.5965
 3381TIP3    H131634   4.678   4.012  16.880 -0.4739 -1.2178  1.9943
 3381TIP3    H231635   4.717   4.133  16.963 -0.8255  3.5916 -4.0959
 3382TIP3   OH231636   1.702   2.930   5.230 -0.4688  0.4736 -0.2369
 3382TIP3    H131637   1.784   2.960   5.269 -0.9226 -0.9197  2.0031
 3382TIP3    H231638   1.730   2.870   5.160  0.4152  0.7314 -0.1233
 3383TIP3   OH231639   1.623   4.196  10.311  0.0822  0.5561  0.6610
 3383TIP3    H131640   1.656   4.107  10.319  2.5051  1.1065 -1.7875
 3383TIP3    H231641   1.700   4.251  10.318 -1.1314  2.3618  0.5026
 3384TIP3   OH231642   6.269   6.057   2.941  0.0847  0.4022  0.3169
 3384TIP3    H131643   6.268   5.979   2.885 -0.7185 -0.5516  1.5952
 3384TIP3    H231644   6.332   6.037   3.010  0.7320  1.3733  0.0161
 3385TIP3   OH231645   5.226   0.671   4.969 -0.0334 -0.5886  0.0803
 3385TIP3    H131646   5.285   0.596   4.968 -1.2421 -1.6015  1.2252
 3385TIP3    H231647   5.150   0.642   5.019 -0.3219  1.5678  1.0309
 3386TIP3   OH231648   5.700   0.605  14.190 -0.4579 -0.1916 -0.0458
 3386TIP3    H131649   5.720   0.540  14.123 -1.6132 -0.4790 -0.1313
 3386TIP3    H231650   5.604   0.609  14.192 -0.5019 -0.9447  2.2693
 3387TIP3   OH231651   5.926   6.447  11.841 -0.4234 -0.9676 -0.0957
 3387TIP3    H131652   5.915   6.377  11.905 -0.3851 -1.5018 -0.6622
 3387TIP3    H231653   5.916   6.404  11.756 -1.4353 -0.1041 -0.4412
 3388TIP3   OH231654   4.853   0.583  13.379 -0.3993  0.2099 -0.2773
 3388TIP3    H131655   4.788   0.617  13.440 -1.8300 -1.7056 -0.6393
 3388TIP3    H231656   4.877   0.659  13.325 -2.8509  0.8871 -0.5485
 3389TIP3   OH231657   4.955   5.393   2.756 -0.2195  0.1338  0.7827
 3389TIP3    H131658   4.961   5.373   2.663  1.0004 -2.2351  1.2984
 3389TIP3    H231659   4.901   5.472   2.760 -0.9358 -0.1300 -1.8526
 3390TIP3   OH231660   6.578   3.371   0.078  0.3730  0.4748  0.4121
 3390TIP3    H131661   6.649   3.430   0.105  1.4749 -0.5727 -0.0694
 3390TIP3    H231662   6.623   3.297   0.038 -0.9020 -1.1455  1.8387
 3391TIP3   OH231663   3.941   0.112   1.439 -0.6795 -0.3484 -0.1052
 3391TIP3    H131664   4.011   0.161   1.396  0.3703 -1.1794  0.5963
 3391TIP3    H231665   3.888   0.079   1.366 -0.6792  0.7496 -0.6280
 3392TIP3   OH231666   0.203   5.513   4.793  0.7086  0.5593  0.0822
 3392TIP3    H131667   0.272   5.565   4.752 -1.7081  2.4337 -1.9563
 3392TIP3    H231668   0.181   5.446   4.728 -0.9244  1.4924 -0.4014
 3393TIP3   OH231669   5.384   3.838  12.982 -0.4564  0.0680  0.6409
 3393TIP3    H131670   5.407   3.862  12.892  0.9666  0.1718  1.0199
 3393TIP3    H231671   5.288   3.849  12.985 -0.5073  0.2475 -0.7967
 3394TIP3   OH231672   2.490   0.752   6.646 -0.5389  0.4174  0.6992
 3394TIP3    H131673   2.512   0.661   6.663 -0.0289 -0.0479 -2.0873
 3394TIP3    H231674   2.572   0.792   6.618 -1.5273  0.6225 -2.1674
 3395TIP3   OH231675   0.301   1.984  10.781  0.4241  0.0902 -0.1402
 3395TIP3    H131676   0.395   2.001  10.781  0.0856  3.0000  2.6577
 3395TIP3    H231677   0.272   2.011  10.694  1.9056  1.3201 -0.3091
 3396TIP3   OH231678   1.441   0.826  11.196  0.0052  0.4299  0.2034
 3396TIP3    H131679   1.485   0.843  11.113  0.8451 -0.8514  0.3622
 3396TIP3    H231680   1.361   0.779  11.172  0.9726 -1.2764  0.1746
 3397TIP3   OH231681   6.006   6.444  15.337 -0.2187 -0.4500  0.4491
 3397TIP3    H131682   6.001   6.499  15.259 -1.0978 -0.9692  0.1282
 3397TIP3    H231683   6.087   6.395  15.326 -0.3296 -0.5083 -0.1327
 3398TIP3   OH231684   3.836   5.430   2.677 -0.7357  0.0521 -0.0297
 3398TIP3    H131685   3.888   5.372   2.621 -0.5335  0.2199 -0.0156
 3398TIP3    H231686   3.769   5.373   2.714 -0.8155 -0.0778 -0.3727
 3399TIP3   OH231687   5.598   3.422   4.483  0.0719 -0.5698  0.2261
 3399TIP3    H131688   5.638   3.339   4.459 -0.5290 -1.2269  1.4391
 3399TIP3    H231689   5.604   3.425   4.578 -3.0189 -0.8581  0.5203
 3400TIP3   OH231690   4.894   2.322   1.177  0.5658  0.4447 -0.0099
 3400TIP3    H131691   4.806   2.287   1.165  0.5896  0.3084  0.2111
 3400TIP3    H231692   4.936   2.261   1.238  0.9929  0.2057 -0.5314
 3401TIP3   OH231693   0.858   1.652   3.927  0.3568  0.0044 -0.2754
 3401TIP3    H131694   0.833   1.579   3.984 -1.7444  0.3222 -0.7214
 3401TIP3    H231695   0.925   1.699   3.975  2.0664 -2.4056 -0.1173
 3402TIP3   OH231696   1.269   2.720   2.468 -0.3061  0.9070 -0.4006
 3402TIP3    H131697   1.307   2.805   2.490 -0.5443  0.8521  0.2128
 3402TIP3    H231698   1.299   2.661   2.538 -1.6779  0.9011  0.1968
 3403TIP3   OH231699   2.081   1.142   1.206  0.3378  0.2982  0.2007
 3403TIP3    H131700   2.063   1.188   1.123  0.9103 -1.1901 -0.7955
 3403TIP3    H231701   2.014   1.075   1.211  0.6717 -0.0099  0.6252
 3404TIP3   OH231702   0.382   1.418  16.967 -1.1271 -0.2251 -0.1721
 3404TIP3    H131703   0.332   1.499  16.976 -1.1197 -0.0121 -1.8557
 3404TIP3    H231704   0.469   1.446  16.942 -0.6810 -0.7032  0.7787
 3405TIP3   OH231705   2.127   6.461   0.188 -0.7439  0.1782  0.5970
 3405TIP3    H131706   2.096   6.445   0.277 -1.4428 -0.7497  0.2178
 3405TIP3    H231707   2.047   6.454   0.134 -0.4158  1.2129 -0.0470
 3406TIP3   OH231708   3.418   0.025  11.564  0.7856 -0.4147  0.2321
 3406TIP3    H131709   3.374   0.109  11.576  1.1413 -0.3708  1.3717
 3406TIP3    H231710   3.510   0.048  11.552  0.7378 -0.5955 -0.5698
 3407TIP3   OH231711   0.428   1.679   1.725 -0.2928 -1.1173 -0.1050
 3407TIP3    H131712   0.425   1.673   1.629 -1.2119 -0.0867 -0.1692
 3407TIP3    H231713   0.336   1.679   1.751 -0.0328 -2.2873  0.8607
 3408TIP3   OH231714   0.639   0.141  10.910  0.3297 -0.0284  0.2620
 3408TIP3    H131715   0.555   0.185  10.925 -1.8162 -3.4105 -0.6321
 3408TIP3    H231716   0.639   0.123  10.816 -0.8658 -4.9262  0.9104
 3409TIP3   OH231717   4.374   2.462  15.828 -0.3060  0.5657 -0.0209
 3409TIP3    H131718   4.372   2.516  15.749 -1.2775  0.1650 -0.2806
 3409TIP3    H231719   4.387   2.373  15.796 -2.9748  0.0837  0.0620
 3410TIP3   OH231720   5.803   3.410   3.488  0.3534 -0.2328 -0.0483
 3410TIP3    H131721   5.888   3.375   3.514  2.1686  4.4202  1.1779
 3410TIP3    H231722   5.753   3.415   3.569  0.3328  0.4697 -0.1018
 3411TIP3   OH231723   6.455   4.746   1.696  0.0027  0.5458  0.2693
 3411TIP3    H131724   6.385   4.714   1.639  0.4179  1.1049 -0.5923
 3411TIP3    H231725   6.535   4.709   1.659  0.1145 -0.8596  1.8035
 3412TIP3   OH231726   0.526   3.130   0.909 -0.3213 -0.0404 -0.1002
 3412TIP3    H131727   0.454   3.192   0.897 -0.2517 -0.2499 -1.7482
 3412TIP3    H231728   0.566   3.122   0.823 -0.5592 -2.6662 -0.0389
 3413TIP3   OH231729   0.298   0.338   0.997  0.7064 -0.0476 -0.1329
 3413TIP3    H131730   0.298   0.434   0.994 -1.7420  0.0057 -0.4580
 3413TIP3    H231731   0.248   0.317   1.076 -1.3528 -0.9739 -1.5867
 3414TIP3   OH231732   2.751   6.088  12.536 -0.3148 -0.0063 -0.4101
 3414TIP3    H131733   2.820   6.155  12.539 -1.0736  0.7641  0.7959
 3414TIP3    H231734   2.771   6.037  12.458  0.8387  1.0461 -0.8449
 3415TIP3   OH231735   0.160   2.542  16.296  0.1656  0.3740  0.0148
 3415TIP3    H131736   0.255   2.551  16.302  0.0782  1.0972  0.4170
 3415TIP3    H231737   0.140   2.557  16.204  0.4701 -0.1406 -0.1418
 3416TIP3   OH231738   1.927   4.885   0.995 -0.1864  0.6845 -0.2617
 3416TIP3    H131739   1.944   4.955   1.058  0.9976  1.6371 -1.5837
 3416TIP3    H231740   1.995   4.896   0.928  0.5396 -2.2299 -0.1145
 3417TIP3   OH231741   1.308   6.263  15.150  0.8459 -0.3384  0.3653
 3417TIP3    H131742   1.292   6.276  15.057  2.0851  3.7199  0.5368
 3417TIP3    H231743   1.377   6.196  15.153  0.8374 -0.4961 -1.6150
 3418TIP3   OH231744   6.448   5.475  15.469 -0.2299  0.3484  1.0101
 3418TIP3    H131745   6.361   5.457  15.503 -0.9392 -1.3272 -1.4719
 3418TIP3    H231746   6.487   5.389  15.455  0.2316  0.9134 -1.6706
 3419TIP3   OH231747   2.876   0.055   5.724  0.6823  0.0017  0.4150
 3419TIP3    H131748   2.828   0.040   5.805 -1.9303 -0.5402 -1.1047
 3419TIP3    H231749   2.921   0.139   5.737 -0.9709  0.7265  1.8577
 3420TIP3   OH231750   1.432   1.150  16.764 -0.1125  0.2591  0.1443
 3420TIP3    H131751   1.485   1.193  16.831  1.1393 -0.3301 -0.4268
 3420TIP3    H231752   1.370   1.217  16.736  0.5819  1.1030  0.5726
 3421TIP3   OH231753   5.021   0.453  12.133 -0.2853 -0.0962 -0.9284
 3421TIP3    H131754   4.938   0.406  12.148  0.5551 -1.3742 -0.0615
 3421TIP3    H231755   5.062   0.457  12.220  0.8091  0.0082 -1.4373
 3422TIP3   OH231756   4.900   1.163   3.885 -0.5272 -0.0658  0.4938
 3422TIP3    H131757   4.981   1.122   3.854 -1.7013 -2.4294  0.3039
 3422TIP3    H231758   4.906   1.160   3.980 -0.6469 -0.9047  0.4906
 3423TIP3   OH231759   5.686   2.234  11.850 -0.0594 -0.6166  0.3467
 3423TIP3    H131760   5.665   2.319  11.887 -0.1190  0.1501 -1.3323
 3423TIP3    H231761   5.673   2.172  11.921  0.4053  0.8154  1.7353
 3424TIP3   OH231762   3.020   0.661   0.399 -0.7400  0.0273 -0.4099
 3424TIP3    H131763   3.015   0.565   0.392  2.5012 -0.3381  0.6061
 3424TIP3    H231764   3.068   0.688   0.321  0.9532  0.4135  0.7114
 3425TIP3   OH231765   6.157   0.647   0.520  0.2283 -0.6069 -0.2617
 3425TIP3    H131766   6.249   0.652   0.493  0.0471  0.8783 -0.7372
 3425TIP3    H231767   6.119   0.582   0.461  0.6228  0.0201 -1.2535
 3426TIP3   OH231768   6.404   2.105   5.938  0.0030  0.7327 -0.5415
 3426TIP3    H131769   6.427   2.060   6.019 -0.6643 -2.1819 -1.8542
 3426TIP3    H231770   6.339   2.170   5.965  1.5291  1.5131  1.5382
 3427TIP3   OH231771   2.572   2.009  16.439 -0.6610 -0.0948 -0.5647
 3427TIP3    H131772   2.653   2.032  16.393 -0.8743 -0.5796 -1.2072
 3427TIP3    H231773   2.512   1.982  16.370 -2.1117  2.2360 -0.3169
 3428TIP3   OH231774   5.167   5.749   4.803  0.2155  0.4294  0.3874
 3428TIP3    H131775   5.135   5.783   4.720 -3.0185 -0.1933  1.2410
 3428TIP3    H231776   5.093   5.701   4.840  3.0957 -4.0189  1.1869
 3429TIP3   OH231777   5.910   1.222  15.107  0.9309 -0.5641 -0.1362
 3429TIP3    H131778   5.889   1.306  15.148 -0.6750 -0.3460 -1.2843
 3429TIP3    H231779   5.988   1.191  15.153  2.4907  2.2602 -0.6250
 3430TIP3   OH231780   3.968   0.659  14.476  0.0661 -0.1554  0.0250
 3430TIP3    H131781   4.019   0.646  14.396 -0.6002  1.0243 -0.6143
 3430TIP3    H231782   3.959   0.754  14.483 -1.2040 -0.3103  0.6539
 3431TIP3   OH231783   5.394   2.663  14.504  0.1396  0.3575 -0.0426
 3431TIP3    H131784   5.389   2.650  14.409 -0.2569 -1.4519  0.1915
 3431TIP3    H231785   5.382   2.576  14.541 -0.3785  1.1235  1.7077
 3432TIP3   OH231786   2.665   2.663  11.397 -0.3163 -0.0554  0.7480
 3432TIP3    H131787   2.721   2.722  11.345 -0.9676  1.1497  1.3718
 3432TIP3    H231788   2.718   2.642  11.474  0.2540 -1.0076  0.1066
 3433TIP3   OH231789   1.176   0.216  13.080 -0.0101  0.1336  0.3958
 3433TIP3    H131790   1.104   0.168  13.039 -0.7921  1.8355 -0.3407
 3433TIP3    H231791   1.162   0.206  13.174  0.0263 -1.2908  0.2659
 3434TIP3   OH231792   5.730   3.252   3.071 -0.5030  0.7797  0.2041
 3434TIP3    H131793   5.774   3.167   3.077 -1.8689  0.1206  1.8655
 3434TIP3    H231794   5.801   3.315   3.070  0.5531 -0.3523 -1.2326
 3435TIP3   OH231795   4.474   3.697   0.017  0.6004 -0.3353  0.5077
 3435TIP3    H131796   4.400   3.705  -0.043  0.2623  0.7705  1.0487
 3435TIP3    H231797   4.550   3.722  -0.035  0.3463  0.3377  0.4581
 3436TIP3   OH231798   6.490   2.764   5.880 -0.6679 -0.1439  0.1672
 3436TIP3    H131799   6.417   2.702   5.882 -1.3159  0.5314 -1.1064
 3436TIP3    H231800   6.450   2.849   5.901 -0.5148  0.4298 -1.6900
 3437TIP3   OH231801   2.088   5.937   6.506 -0.5583  0.5140 -0.1195
 3437TIP3    H131802   2.055   5.952   6.418 -2.6866  0.0037  0.5448
 3437TIP3    H231803   2.078   5.843   6.520  2.6061  0.0451 -0.3690
 3438TIP3   OH231804   2.282   4.688   5.779  0.3284  0.1363  0.0135
 3438TIP3    H131805   2.350   4.624   5.800 -0.4096 -0.9567 -0.7954
 3438TIP3    H231806   2.205   4.635   5.760 -0.5503  1.3219  0.1763
 3439TIP3   OH231807   5.543   2.873   2.906 -0.4509 -0.6628  0.2726
 3439TIP3    H131808   5.565   2.780   2.914 -0.7708 -0.7171  0.5404
 3439TIP3    H231809   5.480   2.889   2.976 -0.3636 -0.2317  0.2532
 3440TIP3   OH231810   3.360   4.717   2.722  0.2882  0.1102  0.0723
 3440TIP3    H131811   3.294   4.699   2.790  0.8122  1.4476  0.9834
 3440TIP3    H231812   3.438   4.744   2.771  1.2647 -0.6034 -1.0239
 3441TIP3   OH231813   5.525   2.140   3.163 -0.1858  0.2864 -0.4689
 3441TIP3    H131814   5.488   2.055   3.185  0.0024  0.3036 -0.0831
 3441TIP3    H231815   5.464   2.177   3.098 -1.5102  0.8151  0.9995
 3442TIP3   OH231816   5.058   2.705  13.943 -0.1026 -0.5041  0.3935
 3442TIP3    H131817   5.078   2.715  14.036 -1.9318 -0.7948  0.8633
 3442TIP3    H231818   5.088   2.616  13.921 -0.4020 -0.7384  0.9188
 3443TIP3   OH231819   0.194   6.445   4.737 -0.1639 -0.1338  0.0416
 3443TIP3    H131820   0.147   6.450   4.654 -0.7449 -1.2080  0.2847
 3443TIP3    H231821   0.125   6.430   4.802  0.4619 -1.2999  0.4674
 3444TIP3   OH231822   0.809   0.662   2.793  0.2556 -1.0164 -0.0106
 3444TIP3    H131823   0.723   0.697   2.818  0.3909 -0.3758 -0.4363
 3444TIP3    H231824   0.813   0.673   2.698  1.5708  0.7393  0.1963
 3445TIP3   OH231825   1.222   3.521   1.233 -0.6075  0.2311 -0.6434
 3445TIP3    H131826   1.189   3.441   1.274  0.4331  0.3734  0.5399
 3445TIP3    H231827   1.292   3.491   1.174 -0.2808  0.2488 -0.2700
 3446TIP3   OH231828   6.764   1.498   0.919  0.5357 -0.2590 -0.0052
 3446TIP3    H131829   6.839   1.491   0.860  0.9151 -0.5657  0.5035
 3446TIP3    H231830   6.772   1.586   0.956  1.2327 -0.6454  0.8062
 3447TIP3   OH231831   5.510   5.028  15.339  0.4770  0.3222  0.2112
 3447TIP3    H131832   5.518   4.933  15.327 -0.9789  0.1098  0.6857
 3447TIP3    H231833   5.442   5.053  15.276  1.1456  1.1195 -0.1956
 3448TIP3   OH231834   1.520   6.731  14.692  0.4794 -0.3211 -0.8151
 3448TIP3    H131835   1.583   6.684  14.637  1.6022 -1.5248  1.3713
 3448TIP3    H231836   1.481   6.663  14.747 -0.6784  0.8177 -0.1850
 3449TIP3   OH231837   2.823   4.213  15.410  0.1439  0.4185 -0.1474
 3449TIP3    H131838   2.889   4.188  15.345 -0.9183 -1.3849 -0.5828
 3449TIP3    H231839   2.747   4.240  15.358 -0.3918 -0.1504  0.3201
 3450TIP3   OH231840   5.042   3.676   0.620  0.1445  0.1516 -0.0215
 3450TIP3    H131841   5.086   3.602   0.577  0.2030  0.1736  0.0014
 3450TIP3    H231842   5.105   3.747   0.616 -0.1604  0.3936 -0.6275
 3451TIP3   OH231843   5.559   1.336   0.630  0.7839 -0.1605 -0.7039
 3451TIP3    H131844   5.654   1.338   0.644  1.1283 -0.5443 -2.7227
 3451TIP3    H231845   5.531   1.252   0.666  1.0851  0.2181  0.4648
 3452TIP3   OH231846   5.856   2.177   3.170  0.6828 -0.0484  0.5220
 3452TIP3    H131847   5.765   2.204   3.178  0.7612  0.4942 -0.3008
 3452TIP3    H231848   5.852   2.082   3.160  0.4169 -0.4933  3.7140
 3453TIP3   OH231849   2.032   1.960   1.192  0.1288  0.4597 -0.4972
 3453TIP3    H131850   2.007   1.957   1.100  0.0283  2.3203 -0.5596
 3453TIP3    H231851   2.116   1.916   1.196  1.0482  1.9972 -1.8229
 3454TIP3   OH231852   4.761   4.359   3.080 -0.1894 -0.1636  0.5164
 3454TIP3    H131853   4.703   4.292   3.044  1.5227 -0.5818 -1.7015
 3454TIP3    H231854   4.766   4.426   3.012  0.7663  0.5506  1.2649
 3455TIP3   OH231855   2.297   0.865   0.545 -0.6563 -0.4562 -0.2421
 3455TIP3    H131856   2.371   0.861   0.484 -1.6471  0.1171 -1.5366
 3455TIP3    H231857   2.254   0.780   0.536 -1.6639  0.1549 -1.5154
 3456TIP3   OH231858   0.437   3.806  12.258  0.0878 -0.2781 -0.6284
 3456TIP3    H131859   0.436   3.756  12.339  2.9550  1.8075  0.8491
 3456TIP3    H231860   0.521   3.786  12.217 -0.6758 -0.1389 -2.3785
 3457TIP3   OH231861   6.472   6.480   2.722 -0.9347  0.1258 -0.6116
 3457TIP3    H131862   6.507   6.506   2.637 -0.1161 -1.7221 -0.8800
 3457TIP3    H231863   6.506   6.391   2.736 -4.3094 -1.2501 -0.2091
 3458TIP3   OH231864   2.205   3.787  16.767 -0.3809 -0.4091  0.0323
 3458TIP3    H131865   2.236   3.717  16.824  0.7492 -0.1711 -0.2701
 3458TIP3    H231866   2.177   3.856  16.827 -1.0907 -0.9283  0.3177
 3459TIP3   OH231867   3.822   3.044  16.490  0.3536 -0.1106 -0.4726
 3459TIP3    H131868   3.813   2.952  16.467 -1.0107  0.0372 -0.5998
 3459TIP3    H231869   3.747   3.087  16.448 -0.1254  0.7544  1.1879
 3460TIP3   OH231870   1.451   5.779   2.524  0.2334  0.0424  0.2304
 3460TIP3    H131871   1.452   5.702   2.468 -0.6714  0.4078 -0.3082
 3460TIP3    H231872   1.496   5.846   2.474  1.7633 -0.3436  1.0406
 3461TIP3   OH231873   6.428   3.151  13.566  0.7604  0.3259  0.1550
 3461TIP3    H131874   6.496   3.218  13.559 -0.6312  1.9520  1.3701
 3461TIP3    H231875   6.357   3.194  13.613 -1.0097 -1.3969 -0.7928
 3462TIP3   OH231876   1.308   0.223  15.524 -0.0622 -0.1831  0.2496
 3462TIP3    H131877   1.333   0.152  15.582  1.6360  0.6110  0.5634
 3462TIP3    H231878   1.265   0.180  15.450 -2.7834 -1.1777  2.2775
 3463TIP3   OH231879   5.934   2.279  10.368  0.2900  0.0927  0.2738
 3463TIP3    H131880   5.918   2.369  10.398  0.3424  0.3014 -0.3188
 3463TIP3    H231881   6.026   2.279  10.341  0.2869 -0.1376  0.2608
 3464TIP3   OH231882   1.573   1.753   5.943  0.0539 -0.0320  0.1118
 3464TIP3    H131883   1.551   1.720   5.855 -2.3806  0.8639  0.3142
 3464TIP3    H231884   1.503   1.719   5.999 -0.2259  2.0046  1.0783
 3465TIP3   OH231885   4.903   5.549  15.200  0.0912 -0.2027  0.0841
 3465TIP3    H131886   4.887   5.490  15.275 -2.2513  2.7869  2.1497
 3465TIP3    H231887   4.972   5.608  15.231  0.0843  0.2053 -0.6613
 3466TIP3   OH231888   2.249   6.668   1.657 -0.0808 -0.6085  0.3264
 3466TIP3    H131889   2.166   6.701   1.690  0.0927  0.7499 -0.5156
 3466TIP3    H231890   2.243   6.677   1.562  0.8964 -0.8263  0.2324
 3467TIP3   OH231891   6.471   2.453   1.891  0.4614 -0.3191  0.3173
 3467TIP3    H131892   6.557   2.495   1.896  0.3404 -0.0078 -0.2004
 3467TIP3    H231893   6.447   2.457   1.798  0.2390 -1.1147  0.3269
 3468TIP3   OH231894   2.431   0.991  14.654 -0.2087 -0.7844 -0.5017
 3468TIP3    H131895   2.350   0.969  14.700 -0.7685 -0.5232 -1.3370
 3468TIP3    H231896   2.430   0.935  14.576 -0.1997  0.0968 -1.1503
 3469TIP3   OH231897   5.772   6.110   1.442 -0.0647  0.2145 -0.1250
 3469TIP3    H131898   5.739   6.196   1.417  0.1710  0.0090 -1.2026
 3469TIP3    H231899   5.799   6.120   1.534  0.2696  1.3756 -0.3371
 3470TIP3   OH231900   0.725   1.999  10.329 -0.1964  0.4604  0.3562
 3470TIP3    H131901   0.686   1.923  10.285  0.9121 -0.3592  0.7496
 3470TIP3    H231902   0.667   2.072  10.306 -2.3985 -0.8059  1.5226
 3471TIP3   OH231903   1.862   5.751  16.540  0.1565  0.1285 -0.1577
 3471TIP3    H131904   1.804   5.817  16.578 -0.2709 -1.0132  1.3009
 3471TIP3    H231905   1.868   5.774  16.448 -2.4911  0.4141 -0.3358
 3472TIP3   OH231906   5.680   1.049   3.665  0.9757  0.0074 -0.3099
 3472TIP3    H131907   5.680   0.968   3.716  0.4805 -0.1435 -0.5442
 3472TIP3    H231908   5.690   1.020   3.574 -4.2097 -0.3111 -1.1152
 3473TIP3   OH231909   0.755   4.176   2.555 -0.0409  0.2054  0.0926
 3473TIP3    H131910   0.697   4.201   2.484 -1.2030  1.2964  1.3718
 3473TIP3    H231911   0.697   4.148   2.626  1.0141  0.2992  1.0317
 3474TIP3   OH231912   3.843   6.164  13.283 -0.0401 -0.0633  0.9068
 3474TIP3    H131913   3.748   6.156  13.279 -0.4859  2.6489  2.9626
 3474TIP3    H231914   3.867   6.206  13.200 -0.9013  0.9396  1.1512
 3475TIP3   OH231915   5.405   2.799  11.450 -0.2637  0.1988 -0.0782
 3475TIP3    H131916   5.397   2.840  11.537  2.3711 -1.7525  1.2569
 3475TIP3    H231917   5.476   2.848  11.408 -1.4462  1.0515 -1.1118
 3476TIP3   OH231918   4.592   5.221  16.302  0.0385 -0.0276 -0.3551
 3476TIP3    H131919   4.517   5.260  16.257 -0.2805 -0.7314 -0.4442
 3476TIP3    H231920   4.613   5.284  16.371 -1.5355 -0.4528  0.5876
 3477TIP3   OH231921   2.193   1.986  16.046  0.3292 -0.4459  0.2734
 3477TIP3    H131922   2.100   1.967  16.040  0.3076 -0.0223 -4.3519
 3477TIP3    H231923   2.236   1.902  16.031  0.6259 -0.2307 -0.1084
 3478TIP3   OH231924   4.520   0.428   2.961  0.1933 -0.4409  0.1581
 3478TIP3    H131925   4.587   0.457   3.022  0.4851 -0.0717 -0.3364
 3478TIP3    H231926   4.554   0.449   2.874 -1.6025  2.0526 -0.0444
 3479TIP3   OH231927   3.408   4.622   5.436  0.3179 -0.1293 -0.0223
 3479TIP3    H131928   3.396   4.692   5.500 -1.1321  1.9137 -2.3465
 3479TIP3    H231929   3.423   4.543   5.489 -3.1226  0.9262  2.9250
 3480TIP3   OH231930   3.162   0.626  15.900  0.5104  0.0260  0.1515
 3480TIP3    H131931   3.228   0.566  15.866  0.9805  0.6666 -0.0866
 3480TIP3    H231932   3.099   0.570  15.945 -0.3774 -0.9109 -2.1435
 3481TIP3   OH231933   5.179   5.696  15.883  0.1631 -0.4219  0.0079
 3481TIP3    H131934   5.225   5.776  15.911 -0.0034  0.0902 -1.1163
 3481TIP3    H231935   5.115   5.680  15.953  0.4926  0.1838  0.4613
 3482TIP3   OH231936   3.684   2.397   0.058  0.0835 -0.0009  0.2624
 3482TIP3    H131937   3.663   2.349  -0.022 -0.9018  1.5469 -0.4540
 3482TIP3    H231938   3.743   2.466   0.030  0.2677  0.1528  0.9978
 3483TIP3   OH231939   6.835   5.390  13.237 -0.3699 -0.3601  0.2767
 3483TIP3    H131940   6.842   5.410  13.330  2.3032 -1.3272  0.3847
 3483TIP3    H231941   6.814   5.296  13.233 -2.2821  0.0396 -0.1597
 3484TIP3   OH231942   1.392   3.782  12.922 -0.0138 -0.4192  0.2837
 3484TIP3    H131943   1.362   3.762  12.833  0.8548  0.4228 -0.2185
 3484TIP3    H231944   1.488   3.783  12.915  0.0695 -0.5925  1.2906
 3485TIP3   OH231945   1.487   1.185  15.184 -0.5063 -0.3998  0.2472
 3485TIP3    H131946   1.483   1.089  15.184  1.4907 -0.5492 -1.0403
 3485TIP3    H231947   1.400   1.212  15.155 -0.3545 -1.9758 -2.0080
 3486TIP3   OH231948   0.859   5.222  12.235  0.0142  0.1722  0.0937
 3486TIP3    H131949   0.887   5.209  12.326 -0.1694 -0.5892  0.0494
 3486TIP3    H231950   0.806   5.145  12.215 -0.5356  0.6812 -0.4353
 3487TIP3   OH231951   2.290   4.876   4.400 -0.3411  0.6879 -0.3038
 3487TIP3    H131952   2.272   4.808   4.334  0.9360 -1.7379  1.6681
 3487TIP3    H231953   2.204   4.912   4.422 -1.0657 -0.2948 -1.4236
 3488TIP3   OH231954   2.420   4.510  16.597  0.0406  0.1026  0.8026
 3488TIP3    H131955   2.481   4.577  16.627  0.3564 -0.0353  0.4706
 3488TIP3    H231956   2.445   4.431  16.644  0.1004  0.0515  0.6837
 3489TIP3   OH231957   0.037   1.643  16.020  0.0432 -0.1044 -0.5465
 3489TIP3    H131958  -0.019   1.648  16.098  1.0266  0.8380  0.1238
 3489TIP3    H231959   0.109   1.585  16.046  0.5282  0.4476 -0.6528
 3490TIP3   OH231960   0.257   4.284   2.146 -0.4993 -0.2025 -0.1037
 3490TIP3    H131961   0.205   4.307   2.223  1.3672 -1.2426  1.5709
 3490TIP3    H231962   0.248   4.189   2.139  0.9186 -0.3694  0.0754
 3491TIP3   OH231963   1.406   5.985   1.195  0.3840 -0.7752  0.0804
 3491TIP3    H131964   1.315   5.968   1.220  0.5896 -0.7890  0.8577
 3491TIP3    H231965   1.409   5.969   1.101 -0.3053 -1.2581  0.1341
 3492TIP3   OH231966   4.029   3.355  11.348  0.4912  0.2729 -0.8518
 3492TIP3    H131967   4.080   3.396  11.279  2.1742 -0.4816 -0.0979
 3492TIP3    H231968   4.028   3.262  11.325 -0.4785  0.2566 -0.7965
 3493TIP3   OH231969   5.223   4.265   1.987 -0.5840 -0.3197 -0.1618
 3493TIP3    H131970   5.225   4.171   1.968 -0.6626 -0.2644 -0.4481
 3493TIP3    H231971   5.156   4.300   1.927  0.8200  0.2279 -1.4754
 3494TIP3   OH231972   0.642   1.228   4.206  0.3427 -0.1866  0.1872
 3494TIP3    H131973   0.558   1.257   4.240  0.4086 -0.3925  0.5324
 3494TIP3    H231974   0.660   1.146   4.252  0.7347 -0.1431  0.1208
 3495TIP3   OH231975   0.618   6.213  11.358  0.4497 -0.1752 -0.2703
 3495TIP3    H131976   0.548   6.219  11.293 -0.4125  0.4699  0.6830
 3495TIP3    H231977   0.657   6.127  11.343 -1.1626 -0.9600 -0.2382
 3496TIP3   OH231978   2.686   3.130  13.745  0.1355  0.5347 -0.1889
 3496TIP3    H131979   2.631   3.202  13.777  1.1193  0.8298  0.8917
 3496TIP3    H231980   2.774   3.152  13.774  0.9478  0.2895 -2.2707
 3497TIP3   OH231981   0.247   4.230   3.244  0.0864  0.1072  0.1815
 3497TIP3    H131982   0.305   4.158   3.219 -0.6174 -0.1833 -0.6627
 3497TIP3    H231983   0.246   4.288   3.168 -0.2188  0.4428  0.4358
 3498TIP3   OH231984   5.863   1.371  11.341  0.3557 -0.1749 -0.1596
 3498TIP3    H131985   5.831   1.391  11.253  0.0275 -0.3213 -0.0756
 3498TIP3    H231986   5.940   1.427  11.352  2.2167 -2.2841 -1.6572
 3499TIP3   OH231987   3.187   4.204  14.526 -0.5546 -0.2563 -0.4676
 3499TIP3    H131988   3.209   4.250  14.445 -1.6042  0.0792 -0.5855
 3499TIP3    H231989   3.228   4.256  14.595  0.0495 -0.3433 -0.7594
 3500TIP3   OH231990   6.831   4.317  13.934  0.2072 -0.2883  0.1778
 3500TIP3    H131991   6.832   4.225  13.910 -0.5979 -0.0360 -0.8806
 3500TIP3    H231992   6.749   4.351  13.898  0.1140  0.6704  1.2234
 3501TIP3   OH231993   1.080   0.139  17.037  0.0936 -0.4623 -0.4196
 3501TIP3    H131994   1.058   0.084  17.112  2.5753 -1.2963 -0.2402
 3501TIP3    H231995   1.175   0.141  17.035  0.1224  2.6516 -1.3240
 3502TIP3   OH231996   4.813   2.644   5.649  0.2729 -0.2153  0.2148
 3502TIP3    H131997   4.804   2.551   5.628  1.6013 -0.7315  1.6914
 3502TIP3    H231998   4.863   2.681   5.577  0.2423 -0.7773 -0.1010
 3503TIP3   OH231999   6.769   5.226  10.676 -0.4892 -0.3186 -0.1326
 3503TIP3    H132000   6.779   5.318  10.700  1.6908 -0.6609  0.5196
 3503TIP3    H232001   6.828   5.213  10.603 -0.3758 -1.3111  0.1169
 3504TIP3   OH232002   2.468   3.552  13.061  0.7725 -0.3263 -0.6890
 3504TIP3    H132003   2.510   3.466  13.054 -0.1932 -0.8310 -0.4788
 3504TIP3    H232004   2.482   3.592  12.975 -1.1529 -1.8389 -1.7725
 3505TIP3   OH232005   6.782   4.666  11.501  0.0047  0.3481  0.5814
 3505TIP3    H132006   6.815   4.660  11.412 -0.7331  1.8266  0.1756
 3505TIP3    H232007   6.815   4.588  11.545 -1.0838 -1.3496 -1.4622
 3506TIP3   OH232008   3.909   3.775  13.081 -0.3352  0.0627 -0.1733
 3506TIP3    H132009   3.992   3.731  13.065 -0.2719 -0.9705  2.4871
 3506TIP3    H232010   3.854   3.709  13.123 -1.0115  1.8300  1.9304
 3507TIP3   OH232011   0.828   3.384   1.911 -0.1152  0.2802  0.1697
 3507TIP3    H132012   0.882   3.324   1.963 -0.3475 -1.8554 -1.9242
 3507TIP3    H232013   0.747   3.392   1.961  0.9077  1.0711  1.8135
 3508TIP3   OH232014   3.132   5.727   5.854 -0.4708 -0.3945 -0.1505
 3508TIP3    H132015   3.110   5.815   5.825 -0.7349 -0.4085  0.0019
 3508TIP3    H232016   3.217   5.736   5.896 -0.3921 -0.2533 -0.3415
 3509TIP3   OH232017   3.778   1.607   6.415  0.3268  0.0879  0.1391
 3509TIP3    H132018   3.820   1.546   6.353 -1.0401 -1.7659  0.9406
 3509TIP3    H232019   3.835   1.607   6.491 -0.3316 -1.2827  0.6571
 3510TIP3   OH232020   1.895   3.680   4.818  0.1391 -0.3065  0.1090
 3510TIP3    H132021   1.990   3.688   4.827 -0.1443  3.0769  1.3760
 3510TIP3    H232022   1.877   3.711   4.729  0.1347  0.6847  0.4413
 3511TIP3   OH232023   2.741   3.701   6.104 -0.1784 -0.4742 -0.0637
 3511TIP3    H132024   2.775   3.624   6.150  0.9150  0.8864  1.5273
 3511TIP3    H232025   2.651   3.709   6.135 -0.9969 -2.2035 -1.7805
 3512TIP3   OH232026   3.321   5.918   2.722  0.4319  0.3204 -0.1817
 3512TIP3    H132027   3.357   5.922   2.634 -0.7354 -1.0010 -0.7473
 3512TIP3    H232028   3.324   5.825   2.745  0.8506  0.6510  1.2510
 3513TIP3   OH232029   1.846   5.667   0.045 -0.4467  0.1265 -0.3255
 3513TIP3    H132030   1.768   5.721   0.059 -0.7426  0.1045 -1.7082
 3513TIP3    H232031   1.903   5.720  -0.010 -0.0565 -0.3662 -0.4089
 3514TIP3   OH232032   1.633   2.052   0.264  0.2500  0.7365 -0.1843
 3514TIP3    H132033   1.622   1.963   0.229 -0.4995  1.0855 -0.8731
 3514TIP3    H232034   1.726   2.057   0.287  0.8308  0.4977 -2.2173
 3515TIP3   OH232035   6.344   0.069  11.387 -0.8379  0.6500  0.0780
 3515TIP3    H132036   6.392   0.151  11.399 -1.2258  0.7139  1.3453
 3515TIP3    H232037   6.410   0.006  11.356 -0.2392  1.0865  0.4495
 3516TIP3   OH232038   5.611   6.656  12.674  0.4288  0.5087  0.0937
 3516TIP3    H132039   5.621   6.664  12.769 -1.3001 -0.4904  0.4084
 3516TIP3    H232040   5.649   6.570  12.653  1.7750  1.1773 -0.3149
 3517TIP3   OH232041   1.879   5.348   0.601 -0.0732 -0.0121  0.1170
 3517TIP3    H132042   1.932   5.354   0.680 -0.0952 -1.2283  0.2447
 3517TIP3    H232043   1.853   5.256   0.597 -1.3065  0.3374 -0.5004
 3518TIP3   OH232044   4.955   4.624  11.173  0.2544 -0.2780  0.0100
 3518TIP3    H132045   4.929   4.708  11.133 -1.1531 -0.2652  0.8776
 3518TIP3    H232046   4.883   4.564  11.151  1.0716 -1.1741 -0.2845
 3519TIP3   OH232047   5.544   0.162  16.189 -0.7423 -0.0996  0.0329
 3519TIP3    H132048   5.618   0.174  16.248 -1.7710  0.0015  1.3519
 3519TIP3    H232049   5.539   0.245  16.141  2.3494 -1.4384 -2.9802
 3520TIP3   OH232050   6.322   5.862  14.846 -0.3839 -0.3623 -0.7699
 3520TIP3    H132051   6.407   5.821  14.830  0.9529  1.5323  0.9369
 3520TIP3    H232052   6.302   5.911  14.766  0.4626 -0.2771 -0.9294
 3521TIP3   OH232053   1.639   4.773   3.995  0.2279  0.4594  0.2091
 3521TIP3    H132054   1.719   4.819   3.970 -1.2789  2.9035 -0.4829
 3521TIP3    H232055   1.645   4.688   3.951  1.9212  1.0236 -0.7298
 3522TIP3   OH232056   3.840   5.534   3.515  0.3773  0.1432  0.2429
 3522TIP3    H132057   3.758   5.570   3.550 -0.3767 -0.5168 -0.7987
 3522TIP3    H232058   3.901   5.608   3.515 -0.3112  0.7267  0.7127
 3523TIP3   OH232059   5.319   6.794  13.683  0.9040 -0.6626  0.3496
 3523TIP3    H132060   5.314   6.811  13.777  0.1631  0.2088  0.1622
 3523TIP3    H232061   5.337   6.880  13.644 -1.8123 -0.4224 -0.5375
 3524TIP3   OH232062   2.760   5.644  12.212 -0.7785  0.2736  0.2420
 3524TIP3    H132063   2.734   5.608  12.297 -0.3711 -0.7309 -0.0448
 3524TIP3    H232064   2.679   5.676  12.173 -1.2227 -0.6685  0.3646
 3525TIP3   OH232065   6.686   1.931   5.321 -0.1783 -0.0401 -0.1131
 3525TIP3    H132066   6.718   1.939   5.410 -1.3302 -0.8932  0.4015
 3525TIP3    H232067   6.714   2.012   5.278 -1.4235  1.3693  1.6078
 3526TIP3   OH232068   1.383   0.067   4.233  0.0989  0.2907 -0.1900
 3526TIP3    H132069   1.395   0.138   4.170  1.0354 -0.9637 -1.4862
 3526TIP3    H232070   1.462   0.013   4.224  0.2269  0.0086  2.0181
 3527TIP3   OH232071   0.848   2.803   0.031  0.6985  0.2225 -0.5187
 3527TIP3    H132072   0.914   2.753   0.079  0.6992  0.7732  0.0593
 3527TIP3    H232073   0.877   2.894   0.038 -0.1659  0.4772 -0.1846
 3528TIP3   OH232074   4.595   4.520  11.250 -0.5060  1.0540  0.0649
 3528TIP3    H132075   4.511   4.541  11.292 -1.1645 -1.1769 -0.0002
 3528TIP3    H232076   4.606   4.589  11.183 -2.1846  1.5117  0.2003
 3529TIP3   OH232077   2.445   5.634   2.586  0.1844 -0.0179 -0.1865
 3529TIP3    H132078   2.492   5.668   2.510 -0.1120 -1.7907 -1.2037
 3529TIP3    H232079   2.463   5.540   2.585 -2.1843 -0.5193  0.2503
 3530TIP3   OH232080   4.871   6.272  11.159  0.4709  0.0362 -0.7672
 3530TIP3    H132081   4.959   6.294  11.192  0.8668 -1.5179 -0.6686
 3530TIP3    H232082   4.812   6.298  11.230  0.8647  0.8538 -0.7225
 3531TIP3   OH232083   6.767   2.173  11.685  0.3247 -0.4044  0.1095
 3531TIP3    H132084   6.680   2.205  11.664  0.3433 -1.1958 -1.3133
 3531TIP3    H232085   6.826   2.244  11.659  0.2400 -0.7882 -1.2046
 3532TIP3   OH232086   4.970   1.835   3.056  1.3126  0.1418  0.1604
 3532TIP3    H132087   4.895   1.848   3.114  0.6468 -1.1147 -0.3881
 3532TIP3    H232088   4.989   1.923   3.020 -1.3420  0.1648 -1.4239
 3533TIP3   OH232089   0.792   3.398   0.029  0.3648 -0.0390 -0.3498
 3533TIP3    H132090   0.884   3.400   0.005  0.5084 -0.7141  0.0974
 3533TIP3    H232091   0.759   3.485   0.007  0.4270 -0.6143 -3.0937
 3534TIP3   OH232092   0.565   1.034  17.093  0.3960 -0.1331 -0.3690
 3534TIP3    H132093   0.561   0.939  17.091 -0.8668 -0.0937 -1.0027
 3534TIP3    H232094   0.538   1.061  17.005 -0.8964  0.8259  0.2883
 3535TIP3   OH232095   3.856   1.176  15.182  0.0636 -0.2734 -0.5509
 3535TIP3    H132096   3.901   1.135  15.256 -0.3320 -0.6933 -0.5378
 3535TIP3    H232097   3.901   1.260  15.170  0.1607 -0.2186  0.1351
 3536TIP3   OH232098   3.726   0.187   1.857  0.3870  0.0888 -0.9641
 3536TIP3    H132099   3.665   0.113   1.856  0.0647  0.3296  0.0160
 3536TIP3    H232100   3.789   0.167   1.788 -0.5717 -0.3601 -1.7284
 3537TIP3   OH232101   4.104   0.211   5.516 -0.1437 -0.3211 -0.0370
 3537TIP3    H132102   4.034   0.273   5.500 -0.7536 -1.3960 -1.7997
 3537TIP3    H232103   4.184   0.256   5.489 -0.4100  0.1759  0.0074
 3538TIP3   OH232104   2.485   3.843  12.419  0.1991  0.2244  0.1035
 3538TIP3    H132105   2.570   3.866  12.381  1.3417  1.1637  2.8971
 3538TIP3    H232106   2.441   3.928  12.431 -1.1543 -0.2489 -1.2455
 3539TIP3   OH232107   0.719   4.765  11.529  0.3747 -0.0895  0.7820
 3539TIP3    H132108   0.684   4.685  11.567  0.9204 -1.1425 -0.8046
 3539TIP3    H232109   0.713   4.751  11.434  0.1975  1.8851  0.4474
 3540TIP3   OH232110   0.285   0.688  11.909  0.1738 -0.3653 -0.5434
 3540TIP3    H132111   0.358   0.723  11.857  0.9241 -2.3275 -0.9039
 3540TIP3    H232112   0.318   0.605  11.944 -1.2218 -0.3446  0.9482
 3541TIP3   OH232113   4.142   5.163  13.170 -0.2206 -0.4120  0.2514
 3541TIP3    H132114   4.179   5.161  13.082  1.3072 -1.5147  0.8572
 3541TIP3    H232115   4.196   5.227  13.216 -2.0442  1.3678  0.0086
 3542TIP3   OH232116   0.524   2.971   2.356 -0.4097  0.0005 -0.4569
 3542TIP3    H132117   0.446   3.026   2.369  0.7335  1.1057  2.5674
 3542TIP3    H232118   0.579   2.988   2.433  1.6403 -2.7693 -1.1442
 3543TIP3   OH232119   1.506   5.089   4.822 -0.0766 -0.1576  0.1440
 3543TIP3    H132120   1.451   5.142   4.879 -1.1759  0.7897 -1.6913
 3543TIP3    H232121   1.527   5.011   4.874 -1.2798  0.5019  1.6962
 3544TIP3   OH232122   0.159   4.575  15.254 -0.2036 -0.1804 -0.2083
 3544TIP3    H132123   0.127   4.489  15.225 -0.6967 -0.9185  2.3328
 3544TIP3    H232124   0.123   4.636  15.189 -1.7410 -1.6428 -0.8151
 3545TIP3   OH232125   5.212   5.585  12.530  0.3585  0.0127  0.0079
 3545TIP3    H132126   5.221   5.511  12.589  0.8636  0.5616  0.6322
 3545TIP3    H232127   5.197   5.545  12.444  0.0294 -0.7941  0.4306
 3546TIP3   OH232128   2.434   3.283   0.413 -0.3103  0.1739  0.3609
 3546TIP3    H132129   2.379   3.362   0.404 -2.5400 -1.2867  0.3496
 3546TIP3    H232130   2.462   3.263   0.324  1.0974  1.4511  0.4763
 3547TIP3   OH232131   5.786   5.384  11.584  0.1415 -0.0653 -0.3965
 3547TIP3    H132132   5.724   5.325  11.542 -1.6872  0.4027  1.4455
 3547TIP3    H232133   5.739   5.468  11.590  1.5985  0.7912 -0.4219
 3548TIP3   OH232134   4.389   5.420   5.708 -0.5606  0.5559 -0.2940
 3548TIP3    H132135   4.431   5.334   5.717 -0.1058  0.7020 -0.9026
 3548TIP3    H232136   4.394   5.458   5.795 -1.9169 -0.5332  0.3016
 3549TIP3   OH232137   5.765   2.571   5.378 -0.1287  0.3024 -0.4020
 3549TIP3    H132138   5.710   2.495   5.397  0.4188 -0.0564 -0.2507
 3549TIP3    H232139   5.734   2.602   5.293 -1.3937  0.8416  0.2293
 3550TIP3   OH232140   4.097   0.989  12.747  0.0943 -0.3026  0.4754
 3550TIP3    H132141   4.152   1.033  12.812  0.3981 -0.2970  0.2184
 3550TIP3    H232142   4.017   1.042  12.742 -0.1089 -0.5369  1.1497
 3551TIP3   OH232143   6.216   3.395  13.122 -0.6246 -0.0243  0.2148
 3551TIP3    H132144   6.256   3.334  13.184  0.1118  0.5286  0.3085
 3551TIP3    H232145   6.223   3.351  13.037  1.7464  0.7028 -0.0538
 3552TIP3   OH232146   5.183   6.538   1.089 -0.7137  0.0223 -0.1705
 3552TIP3    H132147   5.270   6.511   1.062 -0.3971 -0.2468  1.0803
 3552TIP3    H232148   5.135   6.550   1.007  0.2644 -0.5856 -0.8455
 3553TIP3   OH232149   3.891   2.601  16.852 -0.2969  0.2112 -0.0741
 3553TIP3    H132150   3.818   2.577  16.795  0.9300 -3.1127 -0.4751
 3553TIP3    H232151   3.864   2.570  16.939  0.5718 -0.9892 -0.2161
 3554TIP3   OH232152   2.959   2.030  12.838 -0.4093 -0.2318  0.4482
 3554TIP3    H132153   3.022   2.100  12.818 -0.8094 -0.3448 -1.3831
 3554TIP3    H232154   2.878   2.077  12.861 -0.8333 -0.0304 -1.2935
 3555TIP3   OH232155   5.438   3.891  12.647 -0.1420  0.7958  0.1506
 3555TIP3    H132156   5.485   3.965  12.608 -2.6518  0.7210 -3.5848
 3555TIP3    H232157   5.469   3.814  12.599 -0.3617 -0.0131  1.2587
 3556TIP3   OH232158   3.825   1.363  16.689 -0.4197 -0.2157  0.1635
 3556TIP3    H132159   3.743   1.400  16.722  0.3782  0.7472  1.1392
 3556TIP3    H232160   3.866   1.436  16.643  0.5522 -0.2648  0.9379
 3557TIP3   OH232161   3.387   3.949  16.971  0.1679 -0.0639 -0.0867
 3557TIP3    H132162   3.327   3.927  17.042 -0.5803 -0.2129 -0.7599
 3557TIP3    H232163   3.340   4.011  16.916  0.8909  0.3603 -0.2422
 3558TIP3   OH232164   0.367   2.794   1.330  0.2256  0.5558 -0.3994
 3558TIP3    H132165   0.397   2.835   1.249 -0.5169 -2.4694 -2.3647
 3558TIP3    H232166   0.369   2.700   1.312 -2.2140 -0.1587  2.2890
 3559TIP3   OH232167   0.274   5.385   2.486  0.9153  0.3576  0.0613
 3559TIP3    H132168   0.219   5.374   2.408  1.6934 -1.6807 -0.2642
 3559TIP3    H232169   0.345   5.443   2.458  0.1541  1.1970 -0.1631
 3560TIP3   OH232170   4.202   0.375   3.525  0.1934 -0.1787 -0.2786
 3560TIP3    H132171   4.195   0.288   3.564 -1.4942 -1.4029 -3.0253
 3560TIP3    H232172   4.291   0.379   3.490  0.8262 -0.0822  1.2396
 3561TIP3   OH232173   4.000   5.052   0.696  0.0213 -0.4658 -0.4625
 3561TIP3    H132174   4.083   5.016   0.667  0.1685 -1.5289  1.1277
 3561TIP3    H232175   4.023   5.135   0.738  0.1469 -0.2989 -0.8573
 3562TIP3   OH232176   3.098   6.614  12.087 -0.0823 -0.2298  0.4604
 3562TIP3    H132177   3.051   6.617  12.004 -0.3341  0.4264  0.6225
 3562TIP3    H232178   3.191   6.622  12.062 -0.0171 -1.7179  0.1292
 3563TIP3   OH232179   5.974   3.984  13.667  0.3547 -0.4289 -0.5122
 3563TIP3    H132180   5.937   3.962  13.753 -0.2482 -2.7976 -1.3090
 3563TIP3    H232181   6.049   3.925  13.658  1.4073  0.9249 -0.9773
 3564TIP3   OH232182   5.239   1.715   2.963  0.2144 -0.1411 -0.4311
 3564TIP3    H132183   5.164   1.739   3.017  0.9619 -1.6547  1.3993
 3564TIP3    H232184   5.275   1.638   3.006  2.3579  0.0713 -1.7211
 3565TIP3   OH232185   5.177   2.220  17.131  0.1009 -0.0565 -0.2802
 3565TIP3    H132186   5.120   2.188  17.061 -1.7534 -0.6562  1.4090
 3565TIP3    H232187   5.233   2.145  17.153  0.2990 -0.0399 -0.7172
 3566TIP3   OH232188   4.975   4.272  10.905 -0.0415  0.3231 -0.0367
 3566TIP3    H132189   4.901   4.236  10.857 -0.9627 -0.1541  1.6738
 3566TIP3    H232190   4.941   4.351  10.948  1.0216  1.2935 -0.8914
 3567TIP3   OH232191   3.606   3.141   1.656 -0.1607  0.0117  0.6202
 3567TIP3    H132192   3.540   3.085   1.617  0.3533  0.0448 -0.3350
 3567TIP3    H232193   3.621   3.105   1.743 -1.0985 -0.2631  0.6675
 3568TIP3   OH232194   2.223   1.246   1.859  0.1690  0.5339  0.0791
 3568TIP3    H132195   2.236   1.331   1.817  0.2338  1.4156  1.8079
 3568TIP3    H232196   2.286   1.246   1.931  0.0439 -0.9230  0.2103
 3569TIP3   OH232197   5.618   5.906   1.307  0.2787  0.4567 -0.2436
 3569TIP3    H132198   5.584   5.966   1.240  1.5762  0.5233 -0.8742
 3569TIP3    H232199   5.682   5.959   1.356 -0.8147  0.4779  1.2259
 3570TIP3   OH232200   5.933   4.218  16.907  0.3152 -0.0134 -0.1968
 3570TIP3    H132201   5.932   4.145  16.845 -3.6159  0.0071 -0.3751
 3570TIP3    H232202   5.910   4.179  16.991  0.5883  0.6816  0.2104
 3571TIP3   OH232203   3.688   3.081  11.541  0.1010 -0.1574 -0.1204
 3571TIP3    H132204   3.767   3.028  11.537  1.2894  1.4099  1.3101
 3571TIP3    H232205   3.719   3.171  11.543 -1.7816  0.5673 -0.5421
 3572TIP3   OH232206   4.806   6.662   1.001 -0.4809 -0.2091  0.3261
 3572TIP3    H132207   4.720   6.622   0.990 -0.2512 -1.6255  2.7962
 3572TIP3    H232208   4.794   6.725   1.072  0.5187 -0.4875  0.7619
 3573TIP3   OH232209   3.142   3.712  16.025 -0.1025  0.5740 -0.2392
 3573TIP3    H132210   3.141   3.806  16.042 -0.1964  0.5624 -0.1825
 3573TIP3    H232211   3.232   3.694  15.997  0.4258  0.3871  1.4601
 3574TIP3   OH232212   3.179   3.066   6.214  0.3666  0.2018 -0.0589
 3574TIP3    H132213   3.218   2.989   6.255 -1.1395 -0.3584  0.3753
 3574TIP3    H232214   3.181   3.133   6.283  0.1829  0.0528  0.0905
 3575TIP3   OH232215   5.499   2.355   0.175 -0.2340  0.0793 -0.1836
 3575TIP3    H132216   5.417   2.314   0.150  0.0685 -0.8055  0.2356
 3575TIP3    H232217   5.561   2.282   0.182  0.9536  0.8368 -1.8534
 3576TIP3   OH232218   6.603   3.254   3.563 -0.5576 -0.0149 -0.3406
 3576TIP3    H132219   6.656   3.188   3.607 -0.8744  0.4067  0.7288
 3576TIP3    H232220   6.582   3.217   3.478  0.1727 -0.8229 -0.1752
 3577TIP3   OH232221   0.892   4.206   4.860  0.0275 -0.6802  0.1465
 3577TIP3    H132222   0.899   4.299   4.882 -1.0772 -0.2948 -1.0146
 3577TIP3    H232223   0.914   4.161   4.942  0.9123  0.5821  0.6397
 3578TIP3   OH232224   3.807   4.088   3.668  0.0895  0.3324  0.2938
 3578TIP3    H132225   3.888   4.099   3.716  0.8282 -0.1266 -0.8076
 3578TIP3    H232226   3.793   4.173   3.626  0.2616  0.2665  0.1006
 3579TIP3   OH232227   4.507   5.075  14.564  0.4169  0.6812  0.0271
 3579TIP3    H132228   4.494   5.127  14.485 -0.8798  0.7990  0.3082
 3579TIP3    H232229   4.459   4.994  14.547 -0.2546  0.8886  0.8608
 3580TIP3   OH232230   5.759   5.832  12.671 -0.0200 -0.3608  0.0648
 3580TIP3    H132231   5.832   5.894  12.675  0.7166 -1.2665  2.1681
 3580TIP3    H232232   5.683   5.885  12.649  0.4394  1.5168  2.5295
 3581TIP3   OH232233   3.854   6.720  14.259 -0.4078  0.6270 -0.0749
 3581TIP3    H132234   3.931   6.773  14.238  0.0713  0.7879  1.8744
 3581TIP3    H232235   3.836   6.671  14.179  2.3988 -0.2163 -0.3164
 3582TIP3   OH232236   2.118   5.910   0.780 -0.3407 -0.5182 -0.3202
 3582TIP3    H132237   2.201   5.873   0.752 -0.3699 -0.7750 -0.0765
 3582TIP3    H232238   2.079   5.842   0.836 -0.0497  0.1644  0.7412
 3583TIP3   OH232239   5.762   4.944   0.249  0.4683  0.1465  0.0202
 3583TIP3    H132240   5.858   4.935   0.246  0.4659  0.3188 -1.6500
 3583TIP3    H232241   5.729   4.856   0.232  0.3389  0.1544  0.2310
 3584TIP3   OH232242   2.324   0.307   1.752 -0.2282  0.4602  0.0334
 3584TIP3    H132243   2.406   0.271   1.786  0.2996  2.5251  1.0712
 3584TIP3    H232244   2.258   0.242   1.776  0.9370 -0.7681  0.0542
 3585TIP3   OH232245   6.617   5.410  16.044 -0.3846 -0.1582  0.0080
 3585TIP3    H132246   6.557   5.361  16.099 -0.5139 -1.6522 -1.3781
 3585TIP3    H232247   6.703   5.373  16.064 -0.3185 -0.0752 -0.1181
 3586TIP3   OH232248   0.328   1.048  13.189 -0.2266  0.2195  0.5827
 3586TIP3    H132249   0.246   1.070  13.234 -0.5495  2.3634 -0.9133
 3586TIP3    H232250   0.353   1.128  13.143  2.1328 -0.7191  0.0678
 3587TIP3   OH232251   1.120   4.679  12.423  0.2074 -0.1577  0.1435
 3587TIP3    H132252   1.199   4.730  12.439 -0.3256  0.9840 -0.7523
 3587TIP3    H232253   1.048   4.740  12.437 -0.5240 -1.0605  0.4934
 3588TIP3   OH232254   5.350   4.555  16.585  0.7982  0.3867 -0.0614
 3588TIP3    H132255   5.308   4.474  16.558  0.4948  1.4789 -3.2983
 3588TIP3    H232256   5.321   4.620  16.521  2.0192  2.7959  1.6480
 3589TIP3   OH232257   4.945   4.430  14.332 -0.1892  0.4822 -0.3196
 3589TIP3    H132258   4.852   4.447  14.315 -0.2344 -0.4147 -1.0174
 3589TIP3    H232259   4.991   4.473  14.260  0.0688  2.2743  0.8525
 3590TIP3   OH232260   4.103   0.328  12.886  0.1525 -0.3635  0.0670
 3590TIP3    H132261   4.167   0.365  12.947 -0.4970  0.0395  0.5199
 3590TIP3    H232262   4.057   0.262  12.938 -1.1783  0.7645  0.3926
 3591TIP3   OH232263   2.159   2.412  14.015 -0.4410  1.1607  0.1656
 3591TIP3    H132264   2.112   2.433  14.096  0.6230 -0.1522  1.1780
 3591TIP3    H232265   2.112   2.460  13.947 -2.7820  0.5341  1.2251
 3592TIP3   OH232266   6.142   5.504   4.771  0.1716 -0.4194  0.0774
 3592TIP3    H132267   6.081   5.518   4.844  1.1306  1.7833  0.5171
 3592TIP3    H232268   6.108   5.558   4.700  0.5674 -0.6780 -0.3144
 3593TIP3   OH232269   0.141   0.666  14.228  0.3715 -0.0680  0.2293
 3593TIP3    H132270   0.165   0.649  14.319  0.7164  2.9084  0.8145
 3593TIP3    H232271   0.223   0.660  14.179  0.4660 -0.1930  0.4035
 3594TIP3   OH232272   4.428   0.360  13.307 -0.0529  0.5454  0.2356
 3594TIP3    H132273   4.392   0.283  13.352 -0.3561  1.1094  0.9747
 3594TIP3    H232274   4.486   0.400  13.371  0.4203  0.7079 -0.2935
 3595TIP3   OH232275   5.606   0.975   4.634 -0.4479  0.3700  0.1452
 3595TIP3    H132276   5.553   1.037   4.584  0.3301  1.0983  0.2036
 3595TIP3    H232277   5.657   1.030   4.693  0.4308 -0.3079  0.0346
 3596TIP3   OH232278   4.174   0.850  14.765 -1.2201  0.2389 -0.4047
 3596TIP3    H132279   4.139   0.896  14.689 -0.0884  1.4676 -0.2235
 3596TIP3    H232280   4.242   0.793  14.729 -0.8878  0.5995 -0.3521
 3597TIP3   OH232281   3.966   6.374   2.462 -0.6538 -0.4308  0.5846
 3597TIP3    H132282   3.895   6.347   2.520 -0.6132 -0.3550  0.6705
 3597TIP3    H232283   3.965   6.470   2.466 -1.5893 -0.3616 -0.6740
 3598TIP3   OH232284   4.546   5.877  13.527  0.4023  0.2636 -0.0897
 3598TIP3    H132285   4.508   5.790  13.536 -0.4370  0.7284  1.0457
 3598TIP3    H232286   4.613   5.881  13.595  0.1361  0.6484  0.1547
 3599TIP3   OH232287   4.985   5.613   6.268 -0.1318 -0.6939 -0.1924
 3599TIP3    H132288   4.894   5.609   6.238 -0.0745 -0.4333 -0.4092
 3599TIP3    H232289   4.999   5.530   6.313 -0.5401 -0.6515  0.0179
 3600TIP3   OH232290   3.440   2.480   3.020  0.0153 -0.1659  0.5718
 3600TIP3    H132291   3.511   2.487   3.084  1.2172 -0.4291 -0.7127
 3600TIP3    H232292   3.433   2.568   2.983 -0.0324 -0.2552  0.3720
 3601TIP3   OH232293   5.470   2.018   1.301  0.1754 -0.5516  0.1334
 3601TIP3    H132294   5.439   2.099   1.260  1.6411  0.2079  0.4470
 3601TIP3    H232295   5.501   2.045   1.387  2.2869 -1.0851 -0.3899
 3602TIP3   OH232296   1.660   1.524   0.964  0.2326  0.5508 -0.0196
 3602TIP3    H132297   1.640   1.432   0.982  0.2476  0.6138  0.3429
 3602TIP3    H232298   1.667   1.529   0.869 -1.2821  0.4927 -0.1441
 3603TIP3   OH232299   0.145   4.318  15.127  0.4901 -0.0913  0.3370
 3603TIP3    H132300   0.138   4.230  15.163 -0.0634 -1.5348 -2.9368
 3603TIP3    H232301   0.054   4.343  15.107  0.4803  1.8707  2.4152
 3604TIP3   OH232302   2.035   3.785   0.771 -0.3160 -0.3841  0.1146
 3604TIP3    H132303   2.046   3.697   0.736  1.0614  0.0743 -0.7088
 3604TIP3    H232304   2.056   3.843   0.697 -0.9759  0.6367  0.6999
 3605TIP3   OH232305   5.224   6.316  15.353 -0.0908 -0.2706 -0.0933
 3605TIP3    H132306   5.138   6.346  15.323 -0.8418 -1.3683  0.8978
 3605TIP3    H232307   5.276   6.311  15.273 -1.2881 -0.6674 -0.8843
 3606TIP3   OH232308   1.382   2.212  11.567 -0.2077 -0.2706 -0.0320
 3606TIP3    H132309   1.400   2.209  11.662 -1.0144  1.3837  0.2043
 3606TIP3    H232310   1.381   2.121  11.540 -0.1733 -0.7856  1.6080
 3607TIP3   OH232311   3.304   3.416   0.795  1.1454  0.2057 -0.5802
 3607TIP3    H132312   3.333   3.339   0.746  1.2778 -0.0189 -0.1514
 3607TIP3    H232313   3.371   3.482   0.777  1.9709 -0.3278  0.4486
 3608TIP3   OH232314   2.666   3.557   1.055 -0.3872 -0.1859 -0.1683
 3608TIP3    H132315   2.658   3.463   1.070  1.0340 -0.2334  0.4683
 3608TIP3    H232316   2.757   3.577   1.077  0.5104  0.6764 -3.8489
 3609TIP3   OH232317   2.918   4.070   4.544  0.4699  0.2677  0.9677
 3609TIP3    H132318   2.889   3.986   4.509 -1.8790  0.9906  0.9392
 3609TIP3    H232319   3.013   4.067   4.543  0.4334 -2.2895  0.7606
 3610TIP3   OH232320   3.862   2.982   3.759 -0.5980  0.1211 -0.1026
 3610TIP3    H132321   3.784   2.944   3.717 -0.0360  0.5941 -1.6282
 3610TIP3    H232322   3.842   3.075   3.766 -0.6014  0.0795  0.5390
 3611TIP3   OH232323   0.632   2.120   0.857  0.0057  0.1697 -0.1872
 3611TIP3    H132324   0.644   2.122   0.952  0.4234 -0.4976 -0.2161
 3611TIP3    H232325   0.658   2.031   0.832 -0.3683  0.2545 -0.8899
 3612TIP3   OH232326   1.768   0.765   3.779 -0.2724 -0.1248 -0.4284
 3612TIP3    H132327   1.796   0.844   3.824 -3.4197  0.2174  1.2862
 3612TIP3    H232328   1.764   0.790   3.686  1.2818  0.8628 -0.2589
 3613TIP3   OH232329   2.361   4.251   1.664 -0.2626  0.0723 -0.2403
 3613TIP3    H132330   2.339   4.204   1.745 -0.3343  1.0201  0.3001
 3613TIP3    H232331   2.398   4.334   1.694  1.1598 -0.1952 -1.1669
 3614TIP3   OH232332   4.989   4.029   6.581 -0.4126  0.4491 -0.1254
 3614TIP3    H132333   4.904   4.071   6.571  0.4575  2.0541 -1.2146
 3614TIP3    H232334   5.052   4.095   6.552  1.1708 -0.9203  0.0461
 3615TIP3   OH232335   4.828   3.837  12.971  0.6612 -0.4350 -0.4704
 3615TIP3    H132336   4.816   3.932  12.964 -0.2322 -0.3675  1.4469
 3615TIP3    H232337   4.758   3.800  12.917  0.3896  0.0008 -0.4252
 3616TIP3   OH232338   2.860   2.921   2.651  0.1722  0.4131 -0.2250
 3616TIP3    H132339   2.889   2.866   2.578 -2.1463  0.2111 -1.0675
 3616TIP3    H232340   2.818   2.996   2.610 -1.1896  0.3019  0.8718
 3617TIP3   OH232341   3.335   0.625   3.415  0.1220 -0.5489 -0.3046
 3617TIP3    H132342   3.259   0.569   3.398  0.8653 -2.4755  2.0510
 3617TIP3    H232343   3.325   0.653   3.506  1.8490 -0.2450 -0.1606
 3618TIP3   OH232344   4.942   0.104   0.574  0.1319  0.0752  0.2067
 3618TIP3    H132345   4.887   0.178   0.547  1.0566 -0.2100 -2.9571
 3618TIP3    H232346   5.024   0.143   0.603 -0.5867  0.3642  1.9734
 3619TIP3   OH232347   3.177   3.280   0.987 -0.3798  0.2868  0.4515
 3619TIP3    H132348   3.243   3.289   1.056  0.6456 -0.3287 -0.4297
 3619TIP3    H232349   3.211   3.332   0.914 -0.1698 -1.1547 -0.5024
 3620TIP3   OH232350   0.926   1.491   6.185  0.1587 -0.0862  0.4074
 3620TIP3    H132351   1.021   1.496   6.186  0.3057 -0.2444 -2.7998
 3620TIP3    H232352   0.897   1.583   6.180  0.2626 -0.0876 -0.4109
 3621TIP3   OH232353   4.814   1.968   0.807 -0.5343  0.5623  0.1738
 3621TIP3    H132354   4.770   1.979   0.722 -0.6807 -0.0576  0.1629
 3621TIP3    H232355   4.816   2.056   0.844 -1.6300  0.6469  0.0920
 3622TIP3   OH232356   1.995   4.668   0.662 -0.0209 -0.0888  0.2903
 3622TIP3    H132357   1.902   4.648   0.675  0.1669 -0.2161  1.5467
 3622TIP3    H232358   2.006   4.754   0.703  0.4498 -0.1545  0.3017
 3623TIP3   OH232359   4.583   0.886   2.906 -0.0304 -0.0610  0.1979
 3623TIP3    H132360   4.662   0.859   2.860 -0.0779  0.8442 -0.4449
 3623TIP3    H232361   4.532   0.805   2.915 -0.1723 -0.2364 -1.6759
 3624TIP3   OH232362   5.967   4.647  14.894 -0.4057  0.0180  0.4409
 3624TIP3    H132363   5.871   4.654  14.897 -0.3576  0.4179  1.7815
 3624TIP3    H232364   5.998   4.737  14.906  0.1489 -0.1109  0.0228
 3625TIP3   OH232365   5.855   6.633   2.561  0.1619 -0.1316  0.2489
 3625TIP3    H132366   5.865   6.642   2.656  1.1279 -1.3438  0.2835
 3625TIP3    H232367   5.818   6.717   2.533  2.1077  1.1841  1.3899
 3626TIP3   OH232368   6.287   4.678  16.466  0.2140 -0.3128  0.3019
 3626TIP3    H132369   6.331   4.661  16.382 -2.4914  1.0156 -1.5318
 3626TIP3    H232370   6.322   4.762  16.496 -0.6961  0.5415 -0.9351
 3627TIP3   OH232371   0.753   4.261  14.371 -0.2588 -0.1517  0.0075
 3627TIP3    H132372   0.738   4.353  14.394 -0.1730 -0.6023  2.0899
 3627TIP3    H232373   0.723   4.253  14.281 -0.0613  1.9679 -0.2933
 3628TIP3   OH232374   0.008   6.322  11.125 -0.1764 -0.0945 -0.0081
 3628TIP3    H132375   0.083   6.359  11.078  0.2715 -0.2655  0.5532
 3628TIP3    H232376   0.048   6.269  11.195 -0.7945 -1.2864 -0.5228
 3629TIP3   OH232377   2.597   1.080   5.525  0.2296 -0.0566 -0.0663
 3629TIP3    H132378   2.651   1.158   5.518 -0.9368  0.9361  1.4210
 3629TIP3    H232379   2.659   1.008   5.529  1.4201  0.9729  0.7407
 3630TIP3   OH232380   3.117   0.767  15.573  0.2365  0.2268 -0.0161
 3630TIP3    H132381   3.193   0.806  15.529 -0.8897  1.1498 -1.2208
 3630TIP3    H232382   3.102   0.822  15.649 -0.3231  1.1823 -0.7931
 3631TIP3   OH232383   1.449   2.722  15.748 -0.2373  0.5802 -0.0288
 3631TIP3    H132384   1.410   2.808  15.736  0.0038  0.8183  0.8284
 3631TIP3    H232385   1.458   2.712  15.843 -0.8377 -0.6390 -0.0727
 3632TIP3   OH232386   5.052   3.249   3.914 -0.0446  0.4184  0.0842
 3632TIP3    H132387   5.046   3.242   3.819 -0.8037 -0.2454  0.1701
 3632TIP3    H232388   4.969   3.213   3.946 -0.1761  1.4479  0.9632
 3633TIP3   OH232389   4.919   4.937   5.938 -0.0599  0.6161 -0.3109
 3633TIP3    H132390   4.948   4.846   5.927 -1.7280 -0.1278  1.0459
 3633TIP3    H232391   4.922   4.951   6.033  0.8967  2.2581 -0.5492
 3634TIP3   OH232392   3.526   1.978   1.500 -0.2947 -0.0695 -0.3291
 3634TIP3    H132393   3.454   2.041   1.500  0.1044  0.4721  2.0626
 3634TIP3    H232394   3.588   2.011   1.566  0.1993 -2.6404  0.6202
 3635TIP3   OH232395   5.706   1.871   3.128 -0.1336 -0.5460 -0.5032
 3635TIP3    H132396   5.794   1.838   3.114  0.6124  1.2286 -0.2931
 3635TIP3    H232397   5.649   1.794   3.119  1.5084 -1.9307  0.4091
 3636TIP3   OH232398   1.194   3.819   2.039  0.4529 -0.0323 -0.2943
 3636TIP3    H132399   1.224   3.766   1.965  1.2210  1.5232 -1.1535
 3636TIP3    H232400   1.246   3.789   2.113  1.3958 -0.0069 -0.9269
 3637TIP3   OH232401   0.684   5.361   4.723  0.2905 -0.4524 -0.3839
 3637TIP3    H132402   0.622   5.294   4.753  1.1222 -1.4376 -0.8018
 3637TIP3    H232403   0.746   5.371   4.795  0.7694 -0.9051 -0.7260
 3638TIP3   OH232404   6.085   4.086   4.570  0.1022 -0.5470  0.7694
 3638TIP3    H132405   6.113   4.147   4.501 -1.5949  0.5065  0.9605
 3638TIP3    H232406   6.167   4.056   4.609  1.0418  1.8976  0.8849
 3639TIP3   OH232407   4.166   3.223   1.154  0.5565  0.0894  0.1571
 3639TIP3    H132408   4.245   3.172   1.172  0.0684 -0.7340 -0.0152
 3639TIP3    H232409   4.136   3.253   1.240  0.3655 -0.6328  0.3464
 3640TIP3   OH232410   0.154   5.402  11.305 -0.2463  0.8989 -0.4146
 3640TIP3    H132411   0.136   5.461  11.378  0.2558  2.1628 -1.2739
 3640TIP3    H232412   0.069   5.387  11.264 -0.2644  1.7409 -0.7031
 3641TIP3   OH232413   6.754   5.110   0.338  0.2413  0.5674 -0.0617
 3641TIP3    H132414   6.830   5.057   0.314 -0.6941 -0.7275 -0.2649
 3641TIP3    H232415   6.782   5.200   0.324  2.3077  0.2371  1.4924
 3642TIP3   OH232416   3.541   0.756   6.682  0.1223  0.1308 -0.7094
 3642TIP3    H132417   3.496   0.840   6.689  1.5048  0.8746 -0.4641
 3642TIP3    H232418   3.590   0.762   6.601 -1.1111 -1.1471 -1.6049
 3643TIP3   OH232419   6.297   5.890   2.213  0.2428 -0.4404  0.3282
 3643TIP3    H132420   6.265   5.811   2.170 -0.1141 -0.2033  0.1542
 3643TIP3    H232421   6.390   5.893   2.191  0.4563 -1.2707  1.0412
 3644TIP3   OH232422   0.347   2.049   2.894 -0.2758 -0.5785  0.1927
 3644TIP3    H132423   0.390   2.030   2.978  0.0298 -0.6188  0.0301
 3644TIP3    H232424   0.267   2.096   2.918  0.9268  1.4930  0.4323
 3645TIP3   OH232425   4.531   6.176   3.685  0.2647  0.0120 -0.2883
 3645TIP3    H132426   4.592   6.152   3.754 -0.3601  0.2861  0.3710
 3645TIP3    H232427   4.506   6.266   3.705 -3.4249 -1.2880  1.8358
 3646TIP3   OH232428   1.874   5.492   3.732  0.4195  0.1849  0.4755
 3646TIP3    H132429   1.941   5.541   3.684  0.5780  0.0107  0.5167
 3646TIP3    H232430   1.916   5.409   3.754 -1.1458 -1.8478 -3.2867
 3647TIP3   OH232431   3.582   4.932  14.788  0.5231  0.4359  0.3577
 3647TIP3    H132432   3.513   4.879  14.828  0.8073  0.3869  0.7962
 3647TIP3    H232433   3.540   4.974  14.713  0.0437  0.3249  0.5576
 3648TIP3   OH232434   0.199   3.691  13.386  0.0722 -0.3267 -0.0010
 3648TIP3    H132435   0.121   3.641  13.363 -1.1017  1.9479 -1.3899
 3648TIP3    H232436   0.269   3.652  13.333 -0.5583 -1.1481 -0.2500
 3649TIP3   OH232437   4.592   5.122  14.819 -0.0181 -0.3340  0.0125
 3649TIP3    H132438   4.571   5.088  14.732 -1.0657  1.9212 -0.6824
 3649TIP3    H232439   4.666   5.181  14.805  0.2703 -0.4839  0.8090
 3650TIP3   OH232440   5.979   1.828   3.172  0.0291  0.1321  0.0698
 3650TIP3    H132441   5.943   1.809   3.258  0.3855 -1.3470 -0.0707
 3650TIP3    H232442   6.022   1.746   3.146  0.2677  0.6792 -1.3406
 3651TIP3   OH232443   3.520   4.922  16.957  0.1665  0.6873  0.3556
 3651TIP3    H132444   3.480   4.887  17.037 -0.0892 -1.1209 -0.5144
 3651TIP3    H232445   3.608   4.949  16.984 -0.1005  0.5988  1.3573
 3652TIP3   OH232446   2.082   0.141   4.309 -0.2189  0.0871 -0.2149
 3652TIP3    H132447   2.013   0.098   4.258  0.6884 -0.4058 -1.0624
 3652TIP3    H232448   2.158   0.084   4.298  0.0654  0.0949  1.5212
 3653TIP3   OH232449   0.921   3.331   3.558  0.2804  0.4008  0.9604
 3653TIP3    H132450   0.997   3.388   3.575  1.2966 -0.9334  1.0491
 3653TIP3    H232451   0.955   3.263   3.500 -1.4189  0.9848 -0.8105
 3654TIP3   OH232452   2.968   1.442   4.778  0.4446  0.1817 -0.4092
 3654TIP3    H132453   3.007   1.361   4.811 -1.0364  0.0448  1.1521
 3654TIP3    H232454   3.032   1.475   4.715  2.4428 -0.6857  1.0471
 3655TIP3   OH232455   4.533   2.544  11.918 -0.0420 -0.1115 -0.0492
 3655TIP3    H132456   4.615   2.494  11.920 -0.2558 -0.5350 -0.9545
 3655TIP3    H232457   4.469   2.482  11.883 -0.3396  0.7686 -1.1153
 3656TIP3   OH232458   1.401   2.205   4.892  0.0883  0.4447  0.1000
 3656TIP3    H132459   1.461   2.263   4.938  0.2369  1.7939 -1.6759
 3656TIP3    H232460   1.419   2.118   4.928  1.5190  1.1456  1.1735
 3657TIP3   OH232461   4.450   4.721   2.803 -0.0758 -0.0192  0.8263
 3657TIP3    H132462   4.413   4.645   2.758  1.6592 -0.2789 -0.2603
 3657TIP3    H232463   4.460   4.692   2.894 -0.4088 -0.7276  0.6420
 3658TIP3   OH232464   1.078   2.711   5.371 -0.1654 -0.1897 -0.2982
 3658TIP3    H132465   1.133   2.781   5.407 -2.0899  2.6085 -2.3577
 3658TIP3    H232466   1.118   2.689   5.287  0.0474 -1.1001  0.0327
 3659TIP3   OH232467   6.044   6.422   5.079  0.1633  0.0885 -0.3532
 3659TIP3    H132468   5.989   6.386   5.010  0.5997  0.1875 -0.7579
 3659TIP3    H232469   5.983   6.463   5.140 -0.3238 -1.0244 -0.0597
 3660TIP3   OH232470   0.063   3.927   1.230  0.0362 -0.9831 -0.4583
 3660TIP3    H132471   0.064   3.840   1.271 -1.3995 -0.1918  1.3843
 3660TIP3    H232472   0.070   3.909   1.136 -0.2904 -3.1042 -0.1233
 3661TIP3   OH232473   2.911   1.986   0.504  0.0101  0.9875  1.0061
 3661TIP3    H132474   2.864   2.017   0.582 -0.5595  0.7329  0.7750
 3661TIP3    H232475   2.844   1.938   0.455  0.4704  0.8056  0.5601
 3662TIP3   OH232476   5.862   0.494  16.088 -0.2571  0.3675  0.5086
 3662TIP3    H132477   5.774   0.530  16.077  0.0787  1.4042  1.1035
 3662TIP3    H232478   5.899   0.495  16.000 -0.6760  0.3460  0.3258
 3663TIP3   OH232479   1.709   3.690  12.103 -0.8859 -0.2884  0.0380
 3663TIP3    H132480   1.762   3.610  12.114  0.1132  0.5040  1.2383
 3663TIP3    H232481   1.773   3.757  12.079 -1.7239  0.1801 -0.9830
 3664TIP3   OH232482   4.191   4.551  15.822  0.4717 -0.1351 -0.3158
 3664TIP3    H132483   4.204   4.531  15.729 -0.7210  0.6432 -0.6785
 3664TIP3    H232484   4.101   4.582  15.827 -0.2749 -2.3321  1.4971
 3665TIP3   OH232485   1.369   0.706   4.887 -0.5150  0.3922  0.0687
 3665TIP3    H132486   1.425   0.779   4.912 -0.2321  0.2820 -0.2356
 3665TIP3    H232487   1.304   0.700   4.957 -0.1165  0.4866  0.4450
 3666TIP3   OH232488   2.017   6.482   3.949 -0.3389  0.6026 -0.0976
 3666TIP3    H132489   2.081   6.451   3.884 -0.0865  0.4566  0.2208
 3666TIP3    H232490   2.048   6.446   4.032  0.6028  2.6006  0.4881
 3667TIP3   OH232491   0.446   1.181  16.122  0.1200  0.1890  0.5899
 3667TIP3    H132492   0.463   1.273  16.102 -1.0679  0.3858  0.4069
 3667TIP3    H232493   0.490   1.132  16.052  1.0906  0.5844  0.9103
 3668TIP3   OH232494   4.910   3.740   3.039 -0.3370 -0.3848  0.5192
 3668TIP3    H132495   4.844   3.672   3.050 -0.7544  0.1170  1.1644
 3668TIP3    H232496   4.860   3.820   3.021  0.1451 -0.2328 -0.1867
 3669TIP3   OH232497   1.075   2.740  16.636  0.1840  0.5559 -1.0697
 3669TIP3    H132498   1.042   2.735  16.726 -0.9212 -0.0149 -1.5012
 3669TIP3    H232499   0.997   2.742  16.581  0.8378 -0.6635 -2.0955
 3670TIP3   OH232500   3.993   5.143  11.441 -0.1582  0.2626  0.2372
 3670TIP3    H132501   4.021   5.180  11.357 -0.5682  0.3201  0.1258
 3670TIP3    H232502   3.990   5.048  11.426 -0.2073  0.2710  0.1945
 3671TIP3   OH232503   5.867   6.524   2.799  0.3606 -0.2803  0.3168
 3671TIP3    H132504   5.957   6.524   2.765  0.4970  0.4351  0.6354
 3671TIP3    H232505   5.851   6.434   2.825  0.9616 -0.4366  0.1706
 3672TIP3   OH232506   2.074   1.062   2.887 -0.7341 -0.1534 -0.1904
 3672TIP3    H132507   2.157   1.107   2.900 -0.6656 -0.6680  1.4495
 3672TIP3    H232508   2.007   1.125   2.913 -0.8046 -0.0370 -0.6528
 3673TIP3   OH232509   5.791   1.446  14.041 -0.7479 -0.0608 -0.5004
 3673TIP3    H132510   5.743   1.529  14.039 -0.7166  0.0319  1.3418
 3673TIP3    H232511   5.881   1.471  14.018 -0.4111  0.7036  1.4754
 3674TIP3   OH232512   1.310   5.743  15.920  0.2356 -0.5414 -0.0990
 3674TIP3    H132513   1.261   5.685  15.978 -1.3557 -0.4186 -1.2526
 3674TIP3    H232514   1.374   5.785  15.977 -1.0082 -0.7153  1.4960
 3675TIP3   OH232515   0.310   1.282  13.741  0.2774 -0.0037  0.3405
 3675TIP3    H132516   0.332   1.189  13.737 -0.3142 -0.3272  3.0200
 3675TIP3    H232517   0.395   1.326  13.738  0.6789 -0.7258  0.6934
 3676TIP3   OH232518   2.780   4.725   5.437 -0.0218  0.2234  0.3650
 3676TIP3    H132519   2.739   4.656   5.489  0.1982  0.7211  1.2341
 3676TIP3    H232520   2.766   4.699   5.346 -0.4044 -0.6845  0.6718
 3677TIP3   OH232521   1.486   3.275  15.803  0.1241 -0.6795 -1.0733
 3677TIP3    H132522   1.525   3.196  15.765  0.3407 -1.2456  0.2883
 3677TIP3    H232523   1.486   3.259  15.897 -0.6965  0.5607 -0.8449
 3678TIP3   OH232524   3.009   3.829  11.258 -0.1322 -0.5674 -0.2523
 3678TIP3    H132525   2.930   3.775  11.256 -0.2855 -0.3429 -1.7709
 3678TIP3    H232526   3.064   3.792  11.188 -0.2096  1.1654 -1.2754
 3679TIP3   OH232527   1.135   0.450  11.152  0.1879  0.3317  0.2351
 3679TIP3    H132528   1.187   0.370  11.150 -0.6033 -0.2382  1.7410
 3679TIP3    H232529   1.061   0.431  11.209  0.6276  2.5134  1.6850
 3680TIP3   OH232530   1.695   6.301   1.421  0.2930 -0.0009 -0.3318
 3680TIP3    H132531   1.738   6.303   1.507  1.2592  1.1201 -0.8109
 3680TIP3    H232532   1.757   6.256   1.364 -0.8037 -1.7148 -0.2522
 3681TIP3   OH232533   0.373   2.008   2.598 -0.2801  0.6024 -0.6465
 3681TIP3    H132534   0.416   1.926   2.573 -1.0611  0.1865 -0.6638
 3681TIP3    H232535   0.345   1.995   2.688 -0.9864  0.5888 -0.8546
 3682TIP3   OH232536   1.782   4.888   0.325 -0.7148 -0.0916  0.6505
 3682TIP3    H132537   1.803   4.942   0.401 -1.0133  0.7285  0.1581
 3682TIP3    H232538   1.724   4.820   0.360  0.5250 -0.7550  1.4808
 3683TIP3   OH232539   4.000   1.450  15.435 -0.0011 -0.0743  0.3574
 3683TIP3    H132540   4.039   1.428  15.350  0.9928 -1.6028  1.1798
 3683TIP3    H232541   3.912   1.414  15.431  0.9677 -2.7383  0.9635
 3684TIP3   OH232542   0.003   4.539   2.504  0.2289  0.3831  0.0945
 3684TIP3    H132543  -0.091   4.549   2.488  0.2825  2.3314  0.6882
 3684TIP3    H232544   0.012   4.543   2.599  0.7985 -1.4045  0.1516
 3685TIP3   OH232545   5.256   5.929   3.593  0.3317  0.6683 -0.1913
 3685TIP3    H132546   5.270   5.973   3.677 -0.5567 -1.6148  1.2296
 3685TIP3    H232547   5.278   5.838   3.609 -4.3700 -0.9024 -0.9312
 3686TIP3   OH232548   4.810   1.560   4.731 -0.4313 -0.2152  0.6058
 3686TIP3    H132549   4.901   1.569   4.756 -0.4217  0.4938  0.3342
 3686TIP3    H232550   4.809   1.575   4.637 -0.8557  0.0162  0.6421
 3687TIP3   OH232551   2.489   6.619  15.449 -0.2995  0.2459  0.1984
 3687TIP3    H132552   2.491   6.707  15.411  0.6988  0.0027 -0.3650
 3687TIP3    H232553   2.419   6.573  15.402 -0.8130  0.7242  0.4854
 3688TIP3   OH232554   5.958   1.986   6.128 -0.1812  0.8398  0.1631
 3688TIP3    H132555   5.970   2.074   6.093 -0.8452  0.5510 -0.8471
 3688TIP3    H232556   5.989   1.928   6.058  1.1911  0.2693  1.2098
 3689TIP3   OH232557   3.101   6.424  14.821 -0.2728  0.1264  0.4127
 3689TIP3    H132558   3.085   6.356  14.756 -0.0647  0.8776 -0.4400
 3689TIP3    H232559   3.068   6.387  14.903 -1.4937 -0.4304 -0.3113
 3690TIP3   OH232560   4.656   6.535   0.455 -0.1325 -0.2531  0.0365
 3690TIP3    H132561   4.563   6.517   0.458 -0.5680  1.4816 -1.2880
 3690TIP3    H232562   4.684   6.538   0.547 -1.5741  0.1595  0.4759
 3691TIP3   OH232563   2.139   1.980   2.636  0.2762  0.3702 -0.5715
 3691TIP3    H132564   2.123   1.909   2.575  0.7060 -0.7323  0.5655
 3691TIP3    H232565   2.087   2.053   2.602 -1.1727 -0.8493 -1.0808
 3692TIP3   OH232566   6.117   0.785   1.057  0.1294  0.5788 -0.0628
 3692TIP3    H132567   6.130   0.845   0.983  0.0540 -0.1756 -0.7022
 3692TIP3    H232568   6.034   0.740   1.037 -0.8819  1.6853  1.4160
 3693TIP3   OH232569   6.001   2.939  13.895 -0.0379  1.1914 -0.5819
 3693TIP3    H132570   6.078   2.977  13.937 -0.5743  1.5810  0.0731
 3693TIP3    H232571   5.927   2.991  13.929 -0.4840  1.5782 -2.0782
 3694TIP3   OH232572   0.698   5.093   0.577 -0.3383 -0.1554 -0.4088
 3694TIP3    H132573   0.610   5.130   0.568 -1.7294 -2.9850  0.3915
 3694TIP3    H232574   0.688   5.000   0.557  2.4681 -0.6044 -0.1827
 3695TIP3   OH232575   3.982   0.134  11.942  0.8128  0.7186 -0.3751
 3695TIP3    H132576   4.018   0.047  11.924 -0.5480  0.4485 -2.0092
 3695TIP3    H232577   4.044   0.194  11.902  1.6000  0.5041  0.4904
 3696TIP3   OH232578   6.001   3.482   1.466 -0.1783  0.2654  0.1608
 3696TIP3    H132579   6.050   3.564   1.466  0.5544 -0.1457  1.0601
 3696TIP3    H232580   5.956   3.482   1.551  0.3348 -0.5383  0.4413
 3697TIP3   OH232581   2.560   4.057  16.648  0.7095  0.0047 -0.2445
 3697TIP3    H132582   2.655   4.051  16.638  0.9604 -1.2441  1.9975
 3697TIP3    H232583   2.525   4.029  16.564  2.3532 -1.6564 -0.4512
 3698TIP3   OH232584   6.522   4.250   6.387  0.0374  0.3191  0.2657
 3698TIP3    H132585   6.431   4.272   6.367  0.3983  1.3172 -0.3913
 3698TIP3    H232586   6.518   4.165   6.429 -1.1982  0.3277  0.1993
 3699TIP3   OH232587   0.411   3.232  13.222  0.1021 -0.4490 -0.4741
 3699TIP3    H132588   0.473   3.166  13.254  0.4672  0.1819  0.1750
 3699TIP3    H232589   0.457   3.315  13.234 -1.0492  0.0913  0.5207
 3700TIP3   OH232590   3.513   0.498   3.940 -0.4833 -0.4068 -0.0611
 3700TIP3    H132591   3.567   0.568   3.906 -1.2908  1.4170  2.1554
 3700TIP3    H232592   3.423   0.524   3.919 -0.8457 -0.2820  1.4922
 3701TIP3   OH232593   3.553   4.140   2.862 -0.3878  0.0689 -0.2333
 3701TIP3    H132594   3.482   4.203   2.876 -0.3606 -0.1931  1.2430
 3701TIP3    H232595   3.628   4.193   2.835 -0.2781  0.7353  1.2794
 3702TIP3   OH232596   5.649   2.921   2.631 -0.3742  0.6733  0.3012
 3702TIP3    H132597   5.595   2.895   2.706 -2.4902 -0.2138 -1.4245
 3702TIP3    H232598   5.587   2.927   2.558  1.7673  0.2766 -1.6604
 3703TIP3   OH232599   0.908   1.250  12.595 -0.0521  0.1567  0.2047
 3703TIP3    H132600   0.919   1.176  12.654  2.6683 -0.1028 -0.4782
 3703TIP3    H232601   0.814   1.257  12.581 -0.4822 -2.1212  1.5832
 3704TIP3   OH232602   5.368   3.782   4.115 -0.1411  0.0023  0.0152
 3704TIP3    H132603   5.419   3.706   4.141 -0.4107 -0.9742 -2.1047
 3704TIP3    H232604   5.278   3.749   4.109 -0.3795  0.6798 -0.1995
 3705TIP3   OH232605   1.908   2.278   4.340 -0.0952  0.0296 -1.1770
 3705TIP3    H132606   1.936   2.289   4.430  1.5429 -0.3126 -1.6143
 3705TIP3    H232607   1.876   2.188   4.335  2.1346 -0.8096 -1.4661
 3706TIP3   OH232608   4.919   6.341   5.720  0.7768 -0.1654 -0.5525
 3706TIP3    H132609   5.006   6.322   5.755  0.8530  2.4702  0.9447
 3706TIP3    H232610   4.861   6.280   5.765  1.5269 -0.1290  0.4830
 3707TIP3   OH232611   4.188   5.835   5.679 -0.3831  0.5023  0.2890
 3707TIP3    H132612   4.172   5.741   5.688 -2.4437  0.4356 -2.6404
 3707TIP3    H232613   4.117   5.877   5.727 -1.0215  0.4639 -0.5906
 3708TIP3   OH232614   3.701   4.478  13.384  0.3145  0.1049 -0.3015
 3708TIP3    H132615   3.663   4.487  13.297 -1.9532  2.0336  0.7915
 3708TIP3    H232616   3.788   4.517  13.376  0.3158 -0.1621 -1.7952
 3709TIP3   OH232617   2.341   2.617   1.494 -0.2335 -0.0349 -0.1695
 3709TIP3    H132618   2.307   2.634   1.581 -1.6223  3.1186 -1.1816
 3709TIP3    H232619   2.423   2.570   1.509 -0.3249  0.5679  2.8179
 3710TIP3   OH232620   6.248   0.846   2.084  1.0542  0.2886  0.2495
 3710TIP3    H132621   6.210   0.892   2.159 -0.3323 -1.0638  0.4286
 3710TIP3    H232622   6.289   0.915   2.032 -1.1878  1.8234  0.3425
 3711TIP3   OH232623   2.470   3.092   2.491  0.4954 -0.2429  0.4944
 3711TIP3    H132624   2.396   3.081   2.551 -1.8205  2.8060 -1.4978
 3711TIP3    H232625   2.498   3.002   2.471 -0.0874 -1.4343  4.1666
 3712TIP3   OH232626   6.138   3.449  15.294  0.2944  0.5944  0.1930
 3712TIP3    H132627   6.082   3.374  15.272  1.1856  0.2944 -1.1402
 3712TIP3    H232628   6.114   3.470  15.384  0.0336 -1.3171  0.6220
 3713TIP3   OH232629   5.361   5.021   1.854 -0.9731 -0.7190 -0.3721
 3713TIP3    H132630   5.309   5.010   1.933  1.1160 -0.3428  1.1311
 3713TIP3    H232631   5.416   4.942   1.850 -0.1915 -0.1671 -0.7435
 3714TIP3   OH232632   1.054   6.446   3.916 -0.8033 -0.7269  0.3334
 3714TIP3    H132633   0.979   6.426   3.971 -1.2605 -0.2870 -0.1220
 3714TIP3    H232634   1.051   6.541   3.903 -1.1779 -0.9064 -1.0952
 3715TIP3   OH232635   0.619   4.937  13.579 -0.5694 -0.0946  0.1042
 3715TIP3    H132636   0.607   4.904  13.668 -2.4641  1.1698  0.3680
 3715TIP3    H232637   0.533   4.929  13.539  0.1545 -0.2398 -1.5001
 3716TIP3   OH232638   2.957   6.497  16.344 -0.3439  0.1372 -0.1840
 3716TIP3    H132639   2.865   6.475  16.356 -0.3878  0.2352 -0.3434
 3716TIP3    H232640   2.959   6.593  16.346 -0.2621  0.1375 -0.3046
 3717TIP3   OH232641   6.741   0.808   1.562  0.2257  0.0082 -0.3545
 3717TIP3    H132642   6.789   0.746   1.618  1.2125 -0.6288 -1.8497
 3717TIP3    H232643   6.799   0.884   1.556  0.7586 -0.4817 -1.6025
 3718TIP3   OH232644   2.537   5.508   5.272 -0.3352  0.5351 -0.0157
 3718TIP3    H132645   2.506   5.560   5.346  1.3703  0.7947  0.5723
 3718TIP3    H232646   2.632   5.525   5.270 -0.0401 -1.0767 -0.9853
 3719TIP3   OH232647   5.502   6.677  12.171 -0.1714  0.2237  0.4137
 3719TIP3    H132648   5.534   6.590  12.147 -0.9168  0.5353 -1.9237
 3719TIP3    H232649   5.407   6.672  12.161 -0.0981  1.8218 -1.8842
 3720TIP3   OH232650   2.663   6.223  11.373  0.1699  0.4857  0.1515
 3720TIP3    H132651   2.630   6.136  11.395  1.1917 -0.0668 -0.4212
 3720TIP3    H232652   2.681   6.219  11.279  2.6510  0.4510  0.5589
 3721TIP3   OH232653   1.660   0.701  14.667  0.2047  0.5728  0.2676
 3721TIP3    H132654   1.615   0.703  14.583 -0.2516 -1.4795  0.4062
 3721TIP3    H232655   1.591   0.686  14.732  0.6384  1.3564  0.9283
 3722TIP3   OH232656   2.172   6.588   4.833 -0.0021  0.4477  0.3754
 3722TIP3    H132657   2.231   6.651   4.791  1.9879 -0.2564  1.9737
 3722TIP3    H232658   2.230   6.529   4.880 -1.8930 -1.7033  0.1636
 3723TIP3   OH232659   3.857   0.236  11.203  0.7654 -0.0122 -0.6184
 3723TIP3    H132660   3.951   0.255  11.209  0.8583  0.5608 -2.8413
 3723TIP3    H232661   3.827   0.288  11.128 -1.3466 -0.1651  0.0477
 3724TIP3   OH232662   4.206   1.005  15.696  0.1777  0.1071 -0.6471
 3724TIP3    H132663   4.244   1.092  15.696 -0.2317  0.2977 -1.4728
 3724TIP3    H232664   4.169   0.994  15.784  0.6923  0.5526 -0.3733
 3725TIP3   OH232665   3.849   0.553  15.231  0.2195 -0.1957  0.1212
 3725TIP3    H132666   3.879   0.628  15.282 -1.2865 -0.0198  0.8024
 3725TIP3    H232667   3.824   0.488  15.296 -0.2757 -0.5584 -0.4183
 3726TIP3   OH232668   2.800   1.394   5.812  0.2718 -0.1006  0.2434
 3726TIP3    H132669   2.808   1.308   5.772  0.9799 -0.2580  0.7012
 3726TIP3    H232670   2.889   1.417   5.838 -0.1805 -0.1281  1.9586
 3727TIP3   OH232671   2.837   1.024  17.034 -0.0790 -0.1108  0.3566
 3727TIP3    H132672   2.905   0.961  17.014 -1.4091 -1.1852 -0.9962
 3727TIP3    H232673   2.795   0.990  17.114 -1.8942 -1.9973 -1.2838
 3728TIP3   OH232674   0.276   5.430  14.915 -0.3657 -0.2797  0.2020
 3728TIP3    H132675   0.274   5.335  14.928  0.3978 -0.2289  0.7598
 3728TIP3    H232676   0.199   5.463  14.962 -0.2171 -0.5546  0.6420
 3729TIP3   OH232677   0.388   4.529  14.742 -0.0764  0.3722 -0.4023
 3729TIP3    H132678   0.465   4.583  14.728  0.3109 -0.1883 -0.4510
 3729TIP3    H232679   0.355   4.555  14.828 -0.4500  1.3583 -0.8232
 3730TIP3   OH232680   3.756   3.431  15.050 -0.1510 -0.0118  0.4990
 3730TIP3    H132681   3.671   3.395  15.025  0.6138 -0.0649 -2.3008
 3730TIP3    H232682   3.761   3.515  15.005  0.9006  0.4370  1.4060
 3731TIP3   OH232683   1.587   6.766   5.239 -0.0541  0.0581 -0.6179
 3731TIP3    H132684   1.517   6.828   5.218 -0.3017 -0.0576 -0.1596
 3731TIP3    H232685   1.629   6.748   5.156 -0.5750  0.1277 -0.9027
 3732TIP3   OH232686   2.074   6.213   6.598  0.2141 -0.5698 -0.4614
 3732TIP3    H132687   2.047   6.233   6.509  1.3065  0.4578 -0.5940
 3732TIP3    H232688   2.097   6.120   6.596  0.1862 -0.5649 -1.2379
 3733TIP3   OH232689   6.122   5.511   4.060 -0.2610 -0.1024  0.2509
 3733TIP3    H132690   6.096   5.419   4.065 -0.7352  0.0356  0.3164
 3733TIP3    H232691   6.208   5.513   4.102 -0.3434 -0.4761  0.4419
 3734TIP3   OH232692   6.482   1.530  14.575  0.2675 -0.2665  0.4381
 3734TIP3    H132693   6.491   1.613  14.622  1.3632 -0.3528  0.4058
 3734TIP3    H232694   6.564   1.522  14.525 -0.1000 -1.0598 -0.0573
 3735TIP3   OH232695   1.683   1.099  11.637 -0.4667  0.2882 -0.0844
 3735TIP3    H132696   1.663   1.030  11.574 -2.6306 -0.4775  1.3580
 3735TIP3    H232697   1.752   1.062  11.692  0.9147  0.6883 -1.4740
 3736TIP3   OH232698   4.124   6.514   5.930  0.0533 -0.3873  0.1339
 3736TIP3    H132699   4.091   6.531   6.018  1.5732 -2.4342  1.2076
 3736TIP3    H232700   4.202   6.570   5.922 -2.0508  2.5909 -1.4536
 3737TIP3   OH232701   1.843   4.578   1.380 -0.0823 -0.0763  0.3223
 3737TIP3    H132702   1.905   4.550   1.447  1.8032  2.5993 -0.1265
 3737TIP3    H232703   1.788   4.643   1.423  0.1584  0.5489 -0.2791
 3738TIP3   OH232704   4.269   0.341   5.070  0.7205  0.1722  0.1944
 3738TIP3    H132705   4.265   0.395   5.149  0.2661  0.4439 -0.0139
 3738TIP3    H232706   4.330   0.271   5.093  0.3537  0.0683  0.8985
 3739TIP3   OH232707   6.259   0.881   6.249 -0.5709  0.4319 -0.4162
 3739TIP3    H132708   6.266   0.861   6.342 -1.3597  0.4368 -0.3436
 3739TIP3    H232709   6.311   0.961   6.237 -0.4748  0.4362  0.0269
 3740TIP3   OH232710   3.703   2.580  11.051 -0.0460  0.4473  0.3185
 3740TIP3    H132711   3.727   2.564  11.142  1.0609 -0.5982 -0.1309
 3740TIP3    H232712   3.654   2.662  11.054  0.6269  0.8452  1.7640
 3741TIP3   OH232713   5.922   2.912  14.911 -0.5384 -0.4294  0.2325
 3741TIP3    H132714   5.958   2.960  14.985  1.1340 -1.9336  0.4667
 3741TIP3    H232715   5.827   2.923  14.918 -0.2832  1.5954  1.0666
 3742TIP3   OH232716   0.069   5.543   4.540  0.4754 -0.2414  0.2432
 3742TIP3    H132717   0.145   5.598   4.523  0.7339 -1.1984 -2.0648
 3742TIP3    H232718   0.096   5.455   4.512 -1.0813 -0.8262  0.4739
 3743TIP3   OH232719   2.412   4.062  16.399  0.2063  0.1284  0.6178
 3743TIP3    H132720   2.338   4.123  16.403  0.0786 -0.0165  0.5336
 3743TIP3    H232721   2.383   3.988  16.452  0.8716  0.6768  1.7664
 3744TIP3   OH232722   1.107   2.884  17.129 -0.3941  0.3173 -0.5142
 3744TIP3    H132723   1.141   2.902  17.217  0.4234  0.1504 -0.7896
 3744TIP3    H232724   1.172   2.923  17.070 -0.5961 -0.1552 -1.0509
 3745TIP3   OH232725   4.043   6.407  12.089  0.5528 -0.3179  0.3002
 3745TIP3    H132726   4.127   6.417  12.135  0.8275 -1.3239  0.0426
 3745TIP3    H232727   3.997   6.340  12.138  0.2247 -0.3289 -0.0214
 3746TIP3   OH232728   5.874   1.762  11.576  0.3255  0.2197  0.3010
 3746TIP3    H132729   5.790   1.798  11.605 -0.0840 -1.9084  1.9837
 3746TIP3    H232730   5.939   1.804  11.632  0.2736  0.9689 -0.1850
 3747TIP3   OH232731   2.987   1.366  13.293  0.2184  0.3257 -0.2228
 3747TIP3    H132732   3.020   1.455  13.307 -1.6773  0.8556  1.2767
 3747TIP3    H232733   2.908   1.377  13.241 -0.2752 -0.4156  0.3432
 3748TIP3   OH232734   1.778   0.272   2.037 -0.0516  0.3846  0.1001
 3748TIP3    H132735   1.834   0.195   2.048  1.5264  1.4637  0.0390
 3748TIP3    H232736   1.740   0.262   1.949 -0.7200 -0.8242  0.5062
 3749TIP3   OH232737   1.064   1.434  12.265  0.0538  0.0954 -0.2678
 3749TIP3    H132738   1.019   1.350  12.252 -0.1885  0.3422 -1.0461
 3749TIP3    H232739   1.004   1.499  12.230 -0.2423  0.7234  1.3094
 3750TIP3   OH232740   3.106   3.071   2.502  0.0501 -0.3911  0.5689
 3750TIP3    H132741   3.079   3.053   2.593 -0.2667 -0.4699  0.4617
 3750TIP3    H232742   3.062   3.153   2.480 -0.4877 -0.7604  0.2357
 3751TIP3   OH232743   0.011   0.651   1.363  0.2516  0.5013 -0.7146
 3751TIP3    H132744   0.010   0.700   1.445  0.1775  0.5016 -0.7149
 3751TIP3    H232745  -0.067   0.682   1.316 -1.3728 -1.5967  0.4594
 3752TIP3   OH232746   5.450   1.998   2.358  0.5841  0.1913 -0.1650
 3752TIP3    H132747   5.423   1.957   2.276  3.3964 -2.4622  0.0354
 3752TIP3    H232748   5.399   1.951   2.425  0.1843  0.5164 -0.2426
 3753TIP3   OH232749   4.083   4.115   3.094  0.1050 -0.0533  0.0161
 3753TIP3    H132750   4.029   4.045   3.133  0.9828 -0.4948  0.4759
 3753TIP3    H232751   4.062   4.112   3.001  0.6984 -1.4824 -0.1107
 3754TIP3   OH232752   3.158   3.646   4.518  0.4434 -0.0250  0.1023
 3754TIP3    H132753   3.081   3.688   4.558  0.8574 -0.9684  2.0489
 3754TIP3    H232754   3.121   3.584   4.456 -0.3856 -0.2472  0.7935
 3755TIP3   OH232755   0.506   6.068  13.856  0.4278  0.3895  0.0092
 3755TIP3    H132756   0.590   6.033  13.826 -0.6276 -2.2393 -0.1534
 3755TIP3    H232757   0.492   6.147  13.804  1.6296 -0.5354 -1.7775
 3756TIP3   OH232758   4.366   6.167  15.512 -0.2093  0.2622 -0.2623
 3756TIP3    H132759   4.304   6.141  15.444 -0.6681  0.3020  0.1335
 3756TIP3    H232760   4.341   6.256  15.534  0.9139  0.8034 -1.1168
 3757TIP3   OH232761   1.671   5.510   6.138  0.1148 -0.1909 -0.3636
 3757TIP3    H132762   1.713   5.424   6.152 -1.2837 -0.8525 -0.0685
 3757TIP3    H232763   1.739   5.563   6.097  1.2447 -1.2248  0.1039
 3758TIP3   OH232764   3.995   4.482   6.194 -0.0432 -0.0580  0.0247
 3758TIP3    H132765   3.999   4.388   6.213 -1.0608  0.0949  1.1555
 3758TIP3    H232766   4.085   4.512   6.200  0.0620 -0.6139  1.7301
 3759TIP3   OH232767   0.488   2.657  12.091  0.3100  0.0498 -0.3449
 3759TIP3    H132768   0.550   2.726  12.116  0.7216 -0.5650  0.3982
 3759TIP3    H232769   0.542   2.591  12.048  0.1501 -0.4091  0.1451
 3760TIP3   OH232770   5.942   4.960  15.599 -0.1824 -0.3131  0.1796
 3760TIP3    H132771   5.992   4.891  15.643 -1.4603 -1.4733 -0.1267
 3760TIP3    H232772   5.877   4.988  15.663  0.8351  1.2583  0.6072
 3761TIP3   OH232773   3.645   3.619   4.043 -0.2854  0.0747  0.1115
 3761TIP3    H132774   3.665   3.559   4.115  1.7557  0.4312 -0.1150
 3761TIP3    H232775   3.576   3.675   4.078 -0.0968 -0.4511  1.4009
 3762TIP3   OH232776   0.014   1.118  11.989  0.0663 -0.8472  0.0701
 3762TIP3    H132777   0.078   1.054  12.023  0.4707 -0.4495  0.0687
 3762TIP3    H232778  -0.007   1.173  12.065 -0.0379 -0.7812 -0.0068
 3763TIP3   OH232779   5.804   2.383   3.579  0.4313  0.5363  0.5190
 3763TIP3    H132780   5.762   2.341   3.503 -0.8462  0.3087  1.3150
 3763TIP3    H232781   5.898   2.371   3.565  0.2618  1.0703 -1.3528
 3764TIP3   OH232782   3.397   1.729  14.985 -0.2111  0.1755  0.1785
 3764TIP3    H132783   3.450   1.803  15.016  0.0097  0.1095 -0.0478
 3764TIP3    H232784   3.355   1.762  14.905  0.2315 -0.0925 -0.1644
 3765TIP3   OH232785   2.886   5.021   0.893 -0.3823  0.5876  0.3242
 3765TIP3    H132786   2.803   5.049   0.855 -0.2991 -0.5394 -0.7530
 3765TIP3    H232787   2.953   5.068   0.844 -0.3183 -0.0982 -0.2711
 3766TIP3   OH232788   2.454   4.959  16.475  0.4549 -0.4228  0.6965
 3766TIP3    H132789   2.429   4.978  16.566  0.8374 -0.4862  0.8146
 3766TIP3    H232790   2.405   4.879  16.453 -0.0508 -0.1079  0.6669
 3767TIP3   OH232791   5.538   3.994  14.156  0.0816  0.0163  0.0811
 3767TIP3    H132792   5.466   4.054  14.139  0.6054  0.8541  0.7147
 3767TIP3    H232793   5.497   3.910  14.173 -0.7394  0.4667  0.3549
 3768TIP3   OH232794   5.155   5.763   2.265 -0.3331 -0.0675  0.1411
 3768TIP3    H132795   5.092   5.739   2.197  0.9741  0.2207 -1.2203
 3768TIP3    H232796   5.118   5.842   2.306 -1.7211 -0.9286  0.6187
 3769TIP3   OH232797   3.402   1.224  11.593  0.3494  0.2630  0.1359
 3769TIP3    H132798   3.375   1.257  11.507 -2.7305  0.4366  1.0806
 3769TIP3    H232799   3.387   1.130  11.588  1.9635 -0.0162 -0.0690
 3770TIP3   OH232800   6.299   4.904   3.425 -0.1949  0.0162 -0.4512
 3770TIP3    H132801   6.349   4.879   3.503  1.8961  0.0669 -1.7068
 3770TIP3    H232802   6.213   4.929   3.459  1.1416  1.6242  2.0373
 3771TIP3   OH232803   0.217   4.074   0.635  0.4987 -0.1742  0.4643
 3771TIP3    H132804   0.220   4.155   0.686  1.8866  0.6938 -0.9311
 3771TIP3    H232805   0.125   4.046   0.640 -0.0298  1.5124  0.9137
 3772TIP3   OH232806   3.055   4.769  11.670  0.5512  0.1735  0.1120
 3772TIP3    H132807   3.020   4.842  11.619  0.0267 -0.9189 -1.1478
 3772TIP3    H232808   3.142   4.799  11.698  0.0212  1.5877  0.3577
 3773TIP3   OH232809   0.393   5.517  14.634 -0.5573  0.1910  0.3791
 3773TIP3    H132810   0.343   5.564  14.567 -0.3778  0.3487  0.3558
 3773TIP3    H232811   0.337   5.522  14.712 -0.0799  1.3743  0.6736
 3774TIP3   OH232812   2.448   2.374  17.024  0.1880  0.0098 -0.4931
 3774TIP3    H132813   2.450   2.356  17.118 -1.6627  1.5904 -0.0975
 3774TIP3    H232814   2.388   2.309  16.988  0.7404 -0.4646 -0.5893
 3775TIP3   OH232815   5.195   4.272  16.187 -0.1613 -0.3601  0.0216
 3775TIP3    H132816   5.105   4.295  16.208 -0.5218 -0.0467 -1.6627
 3775TIP3    H232817   5.189   4.224  16.105  1.1410 -1.1265  0.3443
 3776TIP3   OH232818   5.072   1.881  14.986 -0.0160 -0.3904 -0.0799
 3776TIP3    H132819   5.095   1.788  14.984 -0.3361 -0.4912  0.6621
 3776TIP3    H232820   5.098   1.913  14.900 -0.6355 -1.3418 -0.6414
 3777TIP3   OH232821   2.636   0.544  12.992 -0.4257  0.4758  0.6080
 3777TIP3    H132822   2.574   0.526  12.921 -0.9429  1.7623  0.7073
 3777TIP3    H232823   2.593   0.611  13.045  1.0563  1.4328  0.6549
 3778TIP3   OH232824   0.228   0.623   4.403 -0.2079 -0.1063  0.3073
 3778TIP3    H132825   0.304   0.620   4.344 -1.4824  0.6586 -1.4580
 3778TIP3    H232826   0.239   0.547   4.460  1.9138  0.0381  0.1709
 3779TIP3   OH232827   5.824   6.364   3.341  0.2472 -0.8414 -0.3442
 3779TIP3    H132828   5.816   6.450   3.300 -0.1083 -0.4511  0.5169
 3779TIP3    H232829   5.796   6.378   3.432  0.6828 -1.7549 -0.0570
 3780TIP3   OH232830   2.838   3.407  13.571 -0.1411  0.2354 -0.9329
 3780TIP3    H132831   2.838   3.503  13.567  1.7890  0.2528 -1.9231
 3780TIP3    H232832   2.821   3.386  13.662 -2.3758  1.4498 -1.0132
 3781TIP3   OH232833   4.086   5.212   3.268 -0.2330 -0.6878  0.2429
 3781TIP3    H132834   3.994   5.228   3.249  0.0019 -1.0691 -1.3306
 3781TIP3    H232835   4.133   5.254   3.197  0.9499  1.1261  1.9945
 3782TIP3   OH232836   0.723   4.012   6.281 -0.2504  0.0900 -0.8117
 3782TIP3    H132837   0.676   3.975   6.356 -0.1698  0.3311 -0.6398
 3782TIP3    H232838   0.654   4.051   6.227 -0.1955  1.0899 -0.1951
 3783TIP3   OH232839   3.941   2.398  16.594  0.5237 -0.0369 -0.4248
 3783TIP3    H132840   3.878   2.468  16.608  0.2089 -0.2968 -0.5432
 3783TIP3    H232841   3.949   2.354  16.679  0.2247 -0.2677 -0.5121
 3784TIP3   OH232842   6.246   4.098   5.210 -0.5686 -0.1192 -0.1886
 3784TIP3    H132843   6.170   4.154   5.192 -1.0545 -0.1185  1.6587
 3784TIP3    H232844   6.211   4.010   5.211 -0.1303 -0.3257 -1.3457
 3785TIP3   OH232845   2.833   3.945   2.588  0.5283  0.0251 -0.8075
 3785TIP3    H132846   2.743   3.937   2.558  0.4293  0.0417 -0.5161
 3785TIP3    H232847   2.849   4.039   2.592  0.6138  0.0205 -1.0212
 3786TIP3   OH232848   2.930   4.353  14.103 -0.1792  0.2978 -0.0517
 3786TIP3    H132849   2.949   4.266  14.139 -0.2484  1.0620  1.9794
 3786TIP3    H232850   3.015   4.387  14.075  0.4557  0.9109  2.4145
 3787TIP3   OH232851   0.026   6.174   0.881 -0.1281 -0.2078  0.8103
 3787TIP3    H132852   0.116   6.142   0.873 -0.6157 -1.2856 -0.9468
 3787TIP3    H232853   0.034   6.260   0.922  1.6973 -0.2737  0.6453
 3788TIP3   OH232854   4.315   6.179   5.329 -0.1213  0.0533  0.0519
 3788TIP3    H132855   4.307   6.104   5.270  0.1027 -0.0967  0.2098
 3788TIP3    H232856   4.225   6.212   5.339 -0.0550  0.6153 -1.0499
 3789TIP3   OH232857   2.387   1.104  12.651  0.2431 -0.4435  0.0485
 3789TIP3    H132858   2.391   1.189  12.608  0.7138 -0.8748 -0.7887
 3789TIP3    H232859   2.429   1.044  12.590 -1.9651 -1.6948 -0.3597
 3790TIP3   OH232860   4.363   4.723   0.678  0.5367  0.7040 -0.1793
 3790TIP3    H132861   4.390   4.686   0.594 -0.8467 -0.1665 -0.2657
 3790TIP3    H232862   4.272   4.749   0.665 -0.5578 -1.8037  1.7612
 3791TIP3   OH232863   4.607   3.373  13.579  0.0722 -0.0267 -0.4843
 3791TIP3    H132864   4.630   3.360  13.487  0.2245 -0.3238 -0.4052
 3791TIP3    H232865   4.683   3.418  13.616 -0.4543  1.1497 -0.7554
 3792TIP3   OH232866   2.206   0.485  15.372 -0.2541  0.2234  0.1262
 3792TIP3    H132867   2.282   0.513  15.321  0.6575 -1.0261  0.7369
 3792TIP3    H232868   2.178   0.403  15.330  0.1638 -0.5266  1.2679
 3793TIP3   OH232869   4.562   2.818   1.445 -0.1888 -0.2528 -0.0779
 3793TIP3    H132870   4.638   2.874   1.433 -0.4654  0.2371  0.4154
 3793TIP3    H232871   4.555   2.768   1.364 -0.3824  0.9538 -0.8087
 3794TIP3   OH232872   3.251   3.038   0.504  0.2250  0.4577  0.2704
 3794TIP3    H132873   3.294   3.022   0.588 -0.4255  0.1448  0.5520
 3794TIP3    H232874   3.258   2.955   0.457 -1.3467 -0.0799  0.9102
 3795TIP3   OH232875   2.033   2.275   1.029  0.1152  0.0276 -0.9088
 3795TIP3    H132876   1.983   2.198   1.055  0.6648 -0.0826 -0.1494
 3795TIP3    H232877   1.972   2.348   1.035  0.7491  0.4730  3.2287
 3796TIP3   OH232878   3.823   6.518   0.892  0.3381 -0.1366  0.4744
 3796TIP3    H132879   3.906   6.528   0.845  0.9863  0.1032  1.6197
 3796TIP3    H232880   3.847   6.528   0.984 -0.8761 -0.6816  0.8688
 3797TIP3   OH232881   2.463   1.715  13.040  0.4056 -0.0934 -0.5370
 3797TIP3    H132882   2.499   1.804  13.046  0.8753 -0.3227  0.2061
 3797TIP3    H232883   2.390   1.722  12.978 -0.0325  0.9556  0.0855
 3798TIP3   OH232884   2.914   0.972   2.234 -0.0325 -0.0601 -0.6052
 3798TIP3    H132885   2.970   1.033   2.185 -1.4062  1.6195 -0.2196
 3798TIP3    H232886   2.869   0.922   2.165 -1.7337  2.0825 -1.1704
 3799TIP3   OH232887   2.101   6.498   2.180 -0.9909 -0.5731  0.0527
 3799TIP3    H132888   2.036   6.552   2.224 -0.9526 -0.6323  0.1854
 3799TIP3    H232889   2.050   6.436   2.128 -1.0311 -0.3404 -0.1802
 3800TIP3   OH232890   4.489   0.579   4.739  0.1747 -0.2749 -0.4338
 3800TIP3    H132891   4.417   0.555   4.681 -0.3551 -0.8998  0.4539
 3800TIP3    H232892   4.493   0.509   4.804  0.3916  0.6549  0.6057
 3801TIP3   OH232893   6.800   6.725  16.587  0.5511  0.1956 -0.5688
 3801TIP3    H132894   6.858   6.794  16.556  0.1743  1.1291  0.7132
 3801TIP3    H232895   6.732   6.770  16.636 -0.1654 -1.0291 -0.3805
 3802TIP3   OH232896   0.973   0.766   2.984 -0.0298 -0.3260  0.4016
 3802TIP3    H132897   1.058   0.732   2.958 -0.5420 -0.3592 -1.3483
 3802TIP3    H232898   0.911   0.725   2.923 -1.0238  1.4160  0.1648
 3803TIP3   OH232899   2.470   2.906  13.675 -0.1533  0.0209  0.8102
 3803TIP3    H132900   2.539   2.849  13.641  0.3596 -1.9619  4.5742
 3803TIP3    H232901   2.405   2.845  13.711 -0.9575  1.8054  2.5291
 3804TIP3   OH232902   2.085   0.282  11.558 -0.8402  0.1393  0.0514
 3804TIP3    H132903   2.077   0.307  11.466 -0.5326  0.5100  0.1232
 3804TIP3    H232904   2.165   0.326  11.588 -0.2540 -0.9733  0.1733
 3805TIP3   OH232905   5.770   5.205  14.616  0.4277 -0.2224  0.2115
 3805TIP3    H132906   5.708   5.224  14.686 -0.7281 -0.8186 -0.6147
 3805TIP3    H232907   5.832   5.144  14.656 -1.0487 -1.6996  0.3459
 3806TIP3   OH232908   3.318   4.372   6.224 -0.2182  0.1553  0.5149
 3806TIP3    H132909   3.363   4.307   6.278 -0.2553 -1.3421 -1.1661
 3806TIP3    H232910   3.388   4.418   6.178 -0.2344  0.6587  0.9904
 3807TIP3   OH232911   3.602   0.249  16.517  0.3902 -0.0952 -0.5402
 3807TIP3    H132912   3.652   0.277  16.440  1.3814 -0.7406 -0.1608
 3807TIP3    H232913   3.646   0.169  16.546  1.4846  1.2985  2.0019
 3808TIP3   OH232914   2.168   2.161  14.784  0.2332 -0.2894 -0.1568
 3808TIP3    H132915   2.179   2.227  14.715 -0.5272  0.0588  0.0379
 3808TIP3    H232916   2.210   2.201  14.861 -0.8149  0.2892  0.1407
 3809TIP3   OH232917   0.954   0.379  11.328  0.5556  0.2715 -0.1632
 3809TIP3    H132918   0.931   0.438  11.401 -0.7520  0.2781 -0.5516
 3809TIP3    H232919   0.908   0.298  11.348  0.5496  0.1292 -0.7493
 3810TIP3   OH232920   6.472   1.326  14.143  0.2069 -0.4001 -0.4246
 3810TIP3    H132921   6.444   1.393  14.206 -2.5556 -2.0237  0.2543
 3810TIP3    H232922   6.460   1.366  14.057  0.0247  0.4524 -0.0076
 3811TIP3   OH232923   2.299   4.720   4.173  0.3420 -0.7125  0.1679
 3811TIP3    H132924   2.276   4.628   4.186  1.9911 -1.2629 -0.5203
 3811TIP3    H232925   2.310   4.729   4.078  1.0377 -0.0368  0.3004
 3812TIP3   OH232926   3.826   1.339   4.253 -0.2900 -0.2575 -0.3426
 3812TIP3    H132927   3.739   1.364   4.284  0.7093  1.0713  1.6279
 3812TIP3    H232928   3.824   1.243   4.252 -1.4689 -0.2801  0.6635
 3813TIP3   OH232929   6.803   4.300  17.128  0.3256 -0.3754 -0.4872
 3813TIP3    H132930   6.726   4.329  17.078  0.7881 -0.1043 -1.0548
 3813TIP3    H232931   6.774   4.301  17.219 -0.2476  0.0291 -0.6672
 3814TIP3   OH232932   6.666   6.620  15.280  0.5303 -0.0534  0.5334
 3814TIP3    H132933   6.761   6.628  15.278  0.6001 -0.8346  0.5350
 3814TIP3    H232934   6.643   6.590  15.192  0.3774 -0.7413  0.7979
 3815TIP3   OH232935   2.972   4.649   1.397 -0.3888  0.1618 -0.1983
 3815TIP3    H132936   2.987   4.659   1.491 -2.3490 -0.3401  0.2078
 3815TIP3    H232937   2.950   4.737   1.367  1.1248  0.5004 -0.4016
 3816TIP3   OH232938   3.361   5.129   1.977 -0.0192 -0.2481 -0.0242
 3816TIP3    H132939   3.365   5.104   1.884 -0.5877  1.0193 -0.4119
 3816TIP3    H232940   3.447   5.167   1.995 -0.0024 -0.2474 -0.1023
 3817TIP3   OH232941   6.415   3.605  13.151 -0.3033 -0.1908  0.3107
 3817TIP3    H132942   6.458   3.585  13.067  0.5807 -3.0524  1.3152
 3817TIP3    H232943   6.344   3.541  13.157 -1.5981  1.2526  0.9407
 3818TIP3   OH232944   3.402   2.521  16.054 -0.0437  0.5819 -0.0664
 3818TIP3    H132945   3.402   2.487  16.144  1.0384  0.7157 -0.0068
 3818TIP3    H232946   3.436   2.449  16.001 -2.2425 -0.1290 -0.6613
 3819TIP3   OH232947   3.756   6.815  10.777  0.5642  0.3023  0.1606
 3819TIP3    H132948   3.743   6.751  10.708  1.6111 -0.9612  1.0960
 3819TIP3    H232949   3.701   6.889  10.751  0.7835 -0.1885 -1.9186
 3820TIP3   OH232950   5.785   3.115   0.913 -0.4976  0.3644 -0.6469
 3820TIP3    H132951   5.699   3.137   0.948 -0.1170 -0.8663  1.2334
 3820TIP3    H232952   5.839   3.099   0.991  0.2879 -3.1125 -1.7073
 3821TIP3   OH232953   0.027   2.114  14.231  0.1859 -0.1801 -0.4696
 3821TIP3    H132954   0.067   2.028  14.216 -1.7207 -0.9843 -1.1915
 3821TIP3    H232955   0.028   2.124  14.326  1.8234 -0.2733 -0.4442
 3822TIP3   OH232956   6.623   1.533  15.483 -0.4864  0.2889  0.1944
 3822TIP3    H132957   6.565   1.525  15.407  1.5713 -1.8791 -1.2873
 3822TIP3    H232958   6.622   1.446  15.523 -0.6554  1.0982  2.0146
 3823TIP3   OH232959   0.543   5.090   3.994  0.0395 -0.0371  0.4688
 3823TIP3    H132960   0.526   4.999   4.017  2.4588 -0.1582  2.1463
 3823TIP3    H232961   0.634   5.105   4.021  0.6383  2.1000 -2.2944
 3824TIP3   OH232962   5.009   1.085   5.108 -0.5150  0.6452  0.3736
 3824TIP3    H132963   4.937   1.050   5.055 -1.8402  2.5078  0.8086
 3824TIP3    H232964   5.080   1.022   5.097 -1.9057 -0.8192 -0.8040
 3825TIP3   OH232965   2.265   6.220  11.409  0.1036 -0.6138 -0.1662
 3825TIP3    H132966   2.217   6.266  11.478  0.2654  0.2316 -0.6045
 3825TIP3    H232967   2.344   6.188  11.453 -0.4945 -1.3975  0.3869
 3826TIP3   OH232968   1.952   0.265  16.198 -0.4961 -0.5662  0.0005
 3826TIP3    H132969   1.888   0.215  16.147 -1.1490 -0.6978  0.9288
 3826TIP3    H232970   2.010   0.198  16.235  0.7614 -0.3957 -1.5683
 3827TIP3   OH232971   1.321   1.428   4.834 -0.2133  0.5438  0.2106
 3827TIP3    H132972   1.380   1.501   4.813  0.5815 -0.3722 -0.8518
 3827TIP3    H232973   1.364   1.382   4.905 -0.9867  1.3893  1.2662
 3828TIP3   OH232974   2.456   1.589  15.821  0.0774 -0.2352  0.1632
 3828TIP3    H132975   2.468   1.545  15.737  0.6645  1.1279 -0.4919
 3828TIP3    H232976   2.520   1.548  15.880  1.3021  0.3674 -0.7029
 3829TIP3   OH232977   0.292   6.369  12.320 -0.0292 -0.1793  0.4999
 3829TIP3    H132978   0.308   6.343  12.229  0.6698 -1.2582  0.9000
 3829TIP3    H232979   0.199   6.351  12.334  0.0476 -0.8350  0.2303
 3830TIP3   OH232980   6.538   6.690   1.191  0.1547 -0.7227 -0.3043
 3830TIP3    H132981   6.598   6.617   1.175  0.8293  0.2730 -2.9494
 3830TIP3    H232982   6.594   6.768   1.187 -0.9561  0.0956 -0.5159
 3831TIP3   OH232983   1.784   4.459  14.454 -0.2596 -0.2449  0.3498
 3831TIP3    H132984   1.717   4.400  14.419  0.1513 -1.3934  1.4022
 3831TIP3    H232985   1.795   4.431  14.545  1.9581 -0.4203  0.0929
 3832TIP3   OH232986   3.676   4.656  14.182  0.0584  0.2957 -0.0565
 3832TIP3    H132987   3.638   4.633  14.266  0.9672 -1.3332 -0.0530
 3832TIP3    H232988   3.644   4.745  14.164  0.7189  1.1391  2.5173
 3833TIP3   OH232989   4.489   5.976  12.110 -0.3868 -0.3602  0.0530
 3833TIP3    H132990   4.465   6.041  12.045 -0.1051 -1.5168 -1.2641
 3833TIP3    H232991   4.507   5.897  12.059 -2.6244 -2.0626  1.7294
 3834TIP3   OH232992   1.983   6.662   3.645 -0.3518  0.3479  0.1308
 3834TIP3    H132993   1.966   6.609   3.567  0.2512 -0.7039  0.6860
 3834TIP3    H232994   2.014   6.599   3.711 -0.7650  1.2180  1.1976
 3835TIP3   OH232995   5.410   0.420  15.451  0.2340 -0.2886 -0.4845
 3835TIP3    H132996   5.491   0.396  15.407  0.6279  0.2546 -0.0808
 3835TIP3    H232997   5.416   0.515  15.462 -0.5058 -0.2307 -0.5460
 3836TIP3   OH232998   4.515   4.832  11.926 -0.4258 -0.0640 -0.3174
 3836TIP3    H132999   4.469   4.748  11.924 -1.9771  0.7553 -0.4774
 3836TIP3    H233000   4.570   4.830  11.848  1.6748 -2.0020  1.0572
 3837TIP3   OH233001   6.468   0.523  16.706 -0.0119  0.1993 -0.0044
 3837TIP3    H133002   6.419   0.443  16.687  3.0919 -1.8156 -0.2897
 3837TIP3    H233003   6.498   0.554  16.621  0.1370  0.7625  0.2464
 3838TIP3   OH233004   6.603   0.833  10.667 -0.1300 -0.3256  0.3161
 3838TIP3    H133005   6.644   0.755  10.631  0.1073  0.0383 -0.2164
 3838TIP3    H233006   6.618   0.901  10.601 -0.7537  0.0491  0.5471
 3839TIP3   OH233007   6.072   6.369   3.641  0.6826  0.0236 -0.2471
 3839TIP3    H133008   6.034   6.456   3.633 -0.3020 -0.3634  0.0421
 3839TIP3    H233009   6.102   6.346   3.553 -0.9711 -0.1904 -0.7804
 3840TIP3   OH233010   3.806   0.895  11.093 -0.2499 -0.5935  0.1002
 3840TIP3    H133011   3.805   0.802  11.068  0.2450 -0.4372 -0.5361
 3840TIP3    H233012   3.742   0.936  11.035  1.3674 -0.1182 -1.4257
 3841TIP3   OH233013   5.268   0.925   5.406  0.2344  0.0128  0.1059
 3841TIP3    H133014   5.232   0.904   5.492  1.3694 -2.0104  0.1306
 3841TIP3    H233015   5.214   0.998   5.376 -0.7221  0.2388  2.1641
 3842TIP3   OH233016   1.078   1.953  12.136  0.6947  0.2166 -0.1594
 3842TIP3    H133017   1.161   1.934  12.179  1.7357  0.7234 -1.8216
 3842TIP3    H233018   1.089   2.042  12.102 -0.0572 -0.1390 -1.4030
 3843TIP3   OH233019   1.530   5.699   0.259 -0.0336  0.6093 -0.2668
 3843TIP3    H133020   1.532   5.775   0.202 -2.5994  0.3078 -0.8531
 3843TIP3    H233021   1.543   5.735   0.347  1.2707  1.3856 -0.7487
 3844TIP3   OH233022   1.858   2.026  12.707  0.2192  0.6123 -0.3526
 3844TIP3    H133023   1.802   2.065  12.774 -0.2314  0.8767 -0.8867
 3844TIP3    H233024   1.882   2.098  12.650  1.4838  0.5956  0.1261
 3845TIP3   OH233025   4.853   5.477   0.383 -0.5551  0.4066 -0.2824
 3845TIP3    H133026   4.763   5.508   0.390 -0.7807  0.0558 -1.4046
 3845TIP3    H233027   4.888   5.484   0.471 -0.9633  2.7127 -0.2478
 3846TIP3   OH233028   5.562   5.246  12.449 -0.5420  0.0877 -0.1926
 3846TIP3    H133029   5.574   5.310  12.520 -4.4156  1.7346 -0.7790
 3846TIP3    H233030   5.552   5.162  12.494  2.1438  0.1532  0.7471
 3847TIP3   OH233031   1.759   2.632  12.029  0.1311 -0.3204  0.2052
 3847TIP3    H133032   1.748   2.548  12.073  2.9607 -0.3868  0.9870
 3847TIP3    H233033   1.847   2.662  12.056  0.0706  1.8687 -1.7292
 3848TIP3   OH233034   4.007   1.230  14.034 -0.2427 -0.4005  0.0663
 3848TIP3    H133035   3.996   1.304  13.973  0.2386 -0.0467  0.3960
 3848TIP3    H233036   4.034   1.157  13.978  1.6037  0.2800 -0.0159
 3849TIP3   OH233037   2.575   2.272   1.361  0.2888 -0.1047  0.5011
 3849TIP3    H133038   2.629   2.226   1.425 -0.2807 -1.0334  0.3188
 3849TIP3    H233039   2.502   2.213   1.342  0.3996  0.1696 -0.9492
 3850TIP3   OH233040   1.285   3.433   0.239  0.3523  0.6550  0.6351
 3850TIP3    H133041   1.343   3.362   0.264 -0.5095 -0.4422 -0.3782
 3850TIP3    H233042   1.320   3.510   0.284  2.7793  0.1224 -0.2304
 3851TIP3   OH233043   2.620   3.022  15.275 -0.2596  0.0778 -0.2144
 3851TIP3    H133044   2.565   3.024  15.197  0.5275 -1.3359 -0.8544
 3851TIP3    H233045   2.572   2.967  15.337  0.8728 -2.1709 -1.2068
 3852TIP3   OH233046   6.460   6.400   4.377 -0.2246  0.0298  0.2740
 3852TIP3    H133047   6.421   6.488   4.383  0.6583  0.3784  1.2714
 3852TIP3    H233048   6.488   6.393   4.286 -0.9582  0.4890 -0.0014
 3853TIP3   OH233049   2.465   1.275   4.070 -0.8571  0.3976  0.6945
 3853TIP3    H133050   2.500   1.186   4.073  1.9548  1.4417  2.2160
 3853TIP3    H233051   2.490   1.307   3.983 -0.2118  0.3133  0.8473
 3854TIP3   OH233052   2.613   3.175   1.573  0.1331  0.5228  0.6392
 3854TIP3    H133053   2.522   3.187   1.548  0.6274  0.1346 -1.5525
 3854TIP3    H233054   2.658   3.253   1.541  1.0754 -0.7527 -1.3941
 3855TIP3   OH233055   0.231   4.000  16.749  0.0818 -0.5201  0.4210
 3855TIP3    H133056   0.216   3.962  16.663 -0.1519 -0.0315  0.2453
 3855TIP3    H233057   0.144   4.000  16.791  0.3045 -1.3601  0.9105
 3856TIP3   OH233058   5.817   5.768  11.719 -0.3678 -0.0600  0.2370
 3856TIP3    H133059   5.885   5.808  11.665  0.9878 -2.1470  0.2713
 3856TIP3    H233060   5.753   5.734  11.656 -0.1954 -0.1005  0.0824
 3857TIP3   OH233061   1.888   6.657   2.147 -0.1182 -0.1795  0.0339
 3857TIP3    H133062   1.825   6.602   2.099 -1.4653  0.1242  1.3731
 3857TIP3    H233063   1.848   6.744   2.148  1.6258  0.7130 -1.3913
 3858TIP3   OH233064   4.608   0.334  16.740  0.9753  0.0958  0.4040
 3858TIP3    H133065   4.615   0.429  16.745  2.5803  0.0416 -0.1703
 3858TIP3    H233066   4.641   0.313  16.652  0.5789 -0.9814  0.5063
 3859TIP3   OH233067   3.988   6.083   2.718  0.3776  0.0770  0.4563
 3859TIP3    H133068   3.992   6.142   2.643  0.6154 -0.8934 -0.3099
 3859TIP3    H233069   4.080   6.064   2.738  0.3082  0.1450  0.8569
 3860TIP3   OH233070   1.649   1.443   4.685 -0.2204 -0.4384  0.1243
 3860TIP3    H133071   1.608   1.480   4.607 -0.4393  1.4307  1.0733
 3860TIP3    H233072   1.607   1.489   4.758  2.6432  0.7047  1.2007
 3861TIP3   OH233073   4.446   4.403   4.893  0.8976 -0.2848 -0.1030
 3861TIP3    H133074   4.444   4.489   4.851 -0.0697 -1.3022 -2.3127
 3861TIP3    H233075   4.443   4.341   4.820 -1.2614 -2.1898  1.4474
 3862TIP3   OH233076   5.009   3.828  16.011  0.5272  0.4229 -0.1617
 3862TIP3    H133077   5.053   3.746  15.987  0.0758 -0.0118  0.4764
 3862TIP3    H233078   4.919   3.817  15.980  0.5936  0.8992 -0.5477
 3863TIP3   OH233079   1.347   2.908  13.249  0.5550 -0.5233  0.0937
 3863TIP3    H133080   1.275   2.849  13.271  0.4328 -0.6268 -0.5625
 3863TIP3    H233081   1.424   2.869  13.291  0.3943 -0.9015  0.0404
 3864TIP3   OH233082   6.147   5.077   6.467 -0.1632  0.5266  0.2561
 3864TIP3    H133083   6.221   5.070   6.407 -0.2434 -0.6876  0.2752
 3864TIP3    H233084   6.168   5.152   6.523  1.1334  0.1036  0.3667
 3865TIP3   OH233085   0.208   0.610  16.343  0.2767  0.1213  0.4246
 3865TIP3    H133086   0.176   0.564  16.265 -0.7951  1.3567  0.1038
 3865TIP3    H233087   0.182   0.701  16.329  2.7861  0.9572  0.7972
 3866TIP3   OH233088   2.990   3.401  12.873  0.0846  0.0947  0.3565
 3866TIP3    H133089   3.069   3.452  12.892  0.6706 -0.4709 -0.5326
 3866TIP3    H233090   2.922   3.467  12.859  0.4749  0.5950  0.7936
 3867TIP3   OH233091   5.781   5.675  16.577  0.3829 -0.2173  0.3548
 3867TIP3    H133092   5.800   5.586  16.607 -2.3436 -0.2221  2.4712
 3867TIP3    H233093   5.850   5.729  16.616  0.1037 -0.9981  2.0060
 3868TIP3   OH233094   4.885   3.320   5.657  0.8113  0.3971  0.3670
 3868TIP3    H133095   4.886   3.327   5.752  1.8151  0.7019  0.3443
 3868TIP3    H233096   4.920   3.233   5.639  2.7298  1.1344  0.2444
 3869TIP3   OH233097   5.008   3.695  12.260 -0.3047 -0.1424  0.1208
 3869TIP3    H133098   5.095   3.719  12.291 -1.1812  1.4496  1.5440
 3869TIP3    H233099   4.954   3.772  12.279 -1.6502 -0.3612 -2.4464
 3870TIP3   OH233100   1.399   3.325   3.663 -0.2606  0.2649  0.1324
 3870TIP3    H133101   1.371   3.397   3.720 -1.1671  0.2963 -0.3282
 3870TIP3    H233102   1.374   3.246   3.710  1.7813  0.1989  1.1677
 3871TIP3   OH233103   4.515   3.323  15.492  0.0214 -0.1011 -0.0238
 3871TIP3    H133104   4.488   3.375  15.568 -0.7769  0.2250 -0.5226
 3871TIP3    H233105   4.440   3.267  15.474 -0.4056  0.8763 -1.4873
 3872TIP3   OH233106   2.182   1.954  13.782  0.2608  0.3655 -0.2305
 3872TIP3    H133107   2.136   1.875  13.751  0.3324 -0.0791  0.7669
 3872TIP3    H233108   2.274   1.927  13.785  0.3694  0.7018 -0.5224
 3873TIP3   OH233109   5.604   2.111  14.280  0.3799  0.1267  0.0662
 3873TIP3    H133110   5.686   2.152  14.256  0.6841 -0.7275 -0.4133
 3873TIP3    H233111   5.624   2.062  14.360  0.1032  0.6468  0.4574
 3874TIP3   OH233112   0.335   3.792   1.458  0.0100  0.1354 -0.0012
 3874TIP3    H133113   0.367   3.851   1.526  1.6077 -1.1236  0.4104
 3874TIP3    H233114   0.256   3.835   1.423  0.6916  2.1152  0.7614
 3875TIP3   OH233115   4.014   2.376  17.061  0.2256 -0.0907  0.0960
 3875TIP3    H133116   4.083   2.357  17.125 -0.0238  1.7367  0.9773
 3875TIP3    H233117   3.950   2.429  17.109 -0.4395  0.5580 -1.4204
 3876TIP3   OH233118   3.740   5.605  12.696 -0.0919  0.2588 -0.0995
 3876TIP3    H133119   3.713   5.589  12.786  0.5446  2.7440  0.5940
 3876TIP3    H233120   3.834   5.624  12.702  0.3082 -1.0567 -1.5223
 3877TIP3   OH233121   2.009   6.643  12.935 -0.1922 -0.3437  0.2944
 3877TIP3    H133122   1.980   6.577  12.872  0.9003 -0.0351 -0.5690
 3877TIP3    H233123   1.976   6.726  12.900  3.8744  0.4874 -2.3965
 3878TIP3   OH233124   5.216   5.361  13.589  0.2774 -0.3011  0.6459
 3878TIP3    H133125   5.295   5.408  13.617  1.5274 -1.1889 -1.2278
 3878TIP3    H233126   5.194   5.400  13.504 -0.4954 -0.9971  0.5175
 3879TIP3   OH233127   5.542   5.229   1.967 -0.5963  0.1029 -0.2632
 3879TIP3    H133128   5.468   5.193   1.917 -0.7302 -0.3044  0.2158
 3879TIP3    H233129   5.515   5.318   1.989 -1.3163 -0.3135  0.6215
 3880TIP3   OH233130   3.010   6.115   4.952 -0.1669 -0.1402  0.2483
 3880TIP3    H133131   3.021   6.045   5.017 -1.9418 -1.2358 -0.5552
 3880TIP3    H233132   3.035   6.074   4.869  0.0012  0.5827 -0.0629
 3881TIP3   OH233133   3.119   0.532   5.931  0.3102 -0.7712 -0.5872
 3881TIP3    H133134   3.191   0.468   5.923  0.9600 -0.1922  0.3534
 3881TIP3    H233135   3.111   0.546   6.025 -1.7765 -1.6094 -0.5955
 3882TIP3   OH233136   3.651   5.960   2.578 -0.2362 -0.2600 -0.0949
 3882TIP3    H133137   3.716   5.898   2.544  0.9176 -0.2255  1.9079
 3882TIP3    H233138   3.573   5.907   2.592 -0.2130 -0.6079 -1.2042
 3883TIP3   OH233139   5.625   0.755  14.990  0.1072 -0.2543  0.3080
 3883TIP3    H133140   5.651   0.686  14.929 -0.4281 -0.8733  0.7584
 3883TIP3    H233141   5.615   0.710  15.074  0.7428  0.5638  0.8396
 3884TIP3   OH233142   5.770   3.786  14.097 -0.0367  0.8305 -0.3034
 3884TIP3    H133143   5.776   3.775  14.192  1.7093 -0.3550 -0.5031
 3884TIP3    H233144   5.724   3.869  14.085  1.0197  1.7609  1.6163
 3885TIP3   OH233145   1.438   1.320  13.335  0.1554 -0.1295  0.6952
 3885TIP3    H133146   1.376   1.369  13.281  0.9322 -1.1136 -1.1629
 3885TIP3    H233147   1.404   1.231  13.335  1.5713 -0.6860 -0.3736
 3886TIP3   OH233148   0.677   4.407  11.357 -0.3170 -0.4762  0.1805
 3886TIP3    H133149   0.623   4.328  11.361  1.2864 -1.5841  1.8733
 3886TIP3    H233150   0.672   4.444  11.445  0.6873  0.0631  0.0230
 3887TIP3   OH233151   0.969   1.935   0.376  0.3196  0.1074  0.1122
 3887TIP3    H133152   0.930   2.022   0.366  0.8690  0.2716 -0.7504
 3887TIP3    H233153   0.902   1.875   0.344 -0.4120  0.1190  1.5412
 3888TIP3   OH233154   1.785   1.168   2.771 -0.0571  0.6986  0.1817
 3888TIP3    H133155   1.707   1.193   2.821  1.0468  2.3857  1.1452
 3888TIP3    H233156   1.752   1.152   2.683 -2.0274 -2.0540  1.2492
 3889TIP3   OH233157   4.339   2.381   1.213  0.4702  0.0777 -0.0712
 3889TIP3    H133158   4.295   2.466   1.213  3.6402  1.8778 -0.0040
 3889TIP3    H233159   4.379   2.375   1.300  0.1041 -1.6383  0.0177
 3890TIP3   OH233160   4.969   6.553   3.840  0.0071 -1.0138 -0.3276
 3890TIP3    H133161   4.909   6.539   3.766 -0.9439 -0.9918  0.4239
 3890TIP3    H233162   5.052   6.517   3.810 -0.2377 -0.6089 -1.5831
 3891TIP3   OH233163   4.320   6.383  16.101  0.2595 -0.3600 -0.4082
 3891TIP3    H133164   4.245   6.435  16.129  0.7289  1.0970 -1.7250
 3891TIP3    H233165   4.286   6.294  16.095 -0.7732 -0.1135  1.1402
 3892TIP3   OH233166   1.212   4.984  16.035  0.3934  0.7417 -0.2831
 3892TIP3    H133167   1.256   4.911  16.080 -0.2345 -0.5345 -1.6779
 3892TIP3    H233168   1.147   5.014  16.098  0.9389  0.3823  0.4755
 3893TIP3   OH233169   2.017   4.388  16.633  0.1379  0.3772  0.3906
 3893TIP3    H133170   1.943   4.360  16.686  0.2182 -0.0704  0.2757
 3893TIP3    H233171   2.076   4.313  16.634 -0.6157 -0.3115 -1.7278
 3894TIP3   OH233172   1.679   5.231  15.486 -0.1506 -0.2544  0.0004
 3894TIP3    H133173   1.624   5.278  15.423 -0.0666  0.6494  0.5879
 3894TIP3    H233174   1.639   5.144  15.493 -1.7564  0.5048  0.7084
 3895TIP3   OH233175   6.756   0.909   4.286  0.2701 -0.5102  0.1455
 3895TIP3    H133176   6.759   0.866   4.200  1.0590 -1.0108  0.4100
 3895TIP3    H233177   6.837   0.960   4.290 -0.5780  0.8768 -0.0882
 3896TIP3   OH233178   5.494   2.535   3.410 -0.7006  0.1301 -0.1261
 3896TIP3    H133179   5.465   2.492   3.490  3.0374 -3.1183 -0.2592
 3896TIP3    H233180   5.558   2.600   3.439 -0.1951 -0.2460 -0.3832
 3897TIP3   OH233181   2.963   2.772   4.034 -0.5706  0.8502  0.5628
 3897TIP3    H133182   2.908   2.732   4.101  0.2124 -2.7500 -0.7104
 3897TIP3    H233183   2.903   2.789   3.961 -0.7873  1.4814  0.8752
 3898TIP3   OH233184   0.891   5.917  11.420  0.0226  0.3630 -0.0788
 3898TIP3    H133185   0.828   5.896  11.351 -0.1775 -1.4561  0.5957
 3898TIP3    H233186   0.917   6.007  11.402 -1.9587  0.8069 -1.0073
 3899TIP3   OH233187   4.918   3.259   1.448  0.0135  0.3620 -0.3267
 3899TIP3    H133188   4.887   3.170   1.430 -2.5938  0.8956  0.9886
 3899TIP3    H233189   4.953   3.255   1.537 -2.5468  1.0819  0.8116
 3900TIP3   OH233190   2.196   0.838  14.235  0.3275  0.0384 -0.1881
 3900TIP3    H133191   2.122   0.778  14.224  1.4935 -1.2221 -1.8455
 3900TIP3    H233192   2.173   0.892  14.310 -1.4246 -1.5603  0.5075
 3901TIP3   OH233193   1.449   0.762   4.587 -0.1325  0.1797 -0.0642
 3901TIP3    H133194   1.487   0.827   4.527 -0.2254 -1.2698 -1.7777
 3901TIP3    H233195   1.515   0.750   4.655  0.6186  0.8216 -0.6620
 3902TIP3   OH233196   5.504   1.956   0.804 -0.0396  0.1030  0.1477
 3902TIP3    H133197   5.427   2.011   0.818  1.3857  2.0388  0.7841
 3902TIP3    H233198   5.531   1.931   0.892 -0.3977 -1.3001 -0.1146
 3903TIP3   OH233199   0.636   1.143   2.083  0.1013 -0.0266  0.0428
 3903TIP3    H133200   0.684   1.193   2.017  1.4371 -3.0491 -1.4536
 3903TIP3    H233201   0.693   1.143   2.160  1.0297 -0.9002 -0.6320
 3904TIP3   OH233202   3.890   4.009   5.676  0.4383 -0.0471 -0.3039
 3904TIP3    H133203   3.949   3.934   5.678 -0.2845 -0.6568 -1.5168
 3904TIP3    H233204   3.945   4.083   5.704  2.1469 -0.3622 -2.5698
 3905TIP3   OH233205   4.618   6.008   2.549 -0.6880 -0.4268 -0.1254
 3905TIP3    H133206   4.704   5.967   2.560  0.2471  0.7371 -2.4716
 3905TIP3    H233207   4.594   6.038   2.637  1.2343 -0.8989  0.5957
 3906TIP3   OH233208   4.024   0.604  10.789 -0.4291 -0.3950 -0.1146
 3906TIP3    H133209   3.955   0.659  10.754  0.9074  1.5382  0.1339
 3906TIP3    H233210   4.071   0.573  10.711  0.2774  0.8504 -0.2120
 3907TIP3   OH233211   6.095   5.501  11.783  0.7459  0.1962  0.3683
 3907TIP3    H133212   6.026   5.502  11.849  0.0439  0.8146 -0.3596
 3907TIP3    H233213   6.101   5.591  11.753  0.3309 -0.2458 -1.1417
 3908TIP3   OH233214   0.632   0.432   4.205 -0.2506 -0.0314  0.3996
 3908TIP3    H133215   0.688   0.503   4.173 -0.5660  0.5391  1.0786
 3908TIP3    H233216   0.671   0.406   4.289 -1.4804  1.0018  1.3403
 3909TIP3   OH233217   3.750   5.154   4.126 -0.0100 -0.4275 -0.2167
 3909TIP3    H133218   3.807   5.104   4.184  0.3208 -2.2054 -1.9632
 3909TIP3    H233219   3.728   5.093   4.055 -2.9267  0.6495 -0.3686
 3910TIP3   OH233220   3.013   5.322   2.309  0.0222  0.5911  0.2009
 3910TIP3    H133221   2.946   5.299   2.374  1.1646  2.0293  1.9948
 3910TIP3    H233222   2.968   5.380   2.248 -0.6225  0.7416  0.8088
 3911TIP3   OH233223   6.268   2.590  16.404  0.2118  0.0764 -0.1796
 3911TIP3    H133224   6.274   2.622  16.314  0.8239  0.1190 -0.1255
 3911TIP3    H233225   6.358   2.592  16.437 -0.1703  1.3226  0.8706
 3912TIP3   OH233226   3.255   1.141   2.875  0.1891 -0.1111 -0.0614
 3912TIP3    H133227   3.341   1.163   2.838 -0.0524  0.7700 -0.1088
 3912TIP3    H233228   3.195   1.145   2.801 -0.2081  1.1454  0.3136
 3913TIP3   OH233229   2.858   4.401   2.138  0.6328 -0.8600 -0.2797
 3913TIP3    H133230   2.822   4.404   2.226  1.9339 -0.8148  0.2715
 3913TIP3    H233231   2.781   4.405   2.080 -0.2511 -1.2103  0.8398
 3914TIP3   OH233232   2.332   3.680   4.315  0.0033 -0.0494 -0.1407
 3914TIP3    H133233   2.332   3.621   4.391 -2.1298  0.0408  0.0011
 3914TIP3    H233234   2.405   3.650   4.261  0.4032 -1.3197  1.0492
 3915TIP3   OH233235   0.010   1.126   1.731 -0.0621 -0.2356 -0.0446
 3915TIP3    H133236   0.040   1.209   1.695  1.5533 -0.7094  0.1683
 3915TIP3    H233237   0.087   1.087   1.771 -0.7660 -1.8816 -0.2051
 3916TIP3   OH233238   6.403   6.000  13.407 -0.5991 -0.6960 -0.4857
 3916TIP3    H133239   6.383   5.928  13.347 -1.0857  0.2106 -1.4471
 3916TIP3    H233240   6.332   6.063  13.392  1.0280  1.0124 -1.3332
 3917TIP3   OH233241   4.179   2.945   4.371  0.1135  0.7638 -0.1899
 3917TIP3    H133242   4.231   2.914   4.297  0.1484  0.1414  0.0922
 3917TIP3    H233243   4.095   2.969   4.333 -0.0062  0.0713 -0.3736
 3918TIP3   OH233244   3.930   3.569   5.922  0.0289 -0.9752  0.2621
 3918TIP3    H133245   3.924   3.476   5.900  0.0514 -0.7824 -0.6059
 3918TIP3    H233246   3.926   3.614   5.837 -0.1093 -0.1787  0.6781
 3919TIP3   OH233247   0.107   6.811   4.278 -0.5792 -0.2395 -0.0921
 3919TIP3    H133248   0.191   6.855   4.270  0.0509 -1.5272 -0.8269
 3919TIP3    H233249   0.103   6.783   4.370  0.6720 -1.8120 -0.4820
 3920TIP3   OH233250   5.425   1.810  13.094  0.7581 -0.5515  0.5629
 3920TIP3    H133251   5.487   1.878  13.069  0.4245 -0.7216 -0.8430
 3920TIP3    H233252   5.364   1.853  13.153  1.5763 -0.1092  1.1032
 3921TIP3   OH233253   1.065   6.549  13.341  0.1962 -0.2473  0.7366
 3921TIP3    H133254   1.104   6.563  13.255 -2.3455  1.3136 -0.2728
 3921TIP3    H233255   0.988   6.495  13.324  0.7146 -1.5996  2.3625
 3922TIP3   OH233256   2.969   5.147  12.948  0.0350  0.6675  0.1033
 3922TIP3    H133257   3.003   5.058  12.944  0.5167  0.8942 -1.3604
 3922TIP3    H233258   2.912   5.154  12.871  0.5422  1.8317 -0.1882
 3923TIP3   OH233259   0.633   6.627  10.973 -0.3114 -0.0955  0.0344
 3923TIP3    H133260   0.562   6.653  11.031  0.3544  1.2325  0.2793
 3923TIP3    H233261   0.595   6.632  10.885 -0.6850  0.0004  0.1994
 3924TIP3   OH233262   3.757   3.236  12.645 -0.2140 -0.0192 -0.4573
 3924TIP3    H133263   3.787   3.234  12.736 -1.3795 -0.0434 -0.0591
 3924TIP3    H233264   3.828   3.281  12.598  0.7578 -0.7098  0.3052
 3925TIP3   OH233265   1.930   5.998  11.546  0.1095 -0.2082  0.0332
 3925TIP3    H133266   1.841   5.999  11.513 -0.2020 -0.1550  0.8394
 3925TIP3    H233267   1.965   5.912  11.520 -0.0461 -0.0777 -0.6074
 3926TIP3   OH233268   4.180   1.875  16.720 -0.4952  0.2424  0.3230
 3926TIP3    H133269   4.139   1.902  16.802  1.5180 -0.3439  1.5795
 3926TIP3    H233270   4.206   1.784  16.735  1.7510  0.7504 -0.1870
 3927TIP3   OH233271   3.460   2.143   5.162 -0.1307  0.6261 -0.0786
 3927TIP3    H133272   3.496   2.105   5.242  1.8735  0.5341 -0.9674
 3927TIP3    H233273   3.370   2.111   5.159 -0.5341  1.2839  2.5132
 3928TIP3   OH233274   6.208   1.264   3.171  0.7905 -0.3859  0.0435
 3928TIP3    H133275   6.227   1.214   3.251 -1.8904 -1.6281 -0.0033
 3928TIP3    H233276   6.137   1.216   3.129  0.3906  1.6716 -1.7947
 3929TIP3   OH233277   0.780   3.339   2.359  0.2647 -0.1113 -0.5850
 3929TIP3    H133278   0.792   3.254   2.317  2.2297 -0.2736  0.1719
 3929TIP3    H233279   0.729   3.391   2.297 -2.1178 -2.2056 -0.5237
 3930TIP3   OH233280   2.613   6.093  13.076 -0.2898  0.1781 -0.1853
 3930TIP3    H133281   2.670   6.154  13.123 -1.0474  1.1958 -0.5378
 3930TIP3    H233282   2.622   6.118  12.984 -2.1389  1.1686 -0.1664
 3931TIP3   OH233283   5.169   3.413  15.282  0.4426  0.2671 -0.3192
 3931TIP3    H133284   5.217   3.371  15.354  1.1711  0.6291 -0.5765
 3931TIP3    H233285   5.081   3.427  15.316  0.2064 -1.3342 -0.1767
 3932TIP3   OH233286   6.577   1.806   6.457 -0.4515  0.6645 -0.2038
 3932TIP3    H133287   6.490   1.842   6.474 -1.0377 -0.7899 -0.0739
 3932TIP3    H233288   6.602   1.844   6.372 -1.9003 -0.1646 -1.0254
 3933TIP3   OH233289   2.402   2.869   5.004 -0.5098  0.1945 -0.3448
 3933TIP3    H133290   2.417   2.857   4.910  0.8263 -1.7285  0.0634
 3933TIP3    H233291   2.404   2.781   5.040  2.3062  1.0593  1.9400
 3934TIP3   OH233292   2.258   3.335  13.155  0.1429 -0.2340  0.1397
 3934TIP3    H133293   2.281   3.412  13.207  1.7858 -1.1080  0.7760
 3934TIP3    H233294   2.276   3.261  13.213  0.8732 -1.1773 -1.2460
 3935TIP3   OH233295   0.431   4.718   5.532  0.0931 -0.2148 -0.3553
 3935TIP3    H133296   0.448   4.722   5.626 -1.5323 -0.1021 -0.0489
 3935TIP3    H233297   0.503   4.768   5.494  1.7184 -1.6571  0.6664
 3936TIP3   OH233298   4.893   3.767  14.756  0.2052 -0.0239 -0.1089
 3936TIP3    H133299   4.814   3.739  14.711 -0.3158  1.7189 -0.3578
 3936TIP3    H233300   4.918   3.849  14.713  0.8905  0.5982  1.3785
 3937TIP3   OH233301   3.694   4.279   4.999 -0.0499 -0.2625  0.5940
 3937TIP3    H133302   3.784   4.308   4.981  0.2003 -0.2771  1.7433
 3937TIP3    H233303   3.671   4.225   4.923  0.1601  1.3647 -0.6923
 3938TIP3   OH233304   2.390   0.737   3.087  0.5787 -0.4312  0.2469
 3938TIP3    H133305   2.419   0.766   3.001 -0.5431  0.0486  0.0175
 3938TIP3    H233306   2.446   0.662   3.107  0.0547 -1.3205 -1.4367
 3939TIP3   OH233307   5.133   2.744  13.022  0.1503 -0.3838 -0.5369
 3939TIP3    H133308   5.070   2.802  13.064  1.4696  0.3020  0.5890
 3939TIP3    H233309   5.107   2.743  12.930  0.1492  2.1433 -0.6396
 3940TIP3   OH233310   6.610   4.793   6.114  0.1382  0.0336 -0.4838
 3940TIP3    H133311   6.663   4.715   6.129 -0.8983 -0.6304 -0.1806
 3940TIP3    H233312   6.615   4.842   6.197  0.1319 -0.1072 -0.4006
 3941TIP3   OH233313   0.658   3.829   4.206  0.4263 -0.3466  0.4722
 3941TIP3    H133314   0.626   3.916   4.230  2.0631  0.2793  0.5404
 3941TIP3    H233315   0.604   3.803   4.131 -0.6164  0.3689  0.9555
 3942TIP3   OH233316   6.558   3.102  12.336 -0.1054  0.3182 -0.0583
 3942TIP3    H133317   6.585   3.155  12.412  0.1336 -0.9794  0.7909
 3942TIP3    H233318   6.638   3.058  12.309 -0.5607 -0.5757  0.0378
 3943TIP3   OH233319   5.721   4.078  12.509 -0.3480 -0.0169  0.0091
 3943TIP3    H133320   5.763   4.125  12.436 -1.9873 -0.6233 -1.4013
 3943TIP3    H233321   5.652   4.137  12.538  1.2553  0.9060  2.2063
 3944TIP3   OH233322   5.901   5.550  14.106  0.2770 -0.6302  0.2688
 3944TIP3    H133323   5.860   5.465  14.122  2.3965 -1.8365 -0.3248
 3944TIP3    H233324   5.970   5.532  14.042  0.1954  1.7340 -0.5761
 3945TIP3   OH233325   6.581   3.689  11.451 -0.4743 -0.0182 -0.2213
 3945TIP3    H133326   6.590   3.598  11.479  1.6186  0.5968  1.3512
 3945TIP3    H233327   6.669   3.714  11.423 -1.0300  1.5091 -0.7055
 3946TIP3   OH233328   3.945   1.094   3.610 -0.2072  0.1762  0.1841
 3946TIP3    H133329   3.933   1.068   3.701  0.5445 -0.9089 -0.0021
 3946TIP3    H233330   3.862   1.134   3.585 -1.5206 -2.1398  0.5114
 3947TIP3   OH233331   5.326   1.879  16.246  0.5697  0.6539 -0.3480
 3947TIP3    H133332   5.263   1.926  16.191 -0.1571 -1.0578 -1.0609
 3947TIP3    H233333   5.311   1.913  16.334 -0.2557  1.3998 -0.7550
 3948TIP3   OH233334   0.788   0.985  15.855  0.1888  0.0793 -0.2679
 3948TIP3    H133335   0.783   1.040  15.777 -1.1312 -0.9207 -0.9369
 3948TIP3    H233336   0.882   0.967  15.866  0.4435  0.7308 -1.2431
 3949TIP3   OH233337   0.077   4.375   5.606  0.0680 -0.0657  0.5594
 3949TIP3    H133338   0.129   4.448   5.573 -0.3211 -0.2709 -0.5548
 3949TIP3    H233339   0.006   4.415   5.656  0.0403  0.3050  0.2222
 3950TIP3   OH233340   2.771   3.340  10.971 -0.0403  0.2056  0.1850
 3950TIP3    H133341   2.709   3.397  10.925 -0.0554 -0.6284 -0.8728
 3950TIP3    H233342   2.857   3.379  10.954 -0.2345  1.1975  1.4063
 3951TIP3   OH233343   2.949   6.488  17.107 -0.7356 -0.3045  0.2384
 3951TIP3    H133344   3.011   6.524  17.044 -0.4351  0.1066  0.7593
 3951TIP3    H233345   2.966   6.394  17.106  0.0065 -0.1784  0.4846
 3952TIP3   OH233346   2.718   1.755  13.654 -0.1874  0.3093 -0.3682
 3952TIP3    H133347   2.750   1.805  13.729  0.9407 -0.8965 -0.0222
 3952TIP3    H233348   2.674   1.679  13.692  0.2175 -0.2082 -0.9200
 3953TIP3   OH233349   1.885   1.308   4.758  0.7308 -0.0718 -0.7613
 3953TIP3    H133350   1.805   1.333   4.712  0.6698 -1.7808 -1.6715
 3953TIP3    H233351   1.956   1.337   4.701  0.7189 -0.1952 -0.8374
 3954TIP3   OH233352   0.627   2.452   2.519  0.3006 -0.8130  0.0775
 3954TIP3    H133353   0.567   2.395   2.472 -1.6525 -0.2828  1.7817
 3954TIP3    H233354   0.637   2.529   2.463  0.7053 -1.5704 -0.9311
 3955TIP3   OH233355   2.281   0.610   0.392  0.1788 -0.2479 -0.9982
 3955TIP3    H133356   2.269   0.628   0.298 -1.0558 -0.2112 -0.8444
 3955TIP3    H233357   2.218   0.541   0.412  0.0006  0.1704 -0.0598
 3956TIP3   OH233358   4.733   1.493   0.703 -0.8554 -0.3625 -0.0272
 3956TIP3    H133359   4.638   1.504   0.709 -0.6486  1.5193  0.6538
 3956TIP3    H233360   4.756   1.529   0.618 -0.6156  0.6938  0.4618
 3957TIP3   OH233361   4.247   0.031  13.201 -0.7095  0.2346  0.3654
 3957TIP3    H133362   4.242   0.099  13.134 -2.7882  0.8314  1.0390
 3957TIP3    H233363   4.339   0.028  13.226  0.1802 -0.1254 -2.5833
 3958TIP3   OH233364   5.685   4.612  11.316  0.7467 -0.3731  0.0729
 3958TIP3    H133365   5.754   4.651  11.370 -0.0132  1.8638 -0.4286
 3958TIP3    H233366   5.662   4.682  11.254 -1.2504 -1.4095 -0.4340
 3959TIP3   OH233367   3.316   6.477  15.649 -0.5891  0.2148 -1.0167
 3959TIP3    H133368   3.368   6.513  15.576  2.1558  1.5239  1.3614
 3959TIP3    H233369   3.262   6.550  15.678 -0.6365  0.1272 -0.8847
 3960TIP3   OH233370   2.687   4.197   4.131 -0.1511  0.5169 -0.5216
 3960TIP3    H133371   2.610   4.248   4.155  0.5046  0.5148  1.8510
 3960TIP3    H233372   2.748   4.210   4.204  0.9587 -1.7507 -0.9559
 3961TIP3   OH233373   0.513   4.962  16.846 -0.0188  0.0677  0.2075
 3961TIP3    H133374   0.457   4.925  16.914 -0.0248  0.5335  0.4616
 3961TIP3    H233375   0.589   4.995  16.893  0.2366 -0.1093 -0.0779
 3962TIP3   OH233376   5.275   4.354  12.539  0.1456  0.0982 -0.0968
 3962TIP3    H133377   5.352   4.410  12.535 -0.5299  1.0016 -3.0603
 3962TIP3    H233378   5.224   4.388  12.613  1.9096  0.3344  1.0594
 3963TIP3   OH233379   4.000   4.859   3.569  0.1118 -0.6598 -0.1665
 3963TIP3    H133380   4.059   4.917   3.521 -0.5034 -0.2579 -0.4439
 3963TIP3    H233381   4.058   4.811   3.628  0.6887 -0.0902 -0.2487
 3964TIP3   OH233382   0.662   1.520  12.763  0.2467 -0.5189  0.0620
 3964TIP3    H133383   0.597   1.579  12.802  0.2136 -0.1568 -0.5330
 3964TIP3    H233384   0.718   1.576  12.711 -0.1477 -1.0738 -0.9959
 3965TIP3   OH233385   2.383   3.678   0.271 -0.3713 -0.0525 -0.1577
 3965TIP3    H133386   2.372   3.743   0.201 -0.2367 -0.8596 -0.9539
 3965TIP3    H233387   2.477   3.676   0.288 -0.3752 -0.0369 -0.1343
 3966TIP3   OH233388   3.524   4.852   1.790  0.2240 -0.3738 -0.0796
 3966TIP3    H133389   3.515   4.757   1.781 -0.1011 -0.3121 -0.4538
 3966TIP3    H233390   3.617   4.868   1.772  0.1575 -0.5593 -0.6158
 3967TIP3   OH233391   2.330   2.524   0.243 -0.3909  0.2451  0.1263
 3967TIP3    H133392   2.356   2.521   0.151  0.7565 -0.9032  0.4668
 3967TIP3    H233393   2.412   2.529   0.292 -0.8903 -0.8523  1.1402
 3968TIP3   OH233394   4.930   4.413  12.711  0.1433 -0.5142  0.5135
 3968TIP3    H133395   4.961   4.493  12.669  0.5328 -1.1379 -0.4073
 3968TIP3    H233396   5.010   4.370  12.742  0.0949 -1.3611 -0.4821
 3969TIP3   OH233397   6.269   0.481   2.353 -0.2653 -0.2460 -0.0099
 3969TIP3    H133398   6.248   0.563   2.398 -0.1293  0.2491 -0.8140
 3969TIP3    H233399   6.332   0.508   2.285  1.4358 -1.3444  1.0477
 3970TIP3   OH233400   0.399   5.052   0.970  0.1564  0.5041 -0.6170
 3970TIP3    H133401   0.454   5.010   1.036  1.6191  0.7667 -1.6369
 3970TIP3    H233402   0.392   4.988   0.900 -1.0726  0.3749 -0.3996
 3971TIP3   OH233403   5.670   3.177   4.414  0.1563 -0.7793  0.2283
 3971TIP3    H133404   5.747   3.184   4.357  0.4416 -0.9318  0.5859
 3971TIP3    H233405   5.597   3.159   4.355  0.4986 -1.2450 -0.0574
 3972TIP3   OH233406   6.234   1.205  15.714 -0.4317 -0.1041 -0.0684
 3972TIP3    H133407   6.293   1.256  15.769  0.1794  1.0434 -1.7117
 3972TIP3    H233408   6.261   1.224  15.625 -0.7511 -2.6578 -0.8102
 3973TIP3   OH233409   4.812   5.266  15.081  0.3875  0.7178 -0.8017
 3973TIP3    H133410   4.758   5.193  15.049 -0.6930  0.7023  0.9231
 3973TIP3    H233411   4.774   5.344  15.041 -1.0064  0.7086  0.4189
 3974TIP3   OH233412   2.358   6.128   3.078 -0.0177  0.4619  0.3951
 3974TIP3    H133413   2.318   6.050   3.116  0.5066 -0.0658 -0.0985
 3974TIP3    H233414   2.294   6.197   3.092  0.6412  0.5924  3.3057
 3975TIP3   OH233415   2.880   0.311  13.209 -0.0656 -0.1081  0.2453
 3975TIP3    H133416   2.923   0.369  13.146 -1.0092 -0.4259 -0.7310
 3975TIP3    H233417   2.842   0.370  13.274  0.7543  0.2413  0.4166
 3976TIP3   OH233418   4.193   5.791   2.498  0.3924 -0.0813  0.4953
 3976TIP3    H133419   4.238   5.734   2.436 -1.5528 -0.0813 -1.0245
 3976TIP3    H233420   4.142   5.730   2.552  0.5369  0.0431  0.7700
 3977TIP3   OH233421   4.463   3.796  14.205 -0.5841 -0.6546  0.0582
 3977TIP3    H133422   4.505   3.712  14.226  0.5340 -0.8694 -2.6693
 3977TIP3    H233423   4.411   3.778  14.127 -1.7148  0.8412  0.4180
 3978TIP3   OH233424   6.464   5.458   5.333  0.4066  0.5501  0.2721
 3978TIP3    H133425   6.403   5.477   5.405  0.5582  0.5613  0.3988
 3978TIP3    H233426   6.411   5.411   5.269  0.0969  1.1456  0.0786
 3979TIP3   OH233427   5.482   2.512  16.567  0.4125  0.4160 -0.0550
 3979TIP3    H133428   5.572   2.532  16.541  0.4111  2.1360  1.0623
 3979TIP3    H233429   5.491   2.452  16.641  0.5836 -0.4685 -0.7865
 3980TIP3   OH233430   6.701   2.853  10.559 -0.0831 -0.2540 -0.8042
 3980TIP3    H133431   6.749   2.795  10.500  0.7249  1.1404 -1.5585
 3980TIP3    H233432   6.752   2.934  10.561  0.1041 -0.3284  2.0817
 3981TIP3   OH233433   3.401   2.171  17.051 -0.6076 -0.2853 -0.2068
 3981TIP3    H133434   3.427   2.108  17.119 -1.2013  1.1269  1.3962
 3981TIP3    H233435   3.484   2.202  17.014 -0.2962 -1.6733 -0.7484
 3982TIP3   OH233436   3.466   4.311  13.949 -0.1712  0.6935 -0.0426
 3982TIP3    H133437   3.533   4.286  14.012 -0.3510  1.4672  0.4670
 3982TIP3    H233438   3.483   4.255  13.873 -1.3418 -1.9616  1.4799
 3983TIP3   OH233439   4.112   5.080   4.968 -0.5178 -0.1586  0.1483
 3983TIP3    H133440   4.024   5.119   4.969 -1.4292 -2.0808 -0.1258
 3983TIP3    H233441   4.128   5.058   5.060  0.2002  1.2030  0.3782
 3984TIP3   OH233442   3.296   0.370   1.466 -0.3290 -0.6482 -0.4722
 3984TIP3    H133443   3.264   0.451   1.504 -1.6720 -0.6373 -1.5408
 3984TIP3    H233444   3.262   0.301   1.522  0.0701 -0.5215 -0.0689
 3985TIP3   OH233445   3.249   4.107   2.046 -0.1395 -0.6350  0.0266
 3985TIP3    H133446   3.185   4.139   2.109 -2.5784  1.6763 -3.2988
 3985TIP3    H233447   3.310   4.180   2.034  1.9241 -1.9992  1.4639
 3986TIP3   OH233448   6.224   6.060   0.927 -0.0581 -0.2011  0.2617
 3986TIP3    H133449   6.160   6.008   0.976 -0.2107 -1.2737 -1.0199
 3986TIP3    H233450   6.305   6.009   0.930  0.3369  0.4359  0.6223
 3987TIP3   OH233451   3.498   4.988   6.378 -0.0923 -0.4078 -0.0589
 3987TIP3    H133452   3.524   5.071   6.417  0.3911 -0.2591 -0.6794
 3987TIP3    H233453   3.413   5.005   6.339 -0.5359 -0.5320  0.8372
 3988TIP3   OH233454   6.374   6.387  11.553  0.4017 -0.1054  0.0141
 3988TIP3    H133455   6.323   6.357  11.628 -1.0275  0.3158 -0.7642
 3988TIP3    H233456   6.462   6.403  11.589 -0.0840 -0.4964  1.4469
 3989TIP3   OH233457   3.437   3.642  16.148 -0.4727  0.1712 -0.2273
 3989TIP3    H133458   3.410   3.559  16.109 -0.6955  0.4323 -0.6348
 3989TIP3    H233459   3.438   3.704  16.075 -0.7597  0.6320  0.1488
 3990TIP3   OH233460   2.765   4.166   1.454 -0.5821 -0.4559  0.1448
 3990TIP3    H133461   2.824   4.241   1.448 -0.4565 -0.6235 -0.9186
 3990TIP3    H233462   2.821   4.093   1.481 -0.0528 -0.8412 -1.8253
 3991TIP3   OH233463   3.637   1.211  16.982 -0.1746 -0.2925  1.0331
 3991TIP3    H133464   3.630   1.306  16.983  0.1874 -0.2604  2.1580
 3991TIP3    H233465   3.724   1.193  17.018  0.2282 -1.0270 -0.2430
 3992TIP3   OH233466   3.532   5.391  11.670 -0.8294  0.2730  0.2087
 3992TIP3    H133467   3.481   5.419  11.594 -0.6175 -0.4111 -0.1926
 3992TIP3    H233468   3.563   5.472  11.709  0.1677  0.6075 -1.2020
 3993TIP3   OH233469   0.611   0.048  11.246  0.6694 -0.5758 -0.2089
 3993TIP3    H133470   0.556  -0.005  11.189 -2.6983 -0.4428  2.5674
 3993TIP3    H233471   0.597   0.138  11.216  0.6412 -0.6803 -0.5070
 3994TIP3   OH233472   0.496   2.294   1.404 -0.3093 -0.7837  0.3007
 3994TIP3    H133473   0.442   2.325   1.477  0.6259 -0.1163  0.7338
 3994TIP3    H233474   0.552   2.226   1.443 -0.9545 -1.6246 -0.1932
 3995TIP3   OH233475   6.203   6.388   4.255 -0.4635  0.3484 -0.1785
 3995TIP3    H133476   6.280   6.340   4.285 -0.6164 -0.0258 -0.3737
 3995TIP3    H233477   6.145   6.320   4.222  0.4646  0.8319 -3.1002
 3996TIP3   OH233478   2.995   0.901  14.528 -0.0405  0.0779 -0.2408
 3996TIP3    H133479   3.090   0.902  14.545 -0.1819 -0.1111  0.6022
 3996TIP3    H233480   2.986   0.938  14.440  0.8513 -0.3011 -0.4989
 3997TIP3   OH233481   3.314   1.719  15.976 -0.0268 -0.1578 -0.0830
 3997TIP3    H133482   3.315   1.641  15.921  0.0330  0.9075 -1.6767
 3997TIP3    H233483   3.373   1.699  16.048  0.3232 -1.4272 -0.6982
 3998TIP3   OH233484   4.458   0.825   2.075 -0.0936 -0.0942  0.7110
 3998TIP3    H133485   4.389   0.878   2.114 -2.0557 -1.7375 -0.3429
 3998TIP3    H233486   4.444   0.737   2.110  0.9888 -0.6272 -0.1165
 3999TIP3   OH233487   2.854   6.176  15.665  0.6781  0.4047 -0.1861
 3999TIP3    H133488   2.869   6.120  15.590  0.7911  0.7928 -0.4586
 3999TIP3    H233489   2.759   6.184  15.671  0.6809  0.9073 -0.6955
 4000TIP3   OH233490   6.457   4.748   0.650  0.0649 -0.1572 -0.3291
 4000TIP3    H133491   6.419   4.778   0.732  2.4790  0.7762  0.5130
 4000TIP3    H233492   6.458   4.826   0.594 -0.8220 -0.5965 -0.9814
 4001TIP3   OH233493   4.238   2.792   4.598 -0.3294  0.4246 -0.4195
 4001TIP3    H133494   4.308   2.736   4.567 -0.6081  0.1923 -0.6321
 4001TIP3    H233495   4.221   2.852   4.525 -1.2840 -0.4021 -0.9107
 4002TIP3   OH233496   3.034   0.485  12.813  0.2229  0.7129  0.3940
 4002TIP3    H133497   3.068   0.572  12.794  1.1897  0.3593  0.4524
 4002TIP3    H233498   2.975   0.465  12.740  0.3123  1.2450  0.1749
 4003TIP3   OH233499   1.001   0.789  10.674  0.1347  0.2105 -0.0690
 4003TIP3    H133500   0.998   0.883  10.692 -2.1300  0.5710 -1.9039
 4003TIP3    H233501   1.073   0.779  10.612 -0.5382  0.9921 -1.0031
 4004TIP3   OH233502   1.232   4.678  16.141 -0.0042 -0.4297  0.2827
 4004TIP3    H133503   1.279   4.716  16.215  1.0612 -0.6104 -0.2705
 4004TIP3    H233504   1.271   4.592  16.129 -0.9114 -0.8382  0.1799
 4005TIP3   OH233505   2.983   5.824   1.619 -0.7998  0.6582 -0.7457
 4005TIP3    H133506   3.007   5.875   1.542 -3.2250 -0.2935 -2.2373
 4005TIP3    H233507   2.991   5.733   1.591 -1.1103  0.2850  0.3280
 4006TIP3   OH233508   1.274   2.724   1.375  0.0544  0.0721 -0.8981
 4006TIP3    H133509   1.324   2.799   1.408  0.9994 -0.2677 -1.5109
 4006TIP3    H233510   1.202   2.762   1.326  0.6047  0.5860 -1.3174
 4007TIP3   OH233511   6.201   0.303  13.375  0.1490 -0.0791  0.4268
 4007TIP3    H133512   6.268   0.321  13.441  0.5740  1.4376 -0.3681
 4007TIP3    H233513   6.227   0.355  13.300 -1.2808 -0.4043 -0.3284
 4008TIP3   OH233514   3.072   2.281  12.299  0.1835 -0.6392  0.1519
 4008TIP3    H133515   3.146   2.330  12.336 -1.0542  0.0228  1.8452
 4008TIP3    H233516   3.114   2.212  12.247  1.9845  1.3631 -1.2656
 4009TIP3   OH233517   4.939   4.339   1.937  0.1707  0.1878 -0.2120
 4009TIP3    H133518   4.943   4.391   2.018  1.0071 -0.7360  0.3687
 4009TIP3    H233519   4.941   4.404   1.867 -1.7000  1.0759  0.4904
 4010TIP3   OH233520   5.389   2.871   0.180  0.2512 -0.3977  0.0209
 4010TIP3    H133521   5.316   2.899   0.124 -0.9390 -0.7349  1.3516
 4010TIP3    H233522   5.395   2.940   0.247  0.5793 -0.8186  0.4274
 4011TIP3   OH233523   4.117   1.129   3.046  0.2060  0.0221 -0.0328
 4011TIP3    H133524   4.072   1.207   3.014  1.3419  0.3479 -0.9057
 4011TIP3    H233525   4.122   1.141   3.141  1.2065  1.5014 -0.2384
 4012TIP3   OH233526   1.224   0.156  15.973  0.0004  0.1218  0.0783
 4012TIP3    H133527   1.183   0.226  16.023  2.4431  0.6196  1.5773
 4012TIP3    H233528   1.296   0.198  15.927  0.4959 -1.1216 -0.3230
 4013TIP3   OH233529   3.506   5.894  15.196 -0.1400 -0.8637  0.3970
 4013TIP3    H133530   3.461   5.906  15.112  1.1996 -0.0332 -0.2429
 4013TIP3    H233531   3.534   5.803  15.195  0.7253 -0.6088 -0.5333
 4014TIP3   OH233532   0.203   0.278   2.156 -0.0019 -0.1869  0.0456
 4014TIP3    H133533   0.268   0.237   2.214 -0.2803  0.8308  1.1113
 4014TIP3    H233534   0.150   0.332   2.214  0.3291  1.6659 -1.2894
 4015TIP3   OH233535   4.951   0.831  13.630  0.8921  0.0806 -0.7948
 4015TIP3    H133536   4.875   0.865  13.676  0.9252 -1.4232  0.4522
 4015TIP3    H233537   4.952   0.879  13.547 -1.9574 -0.5043 -1.2809
 4016TIP3   OH233538   0.168   6.319  16.522 -0.0399 -0.0419 -0.4214
 4016TIP3    H133539   0.167   6.368  16.604  0.7653 -0.5445 -0.0995
 4016TIP3    H233540   0.184   6.385  16.455  1.1231  0.1529  0.0176
 4017TIP3   OH233541   0.939   0.013   0.899  0.7799 -0.6477 -0.0062
 4017TIP3    H133542   0.976   0.051   0.980  0.0359 -1.9723  0.9963
 4017TIP3    H233543   0.883  -0.058   0.930 -0.1402 -0.6810 -1.6741
 4018TIP3   OH233544   0.415   0.441  11.904 -0.4674  0.7395  0.9351
 4018TIP3    H133545   0.438   0.359  11.859  0.2454  1.2830  0.2959
 4018TIP3    H233546   0.496   0.468  11.947 -0.7451  1.0280  1.2842
 4019TIP3   OH233547   4.894   1.398   4.134 -0.6495  0.1272  0.0502
 4019TIP3    H133548   4.821   1.390   4.072 -2.3067  2.3541  1.5880
 4019TIP3    H233549   4.955   1.458   4.091 -0.2445 -0.8183 -0.7336
 4020TIP3   OH233550   5.572   0.264   2.350  0.6433  0.0578 -0.0874
 4020TIP3    H133551   5.574   0.321   2.426  1.5482  1.0722 -0.8329
 4020TIP3    H233552   5.631   0.192   2.373  0.0010 -0.2544  0.6097
 4021TIP3   OH233553   4.338   0.348  15.237  0.0512 -0.1649  0.1669
 4021TIP3    H133554   4.379   0.332  15.152  1.3938 -0.3918  0.8190
 4021TIP3    H233555   4.329   0.443  15.242 -1.6304 -0.2231 -0.9067
 4022TIP3   OH233556   0.021   2.789  14.921  0.0336  0.1539  0.1441
 4022TIP3    H133557  -0.000   2.741  15.001 -1.1412 -0.4806 -0.5296
 4022TIP3    H233558   0.082   2.857  14.950 -1.0426  0.4962  1.7416
 4023TIP3   OH233559   5.415   4.584  14.501  0.4298 -0.0639 -0.4132
 4023TIP3    H133560   5.376   4.552  14.582  0.5939  0.8265  0.0311
 4023TIP3    H233561   5.440   4.505  14.453 -1.2662 -0.6521 -0.3981
 4024TIP3   OH233562   3.062   0.709   3.226  0.1415  0.2247 -0.3443
 4024TIP3    H133563   3.028   0.798   3.230 -0.5137  0.0143 -0.8890
 4024TIP3    H233564   3.002   0.664   3.165 -0.0959 -0.8151  0.6308
 4025TIP3   OH233565   4.728   3.153   4.253 -0.8467  0.1550  0.6371
 4025TIP3    H133566   4.814   3.118   4.277  0.6787  2.0280 -1.5945
 4025TIP3    H233567   4.712   3.119   4.165 -2.4114 -0.1244  1.0050
 4026TIP3   OH233568   1.217   3.300   0.614 -1.0572 -0.2323  0.2714
 4026TIP3    H133569   1.253   3.388   0.603 -1.2166  0.1471  2.3052
 4026TIP3    H233570   1.134   3.302   0.567 -0.6606  0.4039 -0.4274
 4027TIP3   OH233571   4.346   4.514   1.916 -0.3029 -0.3848  0.2164
 4027TIP3    H133572   4.256   4.535   1.894 -0.8280  0.0889  2.4795
 4027TIP3    H233573   4.386   4.599   1.936  1.1875 -0.3890 -2.3280
 4028TIP3   OH233574   0.024   3.898   3.266 -0.5230  0.4604  0.0247
 4028TIP3    H133575   0.013   3.948   3.185 -2.6454  0.9496  0.5617
 4028TIP3    H233576   0.118   3.878   3.269 -0.4792 -0.3538 -2.9902
 4029TIP3   OH233577   4.592   1.877  15.785  0.1100  0.1793 -0.0120
 4029TIP3    H133578   4.639   1.845  15.863 -0.3776  1.1773  0.7040
 4029TIP3    H233579   4.661   1.915  15.730  0.5759 -1.2627 -0.4759
 4030TIP3   OH233580   4.616   4.376  10.863 -0.0373  0.0851 -0.4465
 4030TIP3    H133581   4.654   4.294  10.830 -1.6777 -0.7100 -0.4583
 4030TIP3    H233582   4.666   4.445  10.819  1.1730 -0.8968 -0.6718
 4031TIP3   OH233583   0.357   4.075  13.091 -0.9257 -0.7747 -0.2283
 4031TIP3    H133584   0.342   4.113  13.178 -0.4277 -1.1396  0.0289
 4031TIP3    H233585   0.288   4.010  13.081 -2.2504  0.6908 -0.9916
 4032TIP3   OH233586   4.376   2.500  11.153 -0.5986  0.0234  0.5368
 4032TIP3    H133587   4.358   2.406  11.162 -2.9236  0.4506  0.9718
 4032TIP3    H233588   4.347   2.522  11.065 -0.8102  0.4774  0.7141
 4033TIP3   OH233589   2.509   3.383   5.503 -0.3229 -0.2651 -0.5566
 4033TIP3    H133590   2.588   3.335   5.479 -0.9503 -1.8417  0.3944
 4033TIP3    H233591   2.442   3.350   5.444 -0.3336  1.0145 -1.3113
 4034TIP3   OH233592   3.078   2.198   0.853 -0.0652  0.1196  0.3721
 4034TIP3    H133593   2.991   2.184   0.889  0.4460  0.1871  1.6971
 4034TIP3    H233594   3.133   2.132   0.896  0.3001 -0.8952 -1.5170
 4035TIP3   OH233595   6.714   3.686   2.146  0.0298  0.6628 -0.2906
 4035TIP3    H133596   6.715   3.742   2.069  1.1549  1.7987  0.5047
 4035TIP3    H233597   6.659   3.732   2.209 -0.9954 -0.3248 -0.4291
 4036TIP3   OH233598   4.370   6.045   4.198 -0.3109  0.2351  0.0036
 4036TIP3    H133599   4.449   6.099   4.197 -0.7332  0.9467  1.4673
 4036TIP3    H233600   4.367   6.005   4.112  1.3175  0.6674 -0.2887
 4037TIP3   OH233601   4.657   4.601   4.775 -0.4961 -0.0089 -0.0012
 4037TIP3    H133602   4.606   4.635   4.701  0.0578 -1.8982 -1.3372
 4037TIP3    H233603   4.744   4.583   4.738  0.0601 -0.1691  1.3363
 4038TIP3   OH233604   6.426   5.811   5.293  0.4013  0.6660 -0.1631
 4038TIP3    H133605   6.470   5.810   5.378 -0.9674  1.2793  0.5931
 4038TIP3    H233606   6.334   5.795   5.314  0.0238  0.9870 -1.5073
 4039TIP3   OH233607   3.520   4.169  13.691  0.1695 -0.2226  0.4016
 4039TIP3    H133608   3.442   4.180  13.637 -0.9028  0.5338  2.0376
 4039TIP3    H233609   3.582   4.234  13.658 -0.6591  0.5931  0.4288
 4040TIP3   OH233610   2.478   3.000  14.217 -0.4452  0.2781 -0.0902
 4040TIP3    H133611   2.527   2.934  14.168 -0.0509  0.6988 -0.2761
 4040TIP3    H233612   2.393   3.005  14.172 -0.4932 -0.1297 -0.0468
 4041TIP3   OH233613   6.602   2.583  12.419  0.0238  0.6170 -0.1049
 4041TIP3    H133614   6.524   2.528  12.409 -0.1446  0.6743  0.7971
 4041TIP3    H233615   6.611   2.627  12.334 -0.2983 -0.1953 -0.5808
 4042TIP3   OH233616   3.411   4.343   2.637  0.6014 -0.5988 -0.6039
 4042TIP3    H133617   3.429   4.423   2.587 -0.1062  0.0618  0.1648
 4042TIP3    H233618   3.331   4.308   2.597 -0.2153  0.1656  0.2991
 4043TIP3   OH233619   0.386   2.684  16.570 -0.0941  0.4825  0.0537
 4043TIP3    H133620   0.309   2.727  16.534  0.5363  1.4147 -0.2137
 4043TIP3    H233621   0.364   2.667  16.662 -1.4076 -1.1793 -0.5240
 4044TIP3   OH233622   0.932   0.789  14.984 -0.3221  0.1535 -0.0395
 4044TIP3    H133623   0.924   0.885  14.980 -2.8860  0.1631  2.2493
 4044TIP3    H233624   0.864   0.758  14.924  0.7819 -0.3179 -1.1025
 4045TIP3   OH233625   1.947   1.191   0.582 -0.0761 -0.0975  0.5607
 4045TIP3    H133626   1.918   1.118   0.635 -0.6026 -1.1584 -1.1056
 4045TIP3    H233627   2.042   1.178   0.572 -0.0217 -0.0413  0.9869
 4046TIP3   OH233628   2.535   0.531  11.541 -0.0269  0.4265  0.4026
 4046TIP3    H133629   2.591   0.517  11.465  0.9614 -0.2765  1.2308
 4046TIP3    H233630   2.452   0.490  11.517  0.8334 -1.3919  0.3492
 4047TIP3   OH233631   0.157   2.169  15.269  0.5970 -0.1557  0.5947
 4047TIP3    H133632   0.070   2.134  15.254  0.5161  0.8726 -1.7129
 4047TIP3    H233633   0.153   2.204  15.358 -1.4682  0.1920  0.4227
 4048TIP3   OH233634   0.111   6.056   3.874  0.3122 -0.1941 -0.4840
 4048TIP3    H133635   0.036   6.095   3.830  0.8639  0.4154 -0.9007
 4048TIP3    H233636   0.187   6.100   3.837  0.9144 -1.1423 -0.4148
 4049TIP3   OH233637   3.261   3.013   3.538 -0.2774  0.0657  0.7465
 4049TIP3    H133638   3.249   3.053   3.452 -0.0382 -0.3530  0.5176
 4049TIP3    H233639   3.309   2.932   3.521  2.8864  1.6187  1.6299
 4050TIP3   OH233640   6.390   3.319   1.934 -0.2445 -0.5104 -0.0038
 4050TIP3    H133641   6.341   3.257   1.988  0.8898 -1.1018  0.3925
 4050TIP3    H233642   6.355   3.405   1.958 -2.5750 -1.0095 -1.3152
 4051TIP3   OH233643   1.585   0.161  12.517 -0.3276 -0.2505 -0.1054
 4051TIP3    H133644   1.533   0.156  12.597  0.6489 -0.3210  0.5365
 4051TIP3    H233645   1.565   0.247  12.481 -0.4888 -0.0715  0.4073
 4052TIP3   OH233646   3.279   5.573  13.475 -0.0506 -0.0900  0.1756
 4052TIP3    H133647   3.270   5.668  13.463  0.1252  0.1206  1.6088
 4052TIP3    H233648   3.356   5.550  13.423  1.5652  1.0365  1.9430
 4053TIP3   OH233649   1.345   3.563  16.630  0.0675 -0.0347  0.3291
 4053TIP3    H133650   1.289   3.557  16.553  0.4354  0.2795  0.0293
 4053TIP3    H233651   1.287   3.546  16.704 -0.2021 -0.7587 -0.0415
 4054TIP3   OH233652   3.671   5.131  12.188  0.0168  0.2367 -0.4696
 4054TIP3    H133653   3.593   5.084  12.218 -0.0155  0.5314 -0.0917
 4054TIP3    H233654   3.638   5.197  12.127 -0.1057  0.7970  0.1894
 4055TIP3   OH233655   4.805   1.123  16.712  0.3711  0.8381 -0.4233
 4055TIP3    H133656   4.884   1.176  16.722 -0.2797  2.1780 -2.0134
 4055TIP3    H233657   4.837   1.036  16.687  1.4252  0.5671  1.6593
 4056TIP3   OH233658   5.626   6.735  13.011 -0.1704  0.0345  0.0818
 4056TIP3    H133659   5.638   6.755  13.104  1.5620 -2.3604  0.4742
 4056TIP3    H233660   5.715   6.733  12.976 -0.7709  0.4240 -1.5410
 4057TIP3   OH233661   3.542   1.816  13.330  0.8914 -0.2808  0.5492
 4057TIP3    H133662   3.632   1.802  13.360  1.3918  2.7136  0.7756
 4057TIP3    H233663   3.551   1.862  13.247 -0.2636  2.8040  1.9731
 4058TIP3   OH233664   2.864   6.766   6.438 -0.7454 -0.0942  0.5793
 4058TIP3    H133665   2.799   6.771   6.507 -0.8019  0.3232  0.5008
 4058TIP3    H233666   2.858   6.850   6.393 -1.6500 -0.8532 -0.7911
 4059TIP3   OH233667   6.271   1.281  16.033  0.3807  0.0331 -0.1008
 4059TIP3    H133668   6.176   1.274  16.041  0.4717  0.3215  1.7114
 4059TIP3    H233669   6.290   1.374  16.039  0.7807 -0.0223 -0.4331
 4060TIP3   OH233670   1.590   0.142  13.897  0.1142  0.5744  0.1167
 4060TIP3    H133671   1.506   0.115  13.861 -0.2802 -1.2604  2.2342
 4060TIP3    H233672   1.655   0.111  13.833 -0.6810 -0.2152 -0.3284
 4061TIP3   OH233673   4.971   6.593   6.411  0.1714  0.0277 -0.0286
 4061TIP3    H133674   4.923   6.670   6.441 -0.2104 -0.0957 -0.3171
 4061TIP3    H233675   4.991   6.611   6.319 -1.9949 -1.2126 -0.8071
 4062TIP3   OH233676   6.636   4.864   2.833  0.3748 -0.1291  0.2829
 4062TIP3    H133677   6.671   4.928   2.895 -0.3667  2.9229 -2.2027
 4062TIP3    H233678   6.553   4.902   2.804  0.6062 -1.5016 -2.4088
 4063TIP3   OH233679   5.598   1.613   1.146 -0.0373  0.5658 -0.4826
 4063TIP3    H133680   5.526   1.551   1.137  0.0057  0.4204  0.1454
 4063TIP3    H233681   5.657   1.593   1.074 -0.9933  1.1866 -1.4729
 4064TIP3   OH233682   2.276   6.221   0.077 -0.5056  0.3529 -0.1628
 4064TIP3    H133683   2.328   6.254   0.152  0.7760  0.3534 -1.0187
 4064TIP3    H233684   2.186   6.243   0.099  0.0291  1.9302  0.5984
 4065TIP3   OH233685   0.312   6.696   5.804 -0.1088  0.5328  0.3537
 4065TIP3    H133686   0.380   6.714   5.869  1.0330 -1.7250 -0.1171
 4065TIP3    H233687   0.279   6.609   5.828  1.5649 -1.2155 -2.9604
 4066TIP3   OH233688   3.943   2.850  11.077 -0.7731 -0.2822  0.3945
 4066TIP3    H133689   3.943   2.935  11.034  0.6116 -0.1183  0.6672
 4066TIP3    H233690   3.867   2.852  11.135 -1.9538 -0.0419 -1.0965
 4067TIP3   OH233691   4.372   3.894   4.654  0.2747 -0.1929  0.2184
 4067TIP3    H133692   4.330   3.975   4.685  0.6876  0.0215  0.2277
 4067TIP3    H233693   4.300   3.836   4.633 -0.0392  0.4010 -0.3781
 4068TIP3   OH233694   5.032   4.517   2.525  0.2521  0.1685 -0.0984
 4068TIP3    H133695   4.972   4.446   2.503 -0.7594  0.8551  0.3666
 4068TIP3    H233696   5.022   4.580   2.453  0.4526  0.2615 -0.0454
 4069TIP3   OH233697   5.549   6.743   4.639 -0.7276 -0.3524  0.0957
 4069TIP3    H133698   5.461   6.727   4.673 -0.2398 -0.8111  1.1743
 4069TIP3    H233699   5.575   6.826   4.679 -0.8843  0.0861 -0.6881
 4070TIP3   OH233700   2.406   3.992   3.137  0.2264 -0.5000  0.2919
 4070TIP3    H133701   2.475   3.993   3.204  0.6805  0.7041 -0.1634
 4070TIP3    H233702   2.335   3.942   3.178  0.6502 -0.1539  1.5194
 4071TIP3   OH233703   3.919   2.297  15.942 -0.2656  0.2228 -0.5644
 4071TIP3    H133704   3.963   2.376  15.972 -1.2602  0.1624  1.2519
 4071TIP3    H233705   3.987   2.245  15.900  0.5814  1.6472 -1.0082
 4072TIP3   OH233706   3.878   1.785   3.418  0.2965 -0.4417 -0.2045
 4072TIP3    H133707   3.942   1.807   3.350 -0.0869 -1.9864 -1.1288
 4072TIP3    H233708   3.931   1.763   3.494  0.7997 -0.1066 -0.4541
 4073TIP3   OH233709   1.995   2.908   0.002 -0.0696 -0.5743  0.0680
 4073TIP3    H133710   2.032   2.831   0.044  0.5293  0.0620  0.7383
 4073TIP3    H233711   2.060   2.977   0.017  0.6661 -0.5362 -2.7955
 4074TIP3   OH233712   4.564   4.800   2.393  0.1153  0.2214 -0.9023
 4074TIP3    H133713   4.574   4.747   2.314 -0.0702  0.8061 -1.3250
 4074TIP3    H233714   4.585   4.889   2.365 -0.2705  0.4854 -0.3651
 4075TIP3   OH233715   4.015   5.078   4.382 -0.2987 -0.3005 -0.0296
 4075TIP3    H133716   4.002   5.144   4.451 -2.7672  0.1478 -0.8175
 4075TIP3    H233717   3.990   4.995   4.423 -1.4228 -0.0833 -0.2396
 4076TIP3   OH233718   0.597   5.765  12.108  0.2945  0.0990 -0.2303
 4076TIP3    H133719   0.569   5.732  12.023  3.1177 -0.5995 -0.9934
 4076TIP3    H233720   0.682   5.723  12.124  0.1577  0.7042  2.6491
 4077TIP3   OH233721   1.110   5.331  13.236 -0.4826  0.1522 -0.0242
 4077TIP3    H133722   1.117   5.266  13.166  0.2898  0.5848 -0.3644
 4077TIP3    H233723   1.095   5.280  13.315 -0.8783 -0.3751 -0.4312
 4078TIP3   OH233724   0.438   6.107   0.489 -0.8943 -0.0563  0.0075
 4078TIP3    H133725   0.475   6.133   0.574  0.8294  1.8998 -1.2698
 4078TIP3    H233726   0.384   6.181   0.463 -0.8578 -0.3614 -0.9512
 4079TIP3   OH233727   2.381   0.556  15.183 -0.4499  0.0849 -0.0519
 4079TIP3    H133728   2.313   0.620  15.163 -2.0928 -1.5984 -0.1333
 4079TIP3    H233729   2.413   0.528  15.098  1.1423  1.5747 -0.0181
 4080TIP3   OH233730   5.499   2.310   2.054 -0.3479 -0.0518  0.4505
 4080TIP3    H133731   5.568   2.270   1.999 -0.5845 -0.2568  0.2983
 4080TIP3    H233732   5.532   2.398   2.073 -0.3958  0.1323 -0.2756
 4081TIP3   OH233733   0.999   1.650  11.050  0.0293  0.2719 -0.0901
 4081TIP3    H133734   0.986   1.615  11.139  0.0443 -1.2509 -0.6577
 4081TIP3    H233735   0.973   1.742  11.057  2.5583  0.9441  2.1180
 4082TIP3   OH233736   2.750   2.607  16.187  0.1642 -0.3379 -0.0595
 4082TIP3    H133737   2.664   2.566  16.171 -0.7916  1.5182  0.1316
 4082TIP3    H233738   2.769   2.585  16.278 -1.5308  1.6369  0.8487
 4083TIP3   OH233739   0.261   1.522  16.126 -0.7392  0.3153 -0.0161
 4083TIP3    H133740   0.339   1.487  16.081  0.4677  2.3229  0.3648
 4083TIP3    H233741   0.246   1.461  16.198 -0.2251 -0.7379 -0.7672
 4084TIP3   OH233742   6.750   6.471  16.476 -0.1001 -0.3640 -0.0612
 4084TIP3    H133743   6.765   6.539  16.541 -1.4349 -1.0084  0.9618
 4084TIP3    H233744   6.827   6.415  16.481  0.4740  0.3964 -0.0978
 4085TIP3   OH233745   1.782   4.056  15.205 -0.1667  0.5620 -0.2186
 4085TIP3    H133746   1.762   3.980  15.260  1.8564  0.0015 -0.1642
 4085TIP3    H233747   1.702   4.107  15.205 -0.9960 -0.6395  1.2791
 4086TIP3   OH233748   0.636   4.769  17.139 -0.0356  0.0729  0.0509
 4086TIP3    H133749   0.715   4.736  17.097 -0.4826 -0.4606 -0.3893
 4086TIP3    H233750   0.617   4.706  17.209 -0.8430 -0.5960 -0.7373
 4087TIP3   OH233751   5.892   3.548  16.689  0.1711  0.1217  0.2918
 4087TIP3    H133752   5.816   3.597  16.722  0.3710  0.0102  0.9400
 4087TIP3    H233753   5.953   3.545  16.763  0.2568 -0.9245  0.1979
 4088TIP3   OH233754   5.312   3.681  17.069  0.1021  0.1954  0.5115
 4088TIP3    H133755   5.398   3.722  17.078 -0.0205  0.3102  1.2687
 4088TIP3    H233756   5.316   3.605  17.127  0.1445 -0.5781 -0.4768
 4089TIP3   OH233757   0.622   6.549   4.596  0.0142  0.0668  0.2863
 4089TIP3    H133758   0.655   6.471   4.553 -1.9262  0.8711 -3.0608
 4089TIP3    H233759   0.578   6.517   4.674  1.0482 -1.9009  0.1213
 4090TIP3   OH233760   1.221   4.711  13.599  0.5796  0.1460 -0.0884
 4090TIP3    H133761   1.288   4.685  13.535 -1.4688 -0.1581 -2.2438
 4090TIP3    H233762   1.219   4.807  13.592  0.3417  0.1129 -0.5232
 4091TIP3   OH233763   6.667   1.142   4.376 -0.4593  0.4115  0.3969
 4091TIP3    H133764   6.705   1.057   4.354 -0.0657  0.9009 -0.9000
 4091TIP3    H233765   6.718   1.172   4.452  0.3883  0.1534 -0.0611
 4092TIP3   OH233766   4.641   4.426   1.960 -0.2751 -0.3746  0.7163
 4092TIP3    H133767   4.690   4.452   1.882  1.6754 -4.1654  0.4416
 4092TIP3    H233768   4.568   4.373   1.927 -0.7194 -0.2169  1.4108
 4093TIP3   OH233769   1.880   2.557   5.321 -0.2210  0.0108  0.9665
 4093TIP3    H133770   1.969   2.524   5.334  0.2982  0.8467 -0.2273
 4093TIP3    H233771   1.873   2.630   5.383 -0.6653 -1.0420  2.1930
 4094TIP3   OH233772   5.377   0.705  16.786 -0.5240  0.2618 -0.0514
 4094TIP3    H133773   5.454   0.650  16.778 -1.1542 -0.6098 -0.2025
 4094TIP3    H233774   5.366   0.718  16.881 -0.5725 -0.1557 -0.0002
 4095TIP3   OH233775   1.223   6.496  15.279 -0.1346  0.0716  0.1770
 4095TIP3    H133776   1.270   6.414  15.263  0.3840  0.7825 -2.4523
 4095TIP3    H233777   1.286   6.565  15.258 -1.4821  1.0750 -0.8148
 4096TIP3   OH233778   3.334   5.925   2.160 -0.6389  0.4144 -0.3234
 4096TIP3    H133779   3.273   5.853   2.146 -1.5342  0.8228  1.2028
 4096TIP3    H233780   3.280   6.004   2.159 -0.1552  0.7953  0.9829
 4097TIP3   OH233781   6.800   2.755   5.543  0.0690  1.0212 -0.5507
 4097TIP3    H133782   6.721   2.800   5.514  0.5903  3.2325  1.1396
 4097TIP3    H233783   6.776   2.718   5.628  0.2612 -0.1422 -0.9951
 4098TIP3   OH233784   2.757   2.419   3.110  0.0451 -0.1111  0.2251
 4098TIP3    H133785   2.799   2.344   3.152 -1.5479 -0.3328  1.5414
 4098TIP3    H233786   2.747   2.483   3.181  0.7349  1.0796 -0.7215
 4099TIP3   OH233787   4.066   6.124   3.078 -0.2896 -0.0600  0.1718
 4099TIP3    H133788   4.042   6.038   3.111 -0.4811  1.0257  3.1394
 4099TIP3    H233789   3.984   6.162   3.047 -0.6043 -0.1189  0.9250
 4100TIP3   OH233790   0.739   4.303  16.303 -0.2519  0.7470 -0.3321
 4100TIP3    H133791   0.753   4.396  16.290  2.9721  0.2527 -1.3491
 4100TIP3    H233792   0.721   4.294  16.397 -1.0573  2.3994 -0.3060
 4101TIP3   OH233793   1.069   2.492  15.708 -0.0274  0.5327  0.1865
 4101TIP3    H133794   1.083   2.517  15.617  0.4703  0.0164  0.1102
 4101TIP3    H233795   1.157   2.479  15.743 -0.1923  1.3685  0.9349
 4102TIP3   OH233796   2.013   4.820  16.647 -0.4738  0.1905 -0.1989
 4102TIP3    H133797   2.062   4.883  16.700  0.2691 -0.1044 -0.5172
 4102TIP3    H233798   2.033   4.735  16.686  1.4250 -0.2273 -1.8795
 4103TIP3   OH233799   6.025   0.140   1.544  0.1833 -0.5147  0.2985
 4103TIP3    H133800   5.930   0.143   1.556  0.2845  0.7698  0.9038
 4103TIP3    H233801   6.038   0.172   1.455 -0.0771 -3.1118 -0.7697
 4104TIP3   OH233802   0.390   3.849  16.142 -0.4976 -0.5018  0.4186
 4104TIP3    H133803   0.305   3.806  16.141 -0.2990 -0.8986 -0.0526
 4104TIP3    H233804   0.375   3.934  16.100 -0.9467  0.0246  1.5873
 4105TIP3   OH233805   2.458   4.548   2.374  0.4687 -1.4693 -0.5056
 4105TIP3    H133806   2.537   4.594   2.405 -0.3738  0.4162 -1.0215
 4105TIP3    H233807   2.476   4.529   2.282  0.5456 -1.5793 -0.4687
 4106TIP3   OH233808   0.316   0.228  16.149  0.1197  0.7546  0.4481
 4106TIP3    H133809   0.316   0.133  16.160 -3.1495  0.5641 -0.0519
 4106TIP3    H233810   0.365   0.243  16.068 -0.6125 -0.7085 -0.3126
 4107TIP3   OH233811   1.738   0.077  16.073  0.5148 -0.3863 -0.1390
 4107TIP3    H133812   1.711   0.044  16.158 -0.3166 -1.9506 -0.9488
 4107TIP3    H233813   1.663   0.060  16.016  0.8113  1.2165 -1.0560
 4108TIP3   OH233814   2.921   5.054   5.637  0.3119  0.0951 -0.1979
 4108TIP3    H133815   2.882   5.046   5.549 -0.2513 -2.6559  0.2213
 4108TIP3    H233816   3.012   5.080   5.620 -0.7775  3.7177 -1.3286
 4109TIP3   OH233817   3.563   3.956   5.748 -0.0652 -0.4731  0.4085
 4109TIP3    H133818   3.583   3.897   5.676  1.0612  0.3669  0.0122
 4109TIP3    H233819   3.616   4.034   5.731 -2.2702  1.1068  0.3465
 4110TIP3   OH233820   2.685   5.211  13.531  0.6028 -0.2382 -0.7647
 4110TIP3    H133821   2.678   5.127  13.575 -1.6495 -0.4792 -1.4540
 4110TIP3    H233822   2.774   5.241  13.549  0.5788 -1.4886  1.7860
 4111TIP3   OH233823   1.216   3.859  11.052 -0.2612  0.2050 -0.1103
 4111TIP3    H133824   1.275   3.883  10.980 -0.6353 -0.2115 -0.5547
 4111TIP3    H233825   1.133   3.900  11.030 -0.0696  1.0716  0.6845
 4112TIP3   OH233826   6.101   5.326   1.905  0.4263 -0.1969  0.2825
 4112TIP3    H133827   6.017   5.314   1.950  0.2647 -1.2928 -0.2922
 4112TIP3    H233828   6.164   5.337   1.976  0.0424 -1.0176  0.7582
 4113TIP3   OH233829   2.054   6.302   4.693  0.2161  0.0621  0.0307
 4113TIP3    H133830   2.034   6.372   4.755  0.4102  0.1829 -0.0430
 4113TIP3    H233831   1.969   6.267   4.667  0.0625  1.0293 -0.8159
 4114TIP3   OH233832   1.896   0.048   4.620 -0.2543  0.4911  0.3303
 4114TIP3    H133833   1.926  -0.043   4.618  1.3062  0.9717 -0.3418
 4114TIP3    H233834   1.897   0.072   4.712  1.2902  0.4014  0.3608
 4115TIP3   OH233835   0.184   4.126  16.426 -0.1794  0.2289  0.0646
 4115TIP3    H133836   0.089   4.124  16.439 -0.1878 -2.5333  0.1431
 4115TIP3    H233837   0.195   4.116  16.331  0.0525 -0.1240  0.1311
 4116TIP3   OH233838   1.718   0.721   5.116  0.1762 -0.2552 -0.7483
 4116TIP3    H133839   1.642   0.776   5.135  1.1310  1.5267 -1.8327
 4116TIP3    H233840   1.776   0.733   5.192 -0.3857 -1.2275 -0.1489
 4117TIP3   OH233841   6.414   1.098   6.023 -0.1476 -1.0065 -0.0408
 4117TIP3    H133842   6.489   1.120   6.078 -0.1574  0.7474 -0.6531
 4117TIP3    H233843   6.365   1.180   6.016 -1.2535 -1.7175 -0.9623
 4118TIP3   OH233844   5.805   5.518  14.974 -0.7474 -0.3368  0.3405
 4118TIP3    H133845   5.762   5.537  15.057 -0.6642  0.1994  0.2683
 4118TIP3    H233846   5.877   5.582  14.970  0.4586 -1.6077  0.7527
 4119TIP3   OH233847   3.627   1.598  15.099 -0.5596 -0.0348 -0.0374
 4119TIP3    H133848   3.542   1.642  15.101  0.1415  1.4601 -1.4779
 4119TIP3    H233849   3.609   1.510  15.133 -1.9945  1.2874  2.9170
 4120TIP3   OH233850   2.135   5.561   4.388  0.0119 -0.2593 -0.4418
 4120TIP3    H133851   2.216   5.577   4.437 -0.0512  1.1039 -0.7552
 4120TIP3    H233852   2.146   5.611   4.307 -1.1687 -0.0086 -0.4559
 4121TIP3   OH233853   2.248   2.202  14.347  0.7198  0.4228  0.4082
 4121TIP3    H133854   2.252   2.172  14.437  1.2042  1.2086  0.6510
 4121TIP3    H233855   2.206   2.288  14.352 -1.5606 -0.5619 -0.3780
 4122TIP3   OH233856   0.219   6.317  14.395 -0.0310  0.1756  0.2954
 4122TIP3    H133857   0.161   6.393  14.399  0.1510  0.2714  1.6273
 4122TIP3    H233858   0.169   6.251  14.347 -0.9403  0.5160  0.7414
 4123TIP3   OH233859   0.075   4.342   1.466  0.4905 -0.0180  0.1002
 4123TIP3    H133860   0.137   4.310   1.532  1.3162  2.6276  0.6907
 4123TIP3    H233861  -0.003   4.288   1.479  1.0234 -0.3231  2.4863
 4124TIP3   OH233862   0.294   0.642   0.974  0.1583  0.1260 -0.2814
 4124TIP3    H133863   0.315   0.657   0.881  1.8394 -2.1887 -0.3707
 4124TIP3    H233864   0.321   0.723   1.018  0.6306  0.7347 -1.6454
 4125TIP3   OH233865   0.506   2.605   2.110  0.3395  0.4815 -0.0726
 4125TIP3    H133866   0.536   2.629   2.198 -0.1526  1.8656 -0.2602
 4125TIP3    H233867   0.575   2.638   2.051 -0.4252  1.6662 -0.3449
 4126TIP3   OH233868   2.376   5.556  12.866  0.3316  0.2021  0.3241
 4126TIP3    H133869   2.296   5.590  12.905 -0.2256 -0.1441 -0.4661
 4126TIP3    H233870   2.431   5.531  12.940  0.0224  1.1414  0.8863
 4127TIP3   OH233871   6.046   4.634  16.074 -0.3035 -0.2083  0.1139
 4127TIP3    H133872   5.972   4.589  16.033 -1.1691  0.1151  1.2654
 4127TIP3    H233873   6.006   4.706  16.123  0.8319  0.2989  0.3279
 4128TIP3   OH233874   4.066   1.205   4.789 -0.5445  0.0198  0.6691
 4128TIP3    H133875   4.084   1.298   4.804 -1.1616  0.2793 -0.1581
 4128TIP3    H233876   3.971   1.198   4.794 -0.5552 -0.4232 -0.0535
 4129TIP3   OH233877   2.216   1.128   0.519  0.3627  0.4958  0.0864
 4129TIP3    H133878   2.309   1.147   0.510  0.3733  0.2453 -0.3586
 4129TIP3    H233879   2.211   1.033   0.524  0.2353  0.5495  1.4192
 4130TIP3   OH233880   0.263   6.662  12.296  0.4242 -0.3452 -1.0132
 4130TIP3    H133881   0.261   6.658  12.200 -1.3949 -0.9812 -0.9830
 4130TIP3    H233882   0.301   6.578  12.322 -1.2987 -1.2249 -1.1752
 4131TIP3   OH233883   0.748   5.921   0.344  0.1673  0.3723  0.1786
 4131TIP3    H133884   0.776   5.950   0.430  0.0993 -1.1713  0.7528
 4131TIP3    H233885   0.658   5.953   0.336 -0.2773 -0.5708  1.2343
 4132TIP3   OH233886   6.597   1.819   2.211 -0.5416  0.1946 -0.4958
 4132TIP3    H133887   6.646   1.827   2.293  2.6323 -4.8899 -1.4570
 4132TIP3    H233888   6.648   1.869   2.147  0.7550 -1.1686 -0.5575
 4133TIP3   OH233889   5.072   3.498   1.907 -0.6231 -0.3863  0.7846
 4133TIP3    H133890   5.009   3.471   1.974 -1.1896 -2.4059 -0.4625
 4133TIP3    H233891   5.144   3.538   1.956 -1.0812 -1.6445  2.5816
 4134TIP3   OH233892   2.434   0.327   2.086 -0.4617 -0.8900 -0.4935
 4134TIP3    H133893   2.476   0.317   2.172  0.4454 -1.1409 -0.9585
 4134TIP3    H233894   2.501   0.299   2.023 -0.0778  1.9886 -1.4846
 4135TIP3   OH233895   3.700   3.276   2.483 -0.1435 -0.2289 -0.3692
 4135TIP3    H133896   3.667   3.241   2.566  1.6049 -1.2380 -0.0469
 4135TIP3    H233897   3.795   3.279   2.494  0.0775  0.2439 -2.0968
 4136TIP3   OH233898   0.618   3.653   6.291 -0.0919 -0.3797  0.5142
 4136TIP3    H133899   0.638   3.678   6.382  2.8460  0.9695 -0.3817
 4136TIP3    H233900   0.668   3.573   6.277  1.3647  0.6491 -0.5016
 4137TIP3   OH233901   5.744   4.221  11.881  0.3264  0.3102 -0.6116
 4137TIP3    H133902   5.770   4.130  11.862 -0.3625 -0.3639  1.3490
 4137TIP3    H233903   5.735   4.223  11.977 -3.3041  1.4171 -0.8157
 4138TIP3   OH233904   3.762   5.681  13.730 -0.5660  0.0170  0.6531
 4138TIP3    H133905   3.832   5.743  13.750 -0.1671 -0.0291 -0.5038
 4138TIP3    H233906   3.762   5.620  13.803 -0.4410  0.9190  1.4224
 4139TIP3   OH233907   0.955   4.512  12.650 -0.1299  0.0596 -0.0256
 4139TIP3    H133908   0.886   4.562  12.694 -1.5092 -1.1766 -0.6860
 4139TIP3    H233909   0.928   4.511  12.558  2.1067  1.6299 -0.7794
 4140TIP3   OH233910   4.405   2.178  13.891  0.3548 -0.3812  0.3689
 4140TIP3    H133911   4.342   2.191  13.820 -0.9247 -3.2230  0.8442
 4140TIP3    H233912   4.404   2.261  13.940 -0.0116  1.0241 -1.8592
 4141TIP3   OH233913   2.457   2.241   1.950 -0.1741 -0.1848  0.5675
 4141TIP3    H133914   2.509   2.178   1.900 -0.8758 -2.2774  2.3470
 4141TIP3    H233915   2.497   2.242   2.036 -1.1255  0.6338  1.0164
 4142TIP3   OH233916   2.782   2.871  13.806 -0.3208 -0.3166  0.3271
 4142TIP3    H133917   2.754   2.837  13.891  0.0426 -0.9982  0.1871
 4142TIP3    H233918   2.725   2.946  13.790  0.2894  0.4471  1.6294
 4143TIP3   OH233919   0.837   2.466  13.816  0.2557 -0.3268 -0.3157
 4143TIP3    H133920   0.849   2.402  13.745 -0.1074  0.1764 -0.8376
 4143TIP3    H233921   0.761   2.518  13.789  0.0223 -0.2289  0.5226
 4144TIP3   OH233922   1.420   5.183   1.251 -0.7379  0.0251  0.2521
 4144TIP3    H133923   1.408   5.231   1.334 -2.6596 -0.7084  0.4434
 4144TIP3    H233924   1.511   5.153   1.254 -0.4391  0.9598  1.5795
 4145TIP3   OH233925   0.297   3.626   0.856 -0.1652 -0.8112 -0.7884
 4145TIP3    H133926   0.389   3.653   0.862  0.3599 -2.6018 -0.3537
 4145TIP3    H233927   0.272   3.648   0.766  0.1303  1.2860 -0.4188
 4146TIP3   OH233928   5.275   6.086   2.931 -0.3118 -0.1239 -0.0901
 4146TIP3    H133929   5.194   6.034   2.934  0.6174 -1.7587 -1.3459
 4146TIP3    H233930   5.335   6.039   2.989 -0.5698  1.7848  1.8506
 4147TIP3   OH233931   6.297   3.228  16.395 -0.5587 -0.0082  0.6428
 4147TIP3    H133932   6.293   3.135  16.369 -0.4950 -0.3593  1.8418
 4147TIP3    H233933   6.216   3.242  16.444 -1.6277  1.1682 -1.3030
 4148TIP3   OH233934   5.948   0.526   5.091 -0.5449  0.0368  0.1782
 4148TIP3    H133935   5.864   0.482   5.102 -0.6271  0.5685  1.9245
 4148TIP3    H233936   5.933   0.615   5.123  0.3508  0.5282 -0.7036
 4149TIP3   OH233937   2.621   0.118   0.443  0.3003  0.2508 -0.0105
 4149TIP3    H133938   2.538   0.070   0.444  1.0676 -1.1594  1.6345
 4149TIP3    H233939   2.601   0.202   0.485 -0.7449  0.8477 -1.6255
 4150TIP3   OH233940   2.944   2.313   5.535  0.1193  0.7197  0.1240
 4150TIP3    H133941   2.886   2.317   5.610 -0.6937  0.1442 -0.4555
 4150TIP3    H233942   2.950   2.403   5.504  0.1699  0.9019  0.6541
 4151TIP3   OH233943   0.322   1.886  14.780  0.2360  0.6782 -0.3360
 4151TIP3    H133944   0.307   1.962  14.837  0.9383  1.8263 -1.6117
 4151TIP3    H233945   0.363   1.821  14.837 -0.9598  0.9943  0.9409
 4152TIP3   OH233946   5.094   6.322   5.901 -0.2371 -0.1765  0.4074
 4152TIP3    H133947   5.027   6.304   5.966  0.9297 -1.7589  1.2403
 4152TIP3    H233948   5.151   6.245   5.903  0.9519  0.6101 -1.0807
 4153TIP3   OH233949   1.836   5.823  12.422  0.2212 -0.2791 -0.2545
 4153TIP3    H133950   1.793   5.756  12.476 -2.0990  0.2180 -1.3485
 4153TIP3    H233951   1.780   5.900  12.432  1.3533  0.6865 -1.1443
 4154TIP3   OH233952   3.229   3.240  13.179 -0.3744  0.1858 -0.1642
 4154TIP3    H133953   3.290   3.188  13.231 -1.9595  0.2665  1.8770
 4154TIP3    H233954   3.236   3.328  13.215 -1.2507  0.3233 -0.3076
 4155TIP3   OH233955   3.588   3.241  15.484  0.5117  0.7097 -0.3280
 4155TIP3    H133956   3.600   3.279  15.571 -1.4560  1.9143 -0.5163
 4155TIP3    H233957   3.627   3.154  15.491  3.0425  1.8132  0.8458
 4156TIP3   OH233958   4.022   4.142   2.410  0.5147 -0.3989 -0.2240
 4156TIP3    H133959   4.007   4.058   2.453 -0.2966  0.6009  1.5488
 4156TIP3    H233960   3.950   4.150   2.348 -0.8808  0.0400  1.3649
 4157TIP3   OH233961   3.474   2.809   2.097  0.8968  0.5062  0.0229
 4157TIP3    H133962   3.441   2.896   2.077 -0.1557 -0.1357 -1.2835
 4157TIP3    H233963   3.420   2.779   2.170 -0.4104  0.0738 -1.0739
 4158TIP3   OH233964   1.453   3.726   5.153 -0.7124  0.3723 -0.0747
 4158TIP3    H133965   1.454   3.821   5.154  0.5100  0.3845  1.7896
 4158TIP3    H233966   1.502   3.702   5.074  0.4731  1.3152  0.3474
 4159TIP3   OH233967   5.265   2.673   3.953 -0.5297 -0.1284 -0.1767
 4159TIP3    H133968   5.296   2.757   3.919 -1.6075  0.5409  0.4369
 4159TIP3    H233969   5.343   2.617   3.953  0.5706  1.3277  0.7865
 4160TIP3   OH233970   1.425   4.255  11.306  0.7502 -0.8316 -0.0291
 4160TIP3    H133971   1.385   4.192  11.247  0.6270  0.4325 -1.3637
 4160TIP3    H233972   1.456   4.325  11.248  1.5189 -0.0077  1.3252
 4161TIP3   OH233973   0.181   1.407   6.168  0.0580  0.3958  0.1286
 4161TIP3    H133974   0.266   1.444   6.143  0.0465  1.0166  0.9855
 4161TIP3    H233975   0.184   1.317   6.136  0.0340  1.1344 -2.0894
 4162TIP3   OH233976   5.630   3.166  11.190  0.7453 -0.2150  0.0252
 4162TIP3    H133977   5.634   3.255  11.154 -0.6176 -0.5404 -1.0029
 4162TIP3    H233978   5.538   3.141  11.182  1.2270 -2.0012 -0.3732
 4163TIP3   OH233979   2.957   2.924  14.158 -0.0338 -0.1640 -0.3887
 4163TIP3    H133980   2.874   2.965  14.181  0.2809  0.1667  0.1565
 4163TIP3    H233981   2.941   2.830  14.169 -0.5957 -0.1613 -1.1397
 4164TIP3   OH233982   0.523   3.509  12.115 -0.1595  0.5803  0.2902
 4164TIP3    H133983   0.432   3.511  12.146 -0.1986  0.0828  0.2124
 4164TIP3    H233984   0.516   3.484  12.023  0.0773  0.1972  0.3758
 4165TIP3   OH233985   0.483   0.296  15.945 -0.0003  0.4510  0.2812
 4165TIP3    H133986   0.497   0.350  15.867  1.2604 -0.2330 -0.0011
 4165TIP3    H233987   0.559   0.314  16.000  0.1000 -0.5193  0.4786
 4166TIP3   OH233988   1.952   3.556  13.257  0.2899  0.6247 -0.4079
 4166TIP3    H133989   1.932   3.636  13.306  0.1204  0.1366  0.3406
 4166TIP3    H233990   2.035   3.575  13.214  0.4846  1.0491  0.1293
 4167TIP3   OH233991   1.636   3.343   1.036 -0.2256 -0.0990  0.2237
 4167TIP3    H133992   1.667   3.258   1.003  0.3066  0.4798 -0.7823
 4167TIP3    H233993   1.690   3.359   1.113  0.6666 -0.0097 -0.4074
 4168TIP3   OH233994   2.429   6.171  11.884  0.1547 -0.4395  0.4658
 4168TIP3    H133995   2.440   6.175  11.979 -0.0791 -1.0434  0.5269
 4168TIP3    H233996   2.444   6.079  11.863 -1.0056 -0.5550  0.0788
 4169TIP3   OH233997   3.427   3.350  16.376  0.2471 -0.0015  0.0315
 4169TIP3    H133998   3.382   3.341  16.292 -2.0010  0.0485  1.1718
 4169TIP3    H233999   3.370   3.305  16.439  1.1678  1.1439  1.7668
 4170TIP3   OH234000   3.932   6.251  16.162 -0.3381  0.1379 -0.4292
 4170TIP3    H134001   3.984   6.225  16.238  1.2500 -0.0360 -1.5212
 4170TIP3    H234002   3.913   6.344  16.176 -0.6900 -0.0641  0.5011
 4171TIP3   OH234003   1.197   5.280   3.815 -0.6537 -0.2454 -0.5071
 4171TIP3    H134004   1.268   5.342   3.796 -0.0780 -0.7947 -0.1591
 4171TIP3    H234005   1.241   5.196   3.824 -1.5802 -0.9934 -2.4594
 4172TIP3   OH234006   6.693   3.256  11.976 -0.5538 -0.0248 -0.6003
 4172TIP3    H134007   6.646   3.338  11.989 -0.8302 -0.3853  0.7861
 4172TIP3    H234008   6.718   3.228  12.064 -0.0057 -1.1633 -1.0992
 4173TIP3   OH234009   1.364   5.126  15.859 -0.0704 -0.0415 -0.2972
 4173TIP3    H134010   1.382   5.077  15.779 -1.2271 -0.5188 -0.2954
 4173TIP3    H234011   1.360   5.059  15.927 -0.7829  0.1527 -0.1400
 4174TIP3   OH234012   1.714   0.887  14.283  0.1122 -0.3384 -0.1352
 4174TIP3    H134013   1.770   0.809  14.289  0.2831 -0.1728  0.5818
 4174TIP3    H234014   1.742   0.942  14.356 -0.6912 -0.0535 -0.0265
 4175TIP3   OH234015   1.126   1.796  12.619  0.1170 -0.4109 -0.2346
 4175TIP3    H134016   1.193   1.748  12.570 -2.3099 -3.2505 -0.9969
 4175TIP3    H234017   1.081   1.849  12.553  0.2677 -0.0664 -0.0684
 4176TIP3   OH234018   0.726   3.304  12.807 -0.3220 -0.5083 -0.1050
 4176TIP3    H134019   0.726   3.263  12.721  0.5997 -0.3640 -0.1835
 4176TIP3    H234020   0.653   3.263  12.854  0.7964 -2.5518 -0.0305
 4177TIP3   OH234021   3.684   4.006  12.636  0.0204  0.2348  0.1238
 4177TIP3    H134022   3.774   3.986  12.661 -0.2523  0.4827  1.3829
 4177TIP3    H234023   3.647   3.922  12.609  0.3895 -0.0075  0.3649
 4178TIP3   OH234024   0.776   0.133   2.097 -0.7379  0.3519 -0.1198
 4178TIP3    H134025   0.741   0.060   2.046 -2.0173 -0.2236  1.5024
 4178TIP3    H234026   0.745   0.117   2.186 -2.0332  3.4503  0.1179
 4179TIP3   OH234027   1.335   5.306   1.500 -0.3636 -0.1944 -0.5850
 4179TIP3    H134028   1.295   5.224   1.528 -1.7767  0.5238 -0.4474
 4179TIP3    H234029   1.326   5.365   1.574 -1.3128  0.7475 -1.4217
 4180TIP3   OH234030   6.742   5.191   3.984 -0.2040 -0.4381 -0.1927
 4180TIP3    H134031   6.811   5.234   3.933  2.1081 -1.6471  1.7241
 4180TIP3    H234032   6.732   5.105   3.944  0.6424 -0.8783  0.4984
 4181TIP3   OH234033   0.551   2.691   3.567 -0.4348  0.0531  0.3144
 4181TIP3    H134034   0.609   2.654   3.634 -0.1008  2.5192  1.4649
 4181TIP3    H234035   0.534   2.780   3.596 -0.6946  1.0618 -2.6388
 4182TIP3   OH234036   3.156   4.719  15.993 -0.8781 -0.0011  0.3732
 4182TIP3    H134037   3.125   4.700  16.082 -1.8369  0.8080  0.2285
 4182TIP3    H234038   3.089   4.777  15.957  0.3341  1.0093 -0.3110
 4183TIP3   OH234039   3.073   3.471   1.826  0.0168 -0.8682 -0.3264
 4183TIP3    H134040   3.103   3.533   1.760 -1.7201  1.7794  1.2203
 4183TIP3    H234041   3.109   3.503   1.909 -0.9676 -1.8925  0.5487
 4184TIP3   OH234042   1.183   4.938  14.672 -0.4597  0.3787  0.5280
 4184TIP3    H134043   1.278   4.935  14.660 -0.4284 -2.0223  0.8696
 4184TIP3    H234044   1.172   4.949  14.766 -0.5091  0.1406  0.5504
 4185TIP3   OH234045   6.462   2.029   6.208  0.5222 -0.1599 -0.2611
 4185TIP3    H134046   6.545   1.986   6.188 -0.4190 -2.1435 -0.1298
 4185TIP3    H234047   6.400   1.957   6.222 -0.8805  1.2323  1.1469
 4186TIP3   OH234048   0.800   5.561  13.512  0.0934 -0.1522  0.0335
 4186TIP3    H134049   0.841   5.592  13.430 -0.0725 -1.5003 -0.5843
 4186TIP3    H234050   0.858   5.593  13.581  0.2284  1.0352 -0.5904
 4187TIP3   OH234051   6.654   2.332   2.331 -0.3751  0.0393 -0.2741
 4187TIP3    H134052   6.581   2.272   2.314 -0.7054  0.3368  0.0805
 4187TIP3    H234053   6.673   2.371   2.245 -1.6653  1.1065 -0.1167
 4188TIP3   OH234054   4.490   3.000  13.159  0.4086 -0.5798 -0.3210
 4188TIP3    H134055   4.530   3.078  13.198 -0.6578 -0.7646  1.2203
 4188TIP3    H234056   4.399   3.003  13.188 -1.3440  0.7318 -5.0368
 4189TIP3   OH234057   4.692   2.046  10.587  0.3498 -0.3761  0.2123
 4189TIP3    H134058   4.786   2.065  10.593  0.4942 -0.6209 -1.0672
 4189TIP3    H234059   4.650   2.120  10.631  1.0761  0.5932 -0.6797
 4190TIP3   OH234060   4.816   5.118   3.710 -0.1515 -0.2608 -0.3632
 4190TIP3    H134061   4.846   5.193   3.659 -0.2257  0.8051  1.0830
 4190TIP3    H234062   4.894   5.088   3.756 -0.2714 -0.6297 -0.4017
 4191TIP3   OH234063   5.756   0.198   1.548 -0.0794  0.4678  0.4042
 4191TIP3    H134064   5.680   0.178   1.493  0.2556 -0.4214  0.2467
 4191TIP3    H234065   5.720   0.247   1.621 -0.3770  2.7210 -1.1560
 4192TIP3   OH234066   4.541   1.782   2.963 -0.0158  0.4138  0.2211
 4192TIP3    H134067   4.527   1.829   2.881  1.3261 -0.0924 -0.3105
 4192TIP3    H234068   4.554   1.851   3.028  0.7382  0.8139 -0.3380
 4193TIP3   OH234069   0.620   2.701  15.898  0.0508  0.0906  0.4553
 4193TIP3    H134070   0.636   2.695  15.992 -1.3073  2.3556  0.9103
 4193TIP3    H234071   0.664   2.625  15.861  2.7382  0.4168  2.6547
 4194TIP3   OH234072   4.399   2.216   5.957  0.1217 -0.0389 -0.6116
 4194TIP3    H134073   4.448   2.187   5.880  0.2460  1.3483 -1.0727
 4194TIP3    H234074   4.411   2.145   6.020  1.3078 -0.4980 -1.3102
 4195TIP3   OH234075   6.359   3.624   3.197  0.3712  0.6590 -0.2967
 4195TIP3    H134076   6.353   3.676   3.278  1.7484 -0.4479  0.5577
 4195TIP3    H234077   6.287   3.561   3.204  0.2364  0.8267 -0.1343
 4196TIP3   OH234078   2.668   2.003   1.148  0.4108  0.1601 -0.0490
 4196TIP3    H134079   2.738   2.000   1.213 -3.2330  2.8317  4.7020
 4196TIP3    H234080   2.615   1.926   1.165  0.2459  0.0258 -1.0830
 4197TIP3   OH234081   0.246   1.675   4.729  0.1874 -0.3623 -0.0489
 4197TIP3    H134082   0.186   1.691   4.656  2.1945  0.4545 -1.6126
 4197TIP3    H234083   0.250   1.757   4.777  0.3169 -0.3029 -0.1603
 4198TIP3   OH234084   5.018   6.516  11.547  0.2710 -0.5937 -0.2422
 4198TIP3    H134085   5.110   6.524  11.572  0.0899  1.2683 -0.0057
 4198TIP3    H234086   4.994   6.604  11.515 -1.5792 -0.8742  0.2623
 4199TIP3   OH234087   1.395   5.219   4.194  0.4610  0.1312 -0.0732
 4199TIP3    H134088   1.366   5.310   4.190 -1.4988 -0.5007 -1.0042
 4199TIP3    H234089   1.452   5.209   4.118 -1.6721 -0.1451 -1.7208
 4200TIP3   OH234090   1.078   4.710   3.226 -0.6781 -0.0311  0.3884
 4200TIP3    H134091   1.094   4.777   3.292 -3.7035  2.4013 -1.1154
 4200TIP3    H234092   1.161   4.703   3.178  0.0319  1.9325  1.2227
 4201TIP3   OH234093   6.735   2.395  16.805  0.3775  0.6263  0.0419
 4201TIP3    H134094   6.641   2.381  16.796  0.2960  0.2645  1.2394
 4201TIP3    H234095   6.746   2.422  16.897  1.5268 -0.1215  0.1380
 4202TIP3   OH234096   2.503   6.502  12.215  0.1005  0.0615 -0.0995
 4202TIP3    H134097   2.493   6.500  12.311 -0.2844 -0.0458 -0.1380
 4202TIP3    H234098   2.543   6.417  12.194 -0.6327 -0.2871 -0.1150
 4203TIP3   OH234099   2.455   6.423  13.382  0.0468 -0.0214  0.3355
 4203TIP3    H134100   2.413   6.344  13.349  2.3745 -0.9088 -0.7194
 4203TIP3    H234101   2.416   6.494  13.331 -1.9625 -0.4475  1.1905
 4204TIP3   OH234102   0.446   3.787   2.747 -0.2356 -0.3178  0.3969
 4204TIP3    H134103   0.456   3.693   2.730  0.0971 -0.1690 -0.2595
 4204TIP3    H234104   0.377   3.815   2.687 -0.8311 -0.2724  1.0897
 4205TIP3   OH234105   6.008   6.127   1.167  0.0835 -0.5158 -0.5097
 4205TIP3    H134106   6.031   6.035   1.154  0.1460 -0.8145  1.3681
 4205TIP3    H234107   5.919   6.124   1.202  0.7847 -0.0415  1.4395
 4206TIP3   OH234108   6.651   3.535   1.746  0.6304  0.1582 -0.4804
 4206TIP3    H134109   6.577   3.586   1.777  1.2573  1.8336 -1.5939
 4206TIP3    H234110   6.656   3.461   1.806 -1.0849  0.7402  0.4416
 4207TIP3   OH234111   0.582   5.058  12.448 -0.5282  0.3316 -0.0652
 4207TIP3    H134112   0.627   5.138  12.421 -1.4169  0.7817 -0.2533
 4207TIP3    H234113   0.525   5.085  12.519 -0.4098 -0.2563  0.2590
 4208TIP3   OH234114   6.374   1.985  15.672 -0.4047  0.0062  0.9275
 4208TIP3    H134115   6.298   2.044  15.673  2.0332  3.5485 -0.4780
 4208TIP3    H234116   6.427   2.014  15.746  1.1448 -0.0144 -0.1417
 4209TIP3   OH234117   1.664   2.240   0.055  0.5228 -0.4938 -0.1149
 4209TIP3    H134118   1.614   2.183   0.114  1.2342 -0.8537  0.1486
 4209TIP3    H234119   1.694   2.182  -0.014 -1.0310  0.0834 -1.3341
 4210TIP3   OH234120   4.927   0.036  11.265 -0.0464 -0.1632 -0.1573
 4210TIP3    H134121   4.873  -0.023  11.212 -1.0891  1.0848 -0.5574
 4210TIP3    H234122   4.885   0.036  11.351 -1.9456  2.2478 -0.9672
 4211TIP3   OH234123   2.071   0.015  13.722 -0.0385  0.7505 -0.1395
 4211TIP3    H134124   2.150  -0.037  13.738 -1.3101 -1.2362  0.0135
 4211TIP3    H234125   2.008  -0.017  13.787 -0.6578  3.1100  0.5252
 4212TIP3   OH234126   1.102   0.349   2.938  0.2422  0.0899 -0.2483
 4212TIP3    H134127   1.082   0.256   2.924 -1.0241  0.1478  0.9123
 4212TIP3    H234128   1.066   0.368   3.025 -0.0191  1.8076 -0.7008
 4213TIP3   OH234129   0.493   0.248   2.273  0.1942 -0.6316  0.0555
 4213TIP3    H134130   0.451   0.318   2.324  1.2429  0.4993 -0.5813
 4213TIP3    H234131   0.583   0.245   2.306  1.1640  0.7285 -2.2429
 4214TIP3   OH234132   3.693   0.292  16.220 -0.4651 -0.1306 -0.2873
 4214TIP3    H134133   3.676   0.206  16.259 -0.9165  0.4778  0.9007
 4214TIP3    H234134   3.789   0.296  16.213 -0.4120 -0.5260  0.1344
 4215TIP3   OH234135   5.864   4.309   5.392 -0.3437 -0.5560  0.3516
 4215TIP3    H134136   5.883   4.223   5.429  1.6828 -0.3494 -0.1125
 4215TIP3    H234137   5.939   4.363   5.416 -1.1635  0.8561 -0.1267
 4216TIP3   OH234138   4.613   1.577  12.257  0.1964  0.6595  0.2542
 4216TIP3    H134139   4.703   1.594  12.228  0.3819  0.3163  0.6193
 4216TIP3    H234140   4.605   1.482  12.255  0.2835  0.6109  1.5044
 4217TIP3   OH234141   2.094   6.218   3.083  0.0131  0.0998  0.3368
 4217TIP3    H134142   2.062   6.272   3.011  0.5462  0.2566  0.2075
 4217TIP3    H234143   2.059   6.131   3.066  0.3268  0.0806 -0.2496
 4218TIP3   OH234144   3.332   2.722  15.894  0.0293  0.0151 -0.3655
 4218TIP3    H134145   3.412   2.776  15.895 -0.0935  0.2809 -1.7194
 4218TIP3    H234146   3.348   2.654  15.959  0.1916  1.6824  1.4275
 4219TIP3   OH234147   1.002   4.911   2.956  0.0778 -0.1012 -0.8468
 4219TIP3    H134148   1.055   4.971   2.904 -1.6080  0.6986 -1.7235
 4219TIP3    H234149   1.003   4.829   2.907 -1.8356  0.7649 -2.4777
 4220TIP3   OH234150   1.099   0.458   3.589  0.4466  0.1172 -0.5327
 4220TIP3    H134151   1.031   0.466   3.522  1.3789 -0.2873 -1.5514
 4220TIP3    H234152   1.168   0.519   3.561  0.8806 -0.1014  0.0257
 4221TIP3   OH234153   1.643   4.104   0.513 -0.5008 -0.1246  0.0713
 4221TIP3    H134154   1.592   4.027   0.537 -2.6842  1.5424  1.1769
 4221TIP3    H234155   1.707   4.114   0.584  0.1483 -1.1675 -0.3482
 4222TIP3   OH234156   4.879   4.675  12.327  0.1103 -0.0050  0.6758
 4222TIP3    H134157   4.937   4.702  12.256  0.1237  0.2084  0.7673
 4222TIP3    H234158   4.938   4.647  12.397  0.1007 -1.2651  0.2129
 4223TIP3   OH234159   3.785   0.583   1.280 -0.4819  0.4750  0.7387
 4223TIP3    H134160   3.792   0.638   1.358  2.7329  0.3066  0.6626
 4223TIP3    H234161   3.799   0.494   1.312  0.7036  0.3865  0.0388
 4224TIP3   OH234162   3.335   5.625  11.586 -0.4406 -0.2605  0.2808
 4224TIP3    H134163   3.284   5.579  11.652 -1.2704 -2.2701 -1.6277
 4224TIP3    H234164   3.318   5.577  11.504  0.4947  2.1078 -1.4213
 4225TIP3   OH234165   3.953   1.758   2.666 -0.2926 -0.5961 -0.0450
 4225TIP3    H134166   3.997   1.795   2.742 -0.3913  0.1835 -0.3611
 4225TIP3    H234167   4.012   1.687   2.637  0.1481 -0.3646  0.2683
 4226TIP3   OH234168   5.530   3.529   5.540 -0.3489  0.0295  0.4133
 4226TIP3    H134169   5.626   3.537   5.539 -0.3013  2.0849  4.0843
 4226TIP3    H234170   5.504   3.548   5.449  2.5698  4.3431  0.1823
 4227TIP3   OH234171   1.366   4.913   3.912  0.2099  0.5829 -0.7068
 4227TIP3    H134172   1.446   4.947   3.953 -0.7497  0.4623  1.3794
 4227TIP3    H234173   1.358   4.964   3.831  1.1583  2.2596  0.1835
 4228TIP3   OH234174   0.439   6.650   4.428 -0.3202 -0.3374  0.6229
 4228TIP3    H134175   0.459   6.573   4.375 -1.5702 -0.7648  0.7511
 4228TIP3    H234176   0.517   6.663   4.482  0.8056 -0.1464 -0.9866
 4229TIP3   OH234177   5.251   5.519   4.019  0.0497  0.1011  0.1815
 4229TIP3    H134178   5.244   5.495   3.926  0.2064 -0.1041  0.2225
 4229TIP3    H234179   5.182   5.469   4.062 -0.6888  0.9662  0.0295
 4230TIP3   OH234180   1.444   6.518  11.556 -0.2178  0.0656 -0.0550
 4230TIP3    H134181   1.448   6.469  11.637  1.7653  2.4467  1.4254
 4230TIP3    H234182   1.535   6.541  11.537 -0.8879  1.7729 -1.4949
 4231TIP3   OH234183   1.004   1.430  13.975  0.4280  0.2892  0.8586
 4231TIP3    H134184   1.041   1.514  13.948 -0.2571  0.5568  0.7501
 4231TIP3    H234185   1.060   1.365  13.933  0.6873  0.6917  0.5735
 4232TIP3   OH234186   3.510   4.415   2.900 -0.4378 -0.0681  0.0448
 4232TIP3    H134187   3.487   4.387   2.811  1.1510 -0.2793 -0.3409
 4232TIP3    H234188   3.438   4.383   2.954 -1.4512  0.0767 -1.1540
 4233TIP3   OH234189   3.192   2.157   5.867  0.5796  0.2561 -0.2926
 4233TIP3    H134190   3.113   2.125   5.823  0.7263 -1.4332  0.6089
 4233TIP3    H234191   3.171   2.247   5.891 -0.8231  0.0530 -0.6701
 4234TIP3   OH234192   6.499   4.250   3.722 -0.4350 -0.0455 -0.1316
 4234TIP3    H134193   6.417   4.287   3.689 -0.1766  1.2155  0.5939
 4234TIP3    H234194   6.472   4.186   3.788 -0.9535 -2.4143 -2.4572
 4235TIP3   OH234195   5.421   1.121  15.056  0.0740  0.3153 -0.0998
 4235TIP3    H134196   5.333   1.093  15.081  0.3209 -1.2219 -0.8290
 4235TIP3    H234197   5.477   1.045  15.074  1.0000  0.7409 -1.0535
 4236TIP3   OH234198   0.755   5.624   4.088 -0.1226  0.4213  0.9897
 4236TIP3    H134199   0.791   5.657   4.006  1.0921 -0.8582  0.9740
 4236TIP3    H234200   0.824   5.568   4.124 -1.8731 -1.6702  1.2628
 4237TIP3   OH234201   5.563   1.558   4.796 -0.5534  0.2210 -0.0682
 4237TIP3    H134202   5.547   1.481   4.849 -1.1659  0.4910  0.1524
 4237TIP3    H234203   5.482   1.571   4.747 -0.9464  1.4599  0.8596
 4238TIP3   OH234204   6.668   5.512   2.376 -0.1826 -0.2508 -0.0736
 4238TIP3    H134205   6.602   5.487   2.311 -0.9982  0.1603  0.5738
 4238TIP3    H234206   6.748   5.468   2.347 -0.7709 -0.8751 -0.8025
 4239TIP3   OH234207   4.027   3.067  15.039  0.1316  0.3792 -0.3855
 4239TIP3    H134208   4.079   3.005  15.090  1.8225  1.6181 -0.4967
 4239TIP3    H234209   4.091   3.110  14.982 -0.9349  2.2868 -0.2126
 4240TIP3   OH234210   0.771   2.757   1.118  0.0632  0.6109  0.5152
 4240TIP3    H134211   0.779   2.852   1.126 -1.6427  0.9592 -1.0723
 4240TIP3    H234212   0.718   2.744   1.039  1.1577 -1.7118  0.0728
 4241TIP3   OH234213   3.636   5.739   2.345  0.3687 -0.5468  0.1432
 4241TIP3    H134214   3.672   5.735   2.256 -0.8311 -2.3759 -0.3176
 4241TIP3    H234215   3.580   5.661   2.352  0.9370 -0.8254  2.7390
 4242TIP3   OH234216   3.577   0.672  14.693  0.1424  0.2432  0.3197
 4242TIP3    H134217   3.550   0.656  14.603  1.2519  2.0972 -0.4092
 4242TIP3    H234218   3.592   0.585  14.730  2.2836 -0.5656 -2.1380
 4243TIP3   OH234219   3.519   6.240  11.888 -0.1179  0.5457  0.7549
 4243TIP3    H134220   3.594   6.270  11.837 -1.4186  0.5485 -1.2795
 4243TIP3    H234221   3.448   6.299  11.863 -0.9977  0.0376  1.9871
 4244TIP3   OH234222   2.870   6.142   3.856 -0.1423  0.1826 -0.2108
 4244TIP3    H134223   2.896   6.076   3.920 -3.9067  0.8004  2.2321
 4244TIP3    H234224   2.878   6.225   3.902 -1.3137  0.8422 -1.1339
 4245TIP3   OH234225   3.536   2.450   2.162 -0.1583 -0.0033  0.0664
 4245TIP3    H134226   3.538   2.536   2.204  0.0156  0.8937 -1.6966
 4245TIP3    H234227   3.617   2.445   2.111 -0.0338 -1.3460  0.3371
 4246TIP3   OH234228   5.750   2.083  14.781  0.7470 -0.3800 -0.4138
 4246TIP3    H134229   5.838   2.072  14.817  0.4324  0.7917  0.8107
 4246TIP3    H234230   5.763   2.128  14.697  1.3023  0.2730  0.0136
 4247TIP3   OH234231   3.097   3.386  11.193 -0.0505  0.0481 -0.1176
 4247TIP3    H134232   3.050   3.302  11.201 -0.1038  0.0655 -0.2331
 4247TIP3    H234233   3.060   3.441  11.261  0.1543 -0.1008  0.1139
 4248TIP3   OH234234   0.877   4.170   4.018 -0.3773 -0.3715 -0.4123
 4248TIP3    H134235   0.884   4.074   4.013  4.0105 -0.3475  1.2164
 4248TIP3    H234236   0.895   4.200   3.929  0.9730 -1.0773 -0.4022
 4249TIP3   OH234237   6.135   0.109   5.383 -0.9929  0.1817 -0.6573
 4249TIP3    H134238   6.134   0.185   5.326 -2.4559 -0.5319 -1.6442
 4249TIP3    H234239   6.108   0.036   5.327  1.1761 -1.2703  0.0242
 4250TIP3   OH234240   5.228   3.845   1.168  0.2044 -0.3536 -0.2084
 4250TIP3    H134241   5.170   3.777   1.203 -0.3698  0.5238  0.6019
 4250TIP3    H234242   5.311   3.832   1.213 -0.1748  0.0215  0.6264
 4251TIP3   OH234243   3.009   1.557  12.657 -0.3327  0.1716  0.1005
 4251TIP3    H134244   2.948   1.484  12.649  0.4309 -1.1365  3.9974
 4251TIP3    H234245   2.962   1.623  12.709 -0.1102  1.3815 -1.1624
 4252TIP3   OH234246   3.080   4.424  14.380 -0.0185 -0.2752 -1.0044
 4252TIP3    H134247   3.022   4.497  14.359  2.8019  1.9509 -1.6618
 4252TIP3    H234248   3.035   4.347  14.345 -2.4007  1.3150 -1.7064
 4253TIP3   OH234249   3.544   3.614  15.679  0.7107 -0.2435  0.4115
 4253TIP3    H134250   3.487   3.574  15.613  0.7439 -0.5086  0.5403
 4253TIP3    H234251   3.612   3.658  15.629  0.4407 -0.0004  0.2577
 4254TIP3   OH234252   3.531   5.145  11.493 -0.5348  0.1188 -0.8411
 4254TIP3    H134253   3.608   5.155  11.549  0.9038 -3.2088 -1.9246
 4254TIP3    H234254   3.459   5.182  11.544  1.1707 -0.0245  1.8971
 4255TIP3   OH234255   1.774   0.937  14.828  0.2136 -0.5836 -0.6611
 4255TIP3    H134256   1.728   0.869  14.778 -1.5558  0.3510 -0.3924
 4255TIP3    H234257   1.784   0.900  14.915  1.0127 -1.2264 -1.0121
 4256TIP3   OH234258   5.801   4.166   4.955 -0.7357  0.5585  0.5276
 4256TIP3    H134259   5.846   4.180   4.872  0.9758 -1.0929  1.1209
 4256TIP3    H234260   5.868   4.182   5.021 -0.4620 -3.3634  1.4034
 4257TIP3   OH234261   0.562   3.278  13.596 -0.4194  0.4912 -0.1544
 4257TIP3    H134262   0.633   3.246  13.652 -0.8674 -0.9761 -0.4085
 4257TIP3    H234263   0.553   3.213  13.527 -0.6382  1.7063 -1.3289
 4258TIP3   OH234264   6.650   0.595   4.908 -0.5887 -0.1234  0.3832
 4258TIP3    H134265   6.648   0.675   4.961 -0.0562 -0.4462  0.9040
 4258TIP3    H234266   6.713   0.614   4.838 -2.3823  0.8551 -1.0830
 4259TIP3   OH234267   3.354   1.096  12.290 -0.3996  0.5883 -0.2043
 4259TIP3    H134268   3.419   1.125  12.226 -0.3346 -0.4304 -0.6185
 4259TIP3    H234269   3.398   1.027  12.340 -0.8261  0.5953  0.1900
 4260TIP3   OH234270   4.903   5.134  12.430  0.3363  0.0369 -0.5704
 4260TIP3    H134271   4.977   5.106  12.376  2.3005  0.6833  1.6222
 4260TIP3    H234272   4.870   5.053  12.469 -1.2928 -0.4792 -2.8078
 4261TIP3   OH234273   3.218   2.411   1.362  0.8962  0.0585  0.1930
 4261TIP3    H134274   3.192   2.354   1.290  2.1214  0.0610 -0.2733
 4261TIP3    H234275   3.220   2.499   1.324  0.5748  0.1960  0.4900
 4262TIP3   OH234276   2.454   5.976   5.525 -0.8531  0.3512  0.2502
 4262TIP3    H134277   2.489   6.049   5.474 -1.4369  0.3900 -0.1060
 4262TIP3    H234278   2.515   5.966   5.597 -1.0363  1.5338  0.6003
 4263TIP3   OH234279   6.190   6.267  11.725  0.1211 -0.0558 -0.5537
 4263TIP3    H134280   6.169   6.215  11.802 -1.2822 -2.4042 -2.3627
 4263TIP3    H234281   6.106   6.285  11.684  0.8263  1.0881 -1.5850
 4264TIP3   OH234282   0.310   2.630   2.592  0.5266 -0.1085 -0.2582
 4264TIP3    H134283   0.261   2.696   2.542 -0.6279  0.4062  1.4781
 4264TIP3    H234284   0.243   2.572   2.628  1.4292 -1.2945 -0.4229
 4265TIP3   OH234285   0.425   3.562  13.288 -0.1299  0.0513  0.0407
 4265TIP3    H134286   0.476   3.564  13.370 -0.4399  3.0848  0.2701
 4265TIP3    H234287   0.489   3.585  13.220 -0.2117 -0.9067 -0.3730
 4266TIP3   OH234288   6.390   2.511  11.940  0.2523 -0.5131  0.3347
 4266TIP3    H134289   6.337   2.496  11.862  0.1035 -2.2141  0.7318
 4266TIP3    H234290   6.344   2.464  12.010 -0.2028  1.8451  1.7378
 4267TIP3   OH234291   5.681   0.410  16.442  0.2180 -0.4961  0.1241
 4267TIP3    H134292   5.725   0.326  16.430  0.6701 -0.3729  0.8786
 4267TIP3    H234293   5.749   0.468  16.477  0.2092  0.5041 -1.4189
 4268TIP3   OH234294   0.565   4.210   5.440 -0.2244  0.4091  0.8040
 4268TIP3    H134295   0.488   4.246   5.398  0.5992  0.1769 -0.9865
 4268TIP3    H234296   0.580   4.127   5.396  2.9181  1.9152 -1.2962
 4269TIP3   OH234297   1.443   0.261   4.049  0.0017  0.4977  0.3654
 4269TIP3    H134298   1.534   0.239   4.067  0.3606 -0.0087 -1.8512
 4269TIP3    H234299   1.447   0.348   4.010 -0.2838 -0.1525 -1.1594
 4270TIP3   OH234300   1.153   5.392   2.709  0.1242 -0.1795 -0.3076
 4270TIP3    H134301   1.164   5.476   2.664  0.1113  0.3635  0.6702
 4270TIP3    H234302   1.087   5.410   2.776  0.0859 -0.9882 -0.1259
 4271TIP3   OH234303   6.200   4.684   3.849 -0.1531 -0.2260  0.2639
 4271TIP3    H134304   6.283   4.721   3.879  0.7066 -1.3894 -0.5383
 4271TIP3    H234305   6.133   4.739   3.888  1.0092  1.0843  0.5027
 4272TIP3   OH234306   3.383   6.099  12.075 -0.0416  0.2273  0.0101
 4272TIP3    H134307   3.400   6.139  12.160 -1.1064  1.3819 -0.2945
 4272TIP3    H234308   3.457   6.126  12.021  1.0413 -1.1355  0.7269
 4273TIP3   OH234309   1.173   0.583   0.221  0.3923 -0.1677  0.0379
 4273TIP3    H134310   1.251   0.629   0.191  0.2543  0.4706  0.6277
 4273TIP3    H234311   1.182   0.581   0.316  0.3445 -1.2827  0.0312
 4274TIP3   OH234312   1.669   4.997   0.029  0.4715 -0.2860 -0.0653
 4274TIP3    H134313   1.729   4.922   0.035 -1.3005 -1.6577  2.3684
 4274TIP3    H234314   1.669   5.034   0.118 -0.0646  1.5281 -0.7827
 4275TIP3   OH234315   2.188   0.004  12.065 -0.5546  0.0173 -0.1423
 4275TIP3    H134316   2.221  -0.086  12.069 -0.1577  0.1365 -0.7417
 4275TIP3    H234317   2.214   0.036  11.979 -0.6983  0.7098  0.0657
 4276TIP3   OH234318   2.667   4.136   0.417  0.0409  0.2495 -0.2786
 4276TIP3    H134319   2.609   4.066   0.448  0.7106  0.2184  0.9756
 4276TIP3    H234320   2.630   4.216   0.455  0.2534  0.3567 -0.2971
 4277TIP3   OH234321   6.288   5.191   2.251  0.1381  0.5323  0.0794
 4277TIP3    H134322   6.264   5.102   2.222 -0.6159  0.1243  1.8742
 4277TIP3    H234323   6.249   5.248   2.185  0.9852 -0.4564 -1.3440
 4278TIP3   OH234324   3.453   6.573  14.977 -0.5401 -0.3535 -0.0240
 4278TIP3    H134325   3.470   6.541  14.889 -0.5947 -0.7970  0.1207
 4278TIP3    H234326   3.367   6.614  14.971 -1.1756 -1.6026  0.1157
 4279TIP3   OH234327   0.997   5.218  13.456  0.2487 -0.3432 -0.3355
 4279TIP3    H134328   0.986   5.265  13.538 -0.8060  1.5737 -1.5140
 4279TIP3    H234329   0.928   5.152  13.456  1.7298 -2.0157  1.3206
 4280TIP3   OH234330   0.202   0.980  15.790 -0.2096  0.1926  0.2861
 4280TIP3    H134331   0.218   0.993  15.884 -0.2487 -2.0106  0.6394
 4280TIP3    H234332   0.286   1.004  15.749 -0.4424  1.9603  0.7603
 4281TIP3   OH234333   2.174   6.222  14.169 -0.3024 -0.2036 -0.1349
 4281TIP3    H134334   2.126   6.305  14.163  2.0860  1.1772 -1.2725
 4281TIP3    H234335   2.145   6.172  14.093 -0.5060  0.2887 -0.3852
 4282TIP3   OH234336   0.399   0.973  15.300  0.2815 -0.0585  0.2271
 4282TIP3    H134337   0.455   1.038  15.258  2.4905 -0.1487  2.7390
 4282TIP3    H234338   0.390   0.903  15.236 -0.6902  1.8385 -1.8755
 4283TIP3   OH234339   0.642   4.017  11.152  0.4629  0.4066  0.0892
 4283TIP3    H134340   0.603   3.930  11.163  1.1533  0.1765  0.7642
 4283TIP3    H234341   0.614   4.066  11.229  0.9497  0.4412  0.2492
 4284TIP3   OH234342   0.194   5.295   4.617  0.2994  0.2718 -0.4866
 4284TIP3    H134343   0.100   5.284   4.631  0.0125  1.7926 -1.0051
 4284TIP3    H234344   0.212   5.248   4.536 -0.0948  0.2742 -0.5768
 4285TIP3   OH234345   3.287   5.116   3.056 -0.5016 -0.0766 -0.0226
 4285TIP3    H134346   3.338   5.048   3.100  0.6365  0.7964  0.0735
 4285TIP3    H234347   3.207   5.072   3.027  0.4451 -1.5726 -0.4533
 4286TIP3   OH234348   3.043   2.453  16.811 -0.1305 -0.2926  0.3234
 4286TIP3    H134349   3.016   2.544  16.794  0.4488 -0.1248  0.2751
 4286TIP3    H234350   3.117   2.439  16.752  0.9653 -0.1877  1.6161
 4287TIP3   OH234351   5.799   2.028  16.356 -0.2369  0.5864  0.0524
 4287TIP3    H134352   5.785   2.110  16.309 -0.2735 -0.3810 -1.7392
 4287TIP3    H234353   5.746   2.035  16.435  0.3229  2.5477  0.3018
 4288TIP3   OH234354   0.699   6.422  15.463 -0.0392 -0.2631  0.2982
 4288TIP3    H134355   0.737   6.355  15.407 -2.7697 -1.3417 -0.4310
 4288TIP3    H234356   0.761   6.431  15.535  1.6943 -1.6248 -0.9277
 4289TIP3   OH234357   2.446   6.811  14.409 -0.7303 -0.2799  0.0385
 4289TIP3    H134358   2.452   6.716  14.411 -1.4948 -0.3269  1.9357
 4289TIP3    H234359   2.408   6.831  14.323  0.3132 -1.5932 -0.7684
 4290TIP3   OH234360   3.404   2.225   0.845  0.1041 -0.6589  0.3808
 4290TIP3    H134361   3.365   2.276   0.775  0.0919  2.4512  2.4382
 4290TIP3    H234362   3.358   2.141   0.843 -1.8341  0.3584 -1.5417
 4291TIP3   OH234363   2.673   3.375  14.229 -0.0774 -0.2854  0.1375
 4291TIP3    H134364   2.758   3.343  14.200  0.3859  1.7796 -0.9394
 4291TIP3    H234365   2.626   3.396  14.148 -0.9754  0.1711  0.7574
 4292TIP3   OH234366   0.849   1.735  15.348  0.1382 -0.1930 -0.3198
 4292TIP3    H134367   0.828   1.642  15.352 -1.5010  0.0638 -1.7197
 4292TIP3    H234368   0.897   1.752  15.429 -1.6897 -1.7645  1.2037
 4293TIP3   OH234369   6.185   5.918   2.527  0.2271  0.4002 -0.1297
 4293TIP3    H134370   6.141   5.983   2.472  0.1102  1.2139  0.8929
 4293TIP3    H234371   6.266   5.899   2.481  0.6648  1.9263 -0.0368
 4294TIP3   OH234372   1.311   5.503  11.051 -0.0558  0.0918  0.8251
 4294TIP3    H134373   1.393   5.453  11.048  0.0935  0.3720 -0.9807
 4294TIP3    H234374   1.245   5.438  11.078  0.5193 -0.4940  0.8556
 4295TIP3   OH234375   4.355   1.712  12.225 -0.0934  0.0181  0.0935
 4295TIP3    H134376   4.349   1.788  12.282 -0.1744 -1.7535  2.6297
 4295TIP3    H234377   4.434   1.666  12.254  0.3792 -0.5215 -1.8738
 4296TIP3   OH234378   1.760   3.448  11.243 -0.3574 -0.2675  0.0574
 4296TIP3    H134379   1.838   3.430  11.192  1.7549  0.6250  2.7373
 4296TIP3    H234380   1.729   3.362  11.272 -0.4332 -0.6241 -1.0500
 4297TIP3   OH234381   3.256   6.805  12.918 -0.4368  0.3156  0.5897
 4297TIP3    H134382   3.287   6.823  12.829  1.9928  0.4908  1.4047
 4297TIP3    H234383   3.264   6.710  12.928 -0.6670  0.3007  0.6307
 4298TIP3   OH234384   1.440   3.187  12.810  0.3677  0.6472 -0.3194
 4298TIP3    H134385   1.417   3.136  12.888  0.3092 -0.2629 -0.9133
 4298TIP3    H234386   1.356   3.209  12.770  0.3696  1.7012  0.2233
 4299TIP3   OH234387   1.245   5.571  16.662 -0.7393 -0.0622 -0.3386
 4299TIP3    H134388   1.281   5.504  16.719  0.1236  0.2377 -0.5196
 4299TIP3    H234389   1.151   5.555  16.662 -0.8921  0.5690  1.9853
 4300TIP3   OH234390   6.545   0.169   4.853  0.1542  0.1293  0.5996
 4300TIP3    H134391   6.540   0.085   4.899  1.3809  0.7082  1.9129
 4300TIP3    H234392   6.636   0.197   4.866  0.1393  1.0329 -0.9817
 4301TIP3   OH234393   3.566   3.248   4.397 -0.2239  0.0467  0.6134
 4301TIP3    H134394   3.622   3.179   4.359 -1.0980 -0.0963 -0.4485
 4301TIP3    H234395   3.483   3.204   4.415 -0.5569  0.6711  0.6013
 4302TIP3   OH234396   5.310   4.203   3.303  0.1776  0.0407  0.5527
 4302TIP3    H134397   5.290   4.111   3.284  2.0958 -0.5495  1.1770
 4302TIP3    H234398   5.226   4.247   3.298 -0.7121 -1.6510 -0.3290
 4303TIP3   OH234399   6.180   3.044  16.757  0.1982 -0.0097 -0.4715
 4303TIP3    H134400   6.167   3.113  16.692  0.1614  0.4789  0.0509
 4303TIP3    H234401   6.212   3.089  16.835  2.2042 -0.8238 -0.7632
 4304TIP3   OH234402   6.799   3.692  17.045  0.0280 -0.3992  0.5568
 4304TIP3    H134403   6.894   3.695  17.048  0.0598 -1.1484  0.4146
 4304TIP3    H234404   6.777   3.705  16.952  0.1261 -2.8826  0.1093
 4305TIP3   OH234405   0.845   1.187  15.652  0.4738  0.2538 -0.3718
 4305TIP3    H134406   0.903   1.237  15.595  2.4921 -1.6791 -0.1324
 4305TIP3    H234407   0.797   1.129  15.593  0.2072  0.4873 -0.3870
 4306TIP3   OH234408   6.342   3.977   4.633  0.2447  0.2394  0.4782
 4306TIP3    H134409   6.305   3.919   4.700  0.2434  0.5474  0.7466
 4306TIP3    H234410   6.414   4.021   4.676 -0.0025  0.7313  0.3979
 4307TIP3   OH234411   0.619   0.359  14.930  0.1781 -0.3664 -0.0585
 4307TIP3    H134412   0.654   0.311  14.854 -1.3218  0.4256 -1.3030
 4307TIP3    H234413   0.551   0.301  14.965  1.7339 -1.3239  1.5653
 4308TIP3   OH234414   6.749   6.556   4.927 -0.2505 -0.1760 -0.2192
 4308TIP3    H134415   6.829   6.518   4.963  0.3608  0.3466 -1.0086
 4308TIP3    H234416   6.752   6.648   4.953 -0.6607 -0.1799 -0.1461
 4309TIP3   OH234417   3.894   6.572   1.153 -0.2589  0.3168  0.7421
 4309TIP3    H134418   3.975   6.520   1.156 -0.8797 -0.7954 -0.7423
 4309TIP3    H234419   3.871   6.586   1.245 -1.2662 -3.9965  1.3417
 4310TIP3   OH234420   3.752   0.458  13.710  0.2605  0.2715  0.1175
 4310TIP3    H134421   3.716   0.411  13.635  0.5367 -2.3814  1.5469
 4310TIP3    H234422   3.836   0.415  13.726 -0.8623 -0.9674  3.4132
 4311TIP3   OH234423   5.649   1.192  12.869 -0.6088 -1.0455  0.0432
 4311TIP3    H134424   5.594   1.270  12.880  2.5637  1.6237 -1.1863
 4311TIP3    H234425   5.637   1.143  12.950 -4.7452 -0.7889 -0.1886
 4312TIP3   OH234426   1.130   1.014  11.728 -0.5959  0.2185  0.5036
 4312TIP3    H134427   1.213   0.994  11.684 -0.7794  0.2335  0.1458
 4312TIP3    H234428   1.139   0.974  11.815 -0.3791 -0.1375  0.3202
 4313TIP3   OH234429   2.633   3.320   1.205 -0.2077  0.4945 -0.2943
 4313TIP3    H134430   2.605   3.388   1.266  1.3079  0.4407  0.5101
 4313TIP3    H234431   2.711   3.282   1.245 -0.3989 -0.9981 -1.2514
 4314TIP3   OH234432   3.811   3.688   0.093 -0.2152  0.0915 -0.0855
 4314TIP3    H134433   3.753   3.740   0.147 -2.6396 -0.9724 -1.4857
 4314TIP3    H234434   3.899   3.713   0.120 -1.2649  3.1421  0.8847
 4315TIP3   OH234435   0.321   5.844  11.847  0.4498 -0.2706  0.2489
 4315TIP3    H134436   0.306   5.877  11.758  0.2426 -3.0880 -0.8637
 4315TIP3    H234437   0.415   5.825  11.850  0.7451  1.1629  1.2013
 4316TIP3   OH234438   0.078   5.083   2.571 -0.4188 -0.1932 -0.5795
 4316TIP3    H134439   0.054   5.090   2.479  0.5998 -2.1563 -1.0584
 4316TIP3    H234440   0.043   4.998   2.599  0.6057 -0.3225  0.4045
 4317TIP3   OH234441   5.200   0.331  15.329 -0.2744 -0.3333 -0.7096
 4317TIP3    H134442   5.271   0.378  15.373 -0.1660 -1.0098 -0.1283
 4317TIP3    H234443   5.243   0.287  15.255 -0.0603 -0.8162 -0.3059
 4318TIP3   OH234444   3.852   0.404  10.950 -0.2029 -0.2761 -0.3121
 4318TIP3    H134445   3.891   0.463  10.885 -0.3614  0.5800  0.3530
 4318TIP3    H234446   3.764   0.437  10.963 -0.2076 -0.5004  0.2681
 4319TIP3   OH234447   0.150   5.044   1.167 -0.2548  0.0202  0.1980
 4319TIP3    H134448   0.200   4.981   1.219  0.3408 -0.1915 -0.6135
 4319TIP3    H234449   0.178   5.129   1.199 -0.7032 -0.1169  0.9700
 4320TIP3   OH234450   6.720   4.073  14.903  0.3653  0.2774 -0.6321
 4320TIP3    H134451   6.640   4.087  14.954  1.5357  0.5432  1.2446
 4320TIP3    H234452   6.747   4.160  14.876  0.5439  0.2810 -0.4386
 4321TIP3   OH234453   3.325   3.055   4.102 -0.3463  0.5278 -0.5318
 4321TIP3    H134454   3.332   3.028   4.010  1.9932 -0.4739 -0.1488
 4321TIP3    H234455   3.254   3.003   4.138 -0.0242 -0.5062 -1.3499
 4322TIP3   OH234456   4.521   4.089  12.177 -0.7227  0.4247 -0.4994
 4322TIP3    H134457   4.455   4.153  12.151 -1.4663 -0.0663  0.1409
 4322TIP3    H234458   4.544   4.113  12.266  0.9828  1.4080 -1.1654
 4323TIP3   OH234459   5.757   0.854   4.907 -0.5566  0.3820 -0.6910
 4323TIP3    H134460   5.714   0.924   4.955 -0.8345  0.3623 -0.9112
 4323TIP3    H234461   5.789   0.895   4.826  1.2536  0.7824  0.1689
 4324TIP3   OH234462   6.762   5.321   0.570  0.3682 -0.0701 -0.1377
 4324TIP3    H134463   6.697   5.251   0.560 -0.2618  0.7866 -2.8025
 4324TIP3    H234464   6.846   5.274   0.574 -0.0715 -1.0526 -1.4594
 4325TIP3   OH234465   3.939   2.305  13.206  0.2920 -0.1176  0.5210
 4325TIP3    H134466   3.959   2.232  13.147 -2.3825  0.0314 -0.6860
 4325TIP3    H234467   3.925   2.380  13.148  0.2986  0.7063  1.5488
 4326TIP3   OH234468   1.210   2.027   1.405 -0.3401  0.2796 -0.2299
 4326TIP3    H134469   1.288   2.077   1.381  1.0804 -0.8520  1.7245
 4326TIP3    H234470   1.147   2.093   1.433  0.6210  1.1223  0.0069
 4327TIP3   OH234471   0.665   3.891  17.038  0.1589  0.5986 -0.3766
 4327TIP3    H134472   0.638   3.978  17.068 -0.1787  0.9125 -1.5365
 4327TIP3    H234473   0.760   3.900  17.024  0.0536  0.9298 -0.9304
 4328TIP3   OH234474   3.574   5.228   5.537 -0.2442 -0.5401 -0.2344
 4328TIP3    H134475   3.630   5.219   5.460  1.2526 -3.0196  1.0252
 4328TIP3    H234476   3.548   5.139   5.559  0.5930 -0.1309  2.9490
 4329TIP3   OH234477   5.553   1.708   4.040 -0.2467 -0.5226 -0.6639
 4329TIP3    H134478   5.588   1.620   4.031 -2.7964 -1.6839 -0.3190
 4329TIP3    H234479   5.587   1.739   4.124  1.7793 -0.5724 -1.4249
 4330TIP3   OH234480   0.300   4.615  10.372 -0.4530 -0.4654 -0.9703
 4330TIP3    H134481   0.259   4.662  10.300 -1.2639  0.3868  0.0082
 4330TIP3    H234482   0.263   4.527  10.368 -1.6869  0.0169 -0.6848
 4331TIP3   OH234483   3.462   4.024  12.819  0.1783 -0.3666 -0.2087
 4331TIP3    H134484   3.525   3.998  12.752 -0.2870  1.0784 -1.2688
 4331TIP3    H234485   3.401   3.950  12.824  1.5597 -1.5048  0.3785
 4332TIP3   OH234486   0.619   3.902  12.958  0.4833  0.0672  0.0399
 4332TIP3    H134487   0.555   3.873  12.893  1.1026  0.5958 -0.8098
 4332TIP3    H234488   0.691   3.839  12.951  1.4466  1.2631 -1.2090
 4333TIP3   OH234489   5.403   2.948   4.619 -0.0415 -0.1331 -0.1893
 4333TIP3    H134490   5.332   3.009   4.602 -0.0943  0.6185  2.3700
 4333TIP3    H234491   5.374   2.897   4.694  2.2524  0.4736  1.1929
 4334TIP3   OH234492   1.891   0.801  11.392  0.5160 -0.1777 -0.1310
 4334TIP3    H134493   1.861   0.712  11.410  0.1219 -0.4892 -2.1058
 4334TIP3    H234494   1.937   0.827  11.472 -0.4729 -1.6555  0.9718
 4335TIP3   OH234495   1.484   4.336  14.818 -0.1796 -0.3906 -0.0464
 4335TIP3    H134496   1.575   4.323  14.843 -0.3497 -2.2983 -0.3269
 4335TIP3    H234497   1.489   4.384  14.735  0.5000  0.9953  0.7655
 4336TIP3   OH234498   5.303   1.693  17.128  0.2150  0.7534 -0.0463
 4336TIP3    H134499   5.276   1.750  17.200 -0.0307  0.5031  0.0639
 4336TIP3    H234500   5.335   1.614  17.172  0.1054  0.6192 -0.2084
 4337TIP3   OH234501   4.304   4.855   6.408  0.0385 -0.3194  0.1615
 4337TIP3    H134502   4.212   4.868   6.386  0.4520 -1.2798 -2.5644
 4337TIP3    H234503   4.304   4.782   6.469 -0.9979 -0.2137  0.3140
 4338TIP3   OH234504   0.466   3.555   4.446  0.3460  0.1273  0.6298
 4338TIP3    H134505   0.470   3.528   4.354 -1.7512  0.1415  0.5071
 4338TIP3    H234506   0.405   3.628   4.448  0.0983 -0.0806  2.0975
 4339TIP3   OH234507   4.014   5.410  14.559 -0.3051  0.6428  0.6302
 4339TIP3    H134508   3.968   5.410  14.475  2.1175 -2.3524 -0.8964
 4339TIP3    H234509   4.099   5.450  14.540 -0.2004  1.1458  2.0226
 4340TIP3   OH234510   5.698   1.394  11.048  0.4627  0.0358  0.3211
 4340TIP3    H134511   5.733   1.304  11.041  1.2086  0.2073  1.4839
 4340TIP3    H234512   5.728   1.437  10.968 -1.2587 -1.1652 -1.0358
 4341TIP3   OH234513   3.102   2.422   2.934 -0.1350 -0.1847  0.1727
 4341TIP3    H134514   3.025   2.366   2.932  0.0079 -0.3802  0.0526
 4341TIP3    H234515   3.159   2.383   3.000  0.5324 -0.9490 -0.8351
 4342TIP3   OH234516   1.879   5.094  13.074  0.2389 -0.2660  0.2110
 4342TIP3    H134517   1.956   5.091  13.131 -2.1173  1.7340  3.8922
 4342TIP3    H234518   1.839   5.007  13.083  1.6728 -1.1180 -1.2673
 4343TIP3   OH234519   0.185   1.308  10.464 -0.2421  0.2711 -0.1078
 4343TIP3    H134520   0.264   1.289  10.514 -1.0921 -0.1300  1.1121
 4343TIP3    H234521   0.173   1.403  10.471 -0.4634  0.1910  0.6179
 4344TIP3   OH234522   3.877   5.397   2.347 -0.4408  0.4263 -0.2823
 4344TIP3    H134523   3.801   5.371   2.399 -0.5484 -0.0973 -0.6906
 4344TIP3    H234524   3.947   5.338   2.375 -0.8553 -0.7798 -1.6632
 4345TIP3   OH234525   3.145   3.915  16.747  0.0906  0.5242 -0.2352
 4345TIP3    H134526   3.165   3.864  16.669  0.1143  1.8892 -1.1677
 4345TIP3    H234527   3.081   3.863  16.795  0.1613 -0.3903 -1.1043
 4346TIP3   OH234528   2.944   1.450  13.676 -0.3120 -0.1693  0.3851
 4346TIP3    H134529   3.000   1.501  13.618  0.4053 -2.6315 -1.2060
 4346TIP3    H234530   2.856   1.459  13.639 -0.0868 -0.5811 -0.2568
 4347TIP3   OH234531   5.076   2.024  13.874 -0.3598 -0.4326 -0.2558
 4347TIP3    H134532   5.055   1.971  13.950  0.1319  0.9416  0.8908
 4347TIP3    H234533   5.001   2.014  13.815 -0.2327 -2.4331 -0.1384
 4348TIP3   OH234534   4.462   6.691  16.373 -0.0898  0.5408 -0.0187
 4348TIP3    H134535   4.447   6.665  16.464  0.2698 -0.5363 -0.2445
 4348TIP3    H234536   4.427   6.780  16.367  0.3768  0.8395  1.3080
 4349TIP3   OH234537   2.651   4.100   1.928  0.3456 -0.0157  0.3416
 4349TIP3    H134538   2.620   4.047   1.855 -0.6157  0.7081  0.2050
 4349TIP3    H234539   2.746   4.100   1.919  0.2033  1.1726 -1.7200
 4350TIP3   OH234540   3.437   3.753  15.905 -0.7593  0.1197 -0.0003
 4350TIP3    H134541   3.481   3.718  15.827 -0.3830 -0.2666  0.3831
 4350TIP3    H234542   3.425   3.846  15.886  0.9797  0.4214  0.2202
 4351TIP3   OH234543   1.084   2.829   0.956 -0.2744  0.7866  0.2467
 4351TIP3    H134544   1.076   2.837   1.051  1.0603  2.0867  0.2903
 4351TIP3    H234545   0.994   2.834   0.923 -1.0960 -2.5283  1.5459
 4352TIP3   OH234546   3.023   6.295  14.593 -0.1174 -0.5215  0.4447
 4352TIP3    H134547   3.008   6.282  14.499 -0.9261  0.5846  0.4089
 4352TIP3    H234548   2.936   6.283  14.633  0.0984 -0.3445  0.9769
 4353TIP3   OH234549   2.099   3.591  12.941  0.2039  0.7622 -0.1488
 4353TIP3    H134550   2.163   3.520  12.949 -1.4927 -1.0173 -1.6033
 4353TIP3    H234551   2.090   3.625  13.030 -3.5426 -5.1322  2.2829
 4354TIP3   OH234552   4.382   4.775  16.518  0.6730  0.5173  0.5050
 4354TIP3    H134553   4.413   4.744  16.433  0.0600  1.6227 -0.1425
 4354TIP3    H234554   4.462   4.792  16.568  1.0358 -0.2986  0.2136
 4355TIP3   OH234555   0.022   0.300  14.497 -0.2721 -0.0856 -0.6030
 4355TIP3    H134556   0.030   0.239  14.571  0.6182  1.2327  0.4560
 4355TIP3    H234557  -0.055   0.353  14.519 -1.4819 -1.2472 -1.8798
 4356TIP3   OH234558   0.693   5.408  11.619  0.5315  0.2699  0.1149
 4356TIP3    H134559   0.623   5.417  11.683  2.2330  1.1209  1.9668
 4356TIP3    H234560   0.717   5.316  11.623  0.1698  0.1766  0.1933
 4357TIP3   OH234561   2.236   1.356  12.289  0.5509  0.4942  0.3301
 4357TIP3    H134562   2.174   1.428  12.291  0.7762  0.7254 -0.4852
 4357TIP3    H234563   2.188   1.281  12.325  0.0917  0.8833  0.5329
 4358TIP3   OH234564   1.812   4.862   3.221 -0.9302  0.7162 -0.1502
 4358TIP3    H134565   1.831   4.900   3.307  1.5348 -0.3361 -0.1634
 4358TIP3    H234566   1.879   4.898   3.163  0.2748 -2.0112 -0.5922
 4359TIP3   OH234567   0.540   1.319  14.137 -0.1305  0.2229  0.1889
 4359TIP3    H134568   0.634   1.338  14.143  0.1480 -1.1365  0.4968
 4359TIP3    H234569   0.519   1.273  14.219 -0.8074 -0.5024 -0.3756
 4360TIP3   OH234570   1.963   0.439  13.180  0.7262  0.4786 -0.0350
 4360TIP3    H134571   1.943   0.390  13.099  1.1972 -0.7225  0.5597
 4360TIP3    H234572   1.880   0.440  13.228  0.6818  0.3909 -0.1106
 4361TIP3   OH234573   1.541   0.643  13.829 -0.0107  0.4908 -0.2167
 4361TIP3    H134574   1.477   0.573  13.841  0.4357 -0.0759 -1.1040
 4361TIP3    H234575   1.503   0.718  13.875 -1.0780  0.0262 -0.3197
 4362TIP3   OH234576   2.549   2.997   3.711 -0.1344  0.0543  0.4146
 4362TIP3    H134577   2.630   2.972   3.666 -0.9665 -0.7273 -0.6837
 4362TIP3    H234578   2.503   2.915   3.727 -2.1983  0.6409 -1.8714
 4363TIP3   OH234579   0.544   2.276  14.037 -0.4681 -0.0197  0.2927
 4363TIP3    H134580   0.473   2.222  14.002  0.4655 -0.1404 -1.5424
 4363TIP3    H234581   0.528   2.363  14.000 -0.3928  0.2769  0.9512
 4364TIP3   OH234582   2.610   2.021   4.687 -0.2770  0.1600 -0.2023
 4364TIP3    H134583   2.658   2.010   4.604 -0.5446  2.0367 -0.6530
 4364TIP3    H234584   2.520   2.000   4.665 -0.7751  2.7931 -1.0403
 4365TIP3   OH234585   1.677   4.193   3.846  0.8880 -0.0610 -0.4670
 4365TIP3    H134586   1.746   4.246   3.807  1.3059 -0.2700 -0.0184
 4365TIP3    H234587   1.646   4.245   3.921  1.1110 -0.3171 -0.1915
 4366TIP3   OH234588   5.349   0.242  12.889 -0.3257 -0.2004  0.2541
 4366TIP3    H134589   5.278   0.293  12.852  0.4959  0.0689 -1.0081
 4366TIP3    H234590   5.318   0.217  12.976 -1.0347  1.8439  0.6384
 4367TIP3   OH234591   6.287   2.040  12.832  0.3588  0.0036 -0.4905
 4367TIP3    H134592   6.341   1.974  12.875  2.4778  1.2556 -1.0832
 4367TIP3    H234593   6.286   2.013  12.740 -1.4989 -0.9244 -0.2408
 4368TIP3   OH234594   3.994   4.081  12.589 -0.1368 -0.2836 -0.4643
 4368TIP3    H134595   4.025   3.996  12.620 -0.4268  0.0935  0.9442
 4368TIP3    H234596   3.995   4.137  12.667  1.9687  1.6024 -1.7160
 4369TIP3   OH234597   2.614   2.938  11.164 -0.8179 -0.1906  0.1768
 4369TIP3    H134598   2.604   2.913  11.256  1.5069  1.8543  1.0832
 4369TIP3    H234599   2.648   3.027  11.167  4.2954 -1.6666 -2.3932
 4370TIP3   OH234600   2.029   0.112   0.339  0.5703  0.3669 -0.0235
 4370TIP3    H134601   2.014   0.080   0.428 -0.9500  0.7702 -0.1032
 4370TIP3    H234602   1.967   0.062   0.285  1.8260 -0.2383 -0.9564
 4371TIP3   OH234603   2.638   3.729  14.548 -0.1221 -0.2927  0.5169
 4371TIP3    H134604   2.614   3.752  14.458 -1.5987 -1.7537  0.4839
 4371TIP3    H234605   2.730   3.704  14.543 -0.8638 -3.1396 -1.2471
 4372TIP3   OH234606   3.513   4.062   3.499  0.2796 -0.1809  0.1260
 4372TIP3    H134607   3.569   4.066   3.421  0.2256  2.0733  0.1380
 4372TIP3    H234608   3.442   4.002   3.475  0.0218  0.8017 -1.7622
 4373TIP3   OH234609   0.322   3.791   4.539  0.2162  0.1373 -0.0174
 4373TIP3    H134610   0.286   3.876   4.565 -0.0438  0.0831 -0.1947
 4373TIP3    H234611   0.397   3.778   4.596  0.0766  0.3486  0.2154
 4374TIP3   OH234612   1.845   4.387   1.887 -0.1388  0.8542 -0.2628
 4374TIP3    H134613   1.780   4.400   1.956  2.5690  1.6872  2.3455
 4374TIP3    H234614   1.874   4.475   1.864 -1.0230  0.5989 -2.6394
 4375TIP3   OH234615   3.813   1.044   4.166  0.2370  0.2726  0.6359
 4375TIP3    H134616   3.745   1.082   4.111 -0.1385 -0.9462  0.2327
 4375TIP3    H234617   3.766   0.996   4.234  0.6673 -1.0190  0.0458
 4376TIP3   OH234618   6.195   0.862  16.786  0.1917 -0.3777  0.5905
 4376TIP3    H134619   6.291   0.857  16.793  0.2365 -0.5859 -0.1453
 4376TIP3    H234620   6.171   0.788  16.730 -0.2597  0.4983 -0.4008
 4377TIP3   OH234621   2.308   5.000  10.675  0.5018  0.5560  0.1553
 4377TIP3    H134622   2.323   5.088  10.643 -1.3385  0.5818 -0.7485
 4377TIP3    H234623   2.365   4.944  10.622 -0.8682  0.8486 -1.6856
 4378TIP3   OH234624   2.614   1.374  12.824 -0.7112 -0.2687 -0.1872
 4378TIP3    H134625   2.579   1.296  12.866 -1.4323 -0.0061 -0.2884
 4378TIP3    H234626   2.537   1.422  12.794 -0.2447  0.0309 -0.9328
 4379TIP3   OH234627   4.770   5.708   5.082  0.1017  0.3385 -0.0070
 4379TIP3    H134628   4.677   5.730   5.087  0.2789  1.1726 -0.2148
 4379TIP3    H234629   4.810   5.755   5.155  0.1817 -1.1191  0.9427
 4380TIP3   OH234630   1.698   0.715  12.161  0.2459  0.1031  0.6041
 4380TIP3    H134631   1.761   0.766  12.110  0.1039 -2.5694 -2.5226
 4380TIP3    H234632   1.750   0.645  12.201 -0.2661 -0.1429  0.8489
 4381TIP3   OH234633   2.452   4.067   3.391 -0.2982  0.3243  0.1256
 4381TIP3    H134634   2.399   4.005   3.441 -1.2839  0.5207 -0.6331
 4381TIP3    H234635   2.421   4.153   3.420 -1.0298  0.4419 -0.9264
 4382TIP3   OH234636   3.961   5.191  12.449  0.1606 -0.3034 -0.3188
 4382TIP3    H134637   3.975   5.106  12.491  0.1720 -1.0722 -1.8130
 4382TIP3    H234638   4.047   5.233  12.449  0.1342 -0.2275  0.5132
 4383TIP3   OH234639   3.620   5.846   5.892 -0.0802  0.3355  0.1247
 4383TIP3    H134640   3.637   5.752   5.893 -1.5468  0.0362  0.6791
 4383TIP3    H234641   3.581   5.864   5.978 -0.5835  1.2806 -0.2808
 4384TIP3   OH234642   1.457   2.446   4.440 -0.2936 -0.0504  0.5165
 4384TIP3    H134643   1.507   2.398   4.373 -2.1901 -0.3668 -0.7723
 4384TIP3    H234644   1.463   2.390   4.517  1.2451 -0.1069  0.4033
 4385TIP3   OH234645   6.331   4.328  12.984  0.7018 -0.0251  0.3132
 4385TIP3    H134646   6.275   4.250  12.989 -0.1572  0.5071 -0.5606
 4385TIP3    H234647   6.407   4.307  13.038 -0.2594 -0.8481  1.4064
 4386TIP3   OH234648   4.314   5.297  13.368  0.0980 -0.1438 -0.5907
 4386TIP3    H134649   4.327   5.207  13.336  0.5113 -0.6106  0.8009
 4386TIP3    H234650   4.399   5.321  13.404 -0.6885 -0.1962  1.3982
 4387TIP3   OH234651   6.115   0.208  10.893 -0.4102  0.4873 -0.4901
 4387TIP3    H134652   6.054   0.269  10.934 -3.1556 -2.2985 -0.0281
 4387TIP3    H234653   6.118   0.133  10.952  1.5170 -0.5554 -1.7789
 4388TIP3   OH234654   3.509   1.188  11.242 -0.1586 -0.3272 -0.3232
 4388TIP3    H134655   3.538   1.099  11.262  0.5481  0.1954  1.0959
 4388TIP3    H234656   3.420   1.192  11.277 -0.5529 -0.7580 -1.2523
 4389TIP3   OH234657   3.136   2.615   4.944 -0.4875  0.5489  0.2576
 4389TIP3    H134658   3.137   2.594   4.850 -0.2172 -0.5371  0.4892
 4389TIP3    H234659   3.194   2.550   4.983 -2.7759 -0.8286  1.5456
 4390TIP3   OH234660   3.789   0.319  12.775 -0.0475 -0.1467  0.1724
 4390TIP3    H134661   3.853   0.320  12.703 -0.9822  2.4530 -0.7336
 4390TIP3    H234662   3.842   0.328  12.854  0.8074  0.5098 -0.4509
 4391TIP3   OH234663   5.465   3.330   3.129 -0.3536  0.5402  0.2721
 4391TIP3    H134664   5.555   3.318   3.101 -1.2570 -1.7758 -2.1131
 4391TIP3    H234665   5.457   3.278   3.209  0.4840  1.0123  0.6661
 4392TIP3   OH234666   4.232   6.796   1.716  0.5282 -0.0031  0.7647
 4392TIP3    H134667   4.207   6.749   1.636 -0.6924  0.9586  0.5710
 4392TIP3    H234668   4.327   6.804   1.709  0.4477  0.0104 -0.5555
 4393TIP3   OH234669   0.289   1.550  10.975 -0.1512 -0.4614  0.2331
 4393TIP3    H134670   0.303   1.579  11.065 -0.9419  1.0745 -0.1058
 4393TIP3    H234671   0.326   1.620  10.922 -0.7291 -0.8113 -0.6440
 4394TIP3   OH234672   4.020   4.435  14.652  0.8068  0.4572  0.0281
 4394TIP3    H134673   3.968   4.466  14.726  1.6384  0.2869  0.6942
 4394TIP3    H234674   3.956   4.394  14.594  0.1347  0.6417  0.6241
 4395TIP3   OH234675   1.160   4.094   2.834  0.5501 -0.1337 -0.5449
 4395TIP3    H134676   1.121   4.011   2.864  1.2317 -0.9927 -1.9340
 4395TIP3    H234677   1.092   4.159   2.850  1.0832 -0.3335  3.4166
 4396TIP3   OH234678   4.878   4.414  16.849 -0.8749 -0.6015 -0.4058
 4396TIP3    H134679   4.901   4.426  16.942  2.7883 -0.6033 -1.1410
 4396TIP3    H234680   4.807   4.476  16.834 -1.5461 -0.5367  2.3460
 4397TIP3   OH234681   4.925   5.695  12.508  0.3269  0.1303  0.4400
 4397TIP3    H134682   5.020   5.680  12.504  0.5845  1.7768 -2.4602
 4397TIP3    H234683   4.890   5.615  12.545  2.7512 -1.1327  0.2236
 4398TIP3   OH234684   2.539   1.721  10.858  0.1953  0.3987 -0.0844
 4398TIP3    H134685   2.586   1.649  10.817  0.9164  0.1213  1.1893
 4398TIP3    H234686   2.521   1.782  10.786 -0.6344 -1.1266 -1.2255
 4399TIP3   OH234687   5.824   1.824  11.997 -0.3033 -0.2321  0.3788
 4399TIP3    H134688   5.751   1.764  11.981 -0.1747 -0.8591  1.9666
 4399TIP3    H234689   5.857   1.799  12.083  1.4806  0.3694 -0.0896
 4400TIP3   OH234690   1.647   4.049  14.610 -0.1476 -0.3316 -0.1112
 4400TIP3    H134691   1.690   3.963  14.603 -0.0351 -0.2507 -0.4363
 4400TIP3    H234692   1.679   4.084  14.693 -1.1017 -1.0899  0.6051
 4401TIP3   OH234693   2.463   3.141   6.186 -0.2138 -0.0810 -0.0099
 4401TIP3    H134694   2.557   3.145   6.204 -0.0695  1.9588 -0.9343
 4401TIP3    H234695   2.423   3.172   6.268 -0.1960 -2.0590  0.8049
 4402TIP3   OH234696   4.231   2.621  14.954  0.7879  0.3592 -0.6134
 4402TIP3    H134697   4.278   2.546  14.917 -0.3296 -0.4205 -0.4857
 4402TIP3    H234698   4.200   2.590  15.039  0.5424  1.0576 -0.4418
 4403TIP3   OH234699   4.682   5.863   0.261  0.2599 -0.2618  0.1675
 4403TIP3    H134700   4.605   5.833   0.212  0.5311 -0.3523 -0.2080
 4403TIP3    H234701   4.735   5.784   0.274  1.3277  0.1519 -1.4477
 4404TIP3   OH234702   5.921   2.119  13.565  0.4152  0.4100 -0.0036
 4404TIP3    H134703   5.954   2.190  13.619  2.3364  0.3815 -1.0713
 4404TIP3    H234704   5.938   2.146  13.475 -1.9079  0.0585 -0.6124
 4405TIP3   OH234705   6.189   0.423  13.116  0.1494 -0.2066  0.1494
 4405TIP3    H134706   6.218   0.482  13.046  0.2199  0.3257  0.6218
 4405TIP3    H234707   6.114   0.467  13.155  0.3521 -0.3111  0.6670
 4406TIP3   OH234708   5.413   4.830  14.002  0.0755 -0.1958 -0.4311
 4406TIP3    H134709   5.345   4.804  13.941 -0.5203  0.1532  0.0752
 4406TIP3    H234710   5.421   4.925  13.990  0.5083 -0.2407 -0.5203
 4407TIP3   OH234711   3.100   2.420   0.709  0.1085  0.3237 -1.1330
 4407TIP3    H134712   3.017   2.462   0.728  0.5867  0.9399 -0.3493
 4407TIP3    H234713   3.098   2.338   0.759  0.5128  0.9756 -0.0081
 4408TIP3   OH234714   6.012   6.380  11.548 -0.6107 -0.0625  0.3769
 4408TIP3    H134715   6.007   6.342  11.460 -2.5182 -0.4338  0.6087
 4408TIP3    H234716   6.014   6.475  11.533  0.6536 -0.1382 -0.0847
 4409TIP3   OH234717   2.965   2.091   2.560 -0.2837 -0.1293  0.1041
 4409TIP3    H134718   3.048   2.135   2.574  0.4060 -0.9342 -1.2214
 4409TIP3    H234719   2.933   2.070   2.647  1.2170 -0.3742  0.6211
 4410TIP3   OH234720   0.055   6.200  11.363 -0.0084  0.2218  0.2104
 4410TIP3    H134721   0.137   6.150  11.363  1.2224  2.1247  0.0084
 4410TIP3    H234722  -0.011   6.138  11.394  1.8266 -0.8852  2.1949
 4411TIP3   OH234723   4.571   2.322   5.069  0.4081 -0.2112  0.3481
 4411TIP3    H134724   4.502   2.349   5.008 -0.6039 -2.3137  0.4841
 4411TIP3    H234725   4.606   2.241   5.032  1.3172 -0.3340  1.4172
 4412TIP3   OH234726   1.820   1.577  13.032  0.3999  0.1227 -0.3867
 4412TIP3    H134727   1.902   1.580  12.983 -0.2882  1.8804 -1.5210
 4412TIP3    H234728   1.770   1.506  12.992 -0.0844  1.4238 -2.2249
 4413TIP3   OH234729   6.486   2.896   4.358 -0.1435 -0.3167  0.0477
 4413TIP3    H134730   6.469   2.964   4.424 -1.0376 -0.0897 -0.3954
 4413TIP3    H234731   6.475   2.814   4.406 -0.7416 -0.1521  0.2012
 4414TIP3   OH234732   0.993   0.936   4.358  0.5242  0.0686 -0.0594
 4414TIP3    H134733   1.081   0.924   4.393  0.3037  0.9196  0.8108
 4414TIP3    H234734   0.948   0.854   4.380  1.4218 -0.8879 -1.5971
 4415TIP3   OH234735   6.577   6.692  12.483 -0.4249 -0.0723  0.0049
 4415TIP3    H134736   6.564   6.632  12.409  0.4578  0.0782 -0.2834
 4415TIP3    H234737   6.489   6.712  12.513 -0.7962 -0.1887 -0.9655
 4416TIP3   OH234738   3.151   2.992  11.954  0.0565 -0.3126  0.0559
 4416TIP3    H134739   3.166   3.012  11.862 -2.2803  1.7037  0.0084
 4416TIP3    H234740   3.217   2.926  11.976  3.2438  1.9567 -1.9692
 4417TIP3   OH234741   0.637   4.639   3.795 -0.0854 -0.7793  0.6676
 4417TIP3    H134742   0.543   4.630   3.808 -0.1515 -0.1048  0.6992
 4417TIP3    H234743   0.658   4.577   3.725 -0.8415  0.2684 -0.5262
 4418TIP3   OH234744   5.487   2.834   0.848  0.0202  0.5557 -0.2942
 4418TIP3    H134745   5.498   2.805   0.938  3.3402  1.7405 -0.1780
 4418TIP3    H234746   5.413   2.894   0.850 -0.1386  0.3532  1.5579
 4419TIP3   OH234747   4.976   1.073  14.664  0.1040 -0.7087 -0.7049
 4419TIP3    H134748   5.001   1.116  14.745  0.4670  1.4815 -1.8998
 4419TIP3    H234749   4.919   1.002  14.691 -0.6880  0.6389  1.4138
 4420TIP3   OH234750   6.470   2.023  12.149  0.0805  0.0940 -0.5113
 4420TIP3    H134751   6.403   1.955  12.157 -1.6510  1.6071 -1.7252
 4420TIP3    H234752   6.548   1.975  12.120 -0.9046 -1.4589 -0.7265
 4421TIP3   OH234753   6.050   0.310  11.406 -0.1028  0.3060  0.3297
 4421TIP3    H134754   6.086   0.314  11.495 -2.6039 -1.5486  1.5507
 4421TIP3    H234755   5.977   0.371  11.407 -0.1894  0.2193 -0.4215
 4422TIP3   OH234756   6.030   2.424   1.643  0.4477  0.2375  0.1561
 4422TIP3    H134757   6.102   2.448   1.701  1.5116  1.6024 -1.6151
 4422TIP3    H234758   6.003   2.507   1.604 -1.3501 -0.4128 -0.0837
 4423TIP3   OH234759   4.469   5.166  14.296 -0.4755  0.3668 -0.0330
 4423TIP3    H134760   4.509   5.120  14.223 -1.4371 -0.2301 -0.2056
 4423TIP3    H234761   4.375   5.166  14.277 -0.7948 -0.1248  1.3499
 4424TIP3   OH234762   6.392   6.290  13.141 -0.0748 -0.9460 -0.2648
 4424TIP3    H134763   6.311   6.240  13.148  0.0087 -1.2283 -1.2013
 4424TIP3    H234764   6.388   6.329  13.054  0.0068  0.4347  0.3250
 4425TIP3   OH234765   2.480   5.047  13.104 -0.5007 -0.0524  0.1130
 4425TIP3    H134766   2.487   4.992  13.182 -1.8619 -1.1433 -0.4909
 4425TIP3    H234767   2.511   4.992  13.033  1.8203  1.3150 -0.0243
 4426TIP3   OH234768   6.023   5.073  12.089  0.4294  0.0291 -0.0595
 4426TIP3    H134769   6.090   5.059  12.157  0.7403  3.0888  0.4376
 4426TIP3    H234770   5.951   5.017  12.115  1.7781 -1.3288  0.9600
 4427TIP3   OH234771   5.393   4.595  14.126  0.2554 -0.2078  0.1837
 4427TIP3    H134772   5.430   4.680  14.104 -1.3356  1.0947  2.2625
 4427TIP3    H234773   5.449   4.561  14.196  0.6816 -0.7618 -0.4043
 4428TIP3   OH234774   6.343   0.115  11.703  0.2036 -0.2489 -0.4349
 4428TIP3    H134775   6.428   0.155  11.684  1.0425 -1.7811 -0.0875
 4428TIP3    H234776   6.346   0.095  11.797 -2.2341  3.4134  0.6533
 4429TIP3   OH234777   1.343   6.464  11.156  0.0089  0.5281  0.1020
 4429TIP3    H134778   1.340   6.407  11.232 -1.1374  1.0775  0.4934
 4429TIP3    H234779   1.425   6.513  11.165  0.3106 -0.0442  0.4977
 4430TIP3   OH234780   0.943   1.327  16.920  0.3365 -0.1862 -0.1312
 4430TIP3    H134781   0.930   1.372  16.836  2.0470 -2.3183 -1.6627
 4430TIP3    H234782   0.874   1.261  16.923 -1.2058  1.3844  1.3714
 4431TIP3   OH234783   6.330   4.634   5.483 -0.1487 -0.3332 -0.2075
 4431TIP3    H134784   6.381   4.695   5.429  1.1751 -0.4989  0.7975
 4431TIP3    H234785   6.304   4.685   5.560  0.4606 -0.8623  0.3572
 4432TIP3   OH234786   0.066   3.404   2.044  0.2935  0.4059 -0.0856
 4432TIP3    H134787   0.128   3.374   2.111  0.2242 -0.1571 -0.2675
 4432TIP3    H234788   0.119   3.417   1.966  0.2589  0.3741 -0.1146
 4433TIP3   OH234789   1.842   3.991  15.506 -0.0091  0.1621 -0.4703
 4433TIP3    H134790   1.896   4.067  15.485 -1.6410  1.1974 -1.1193
 4433TIP3    H234791   1.903   3.928  15.545  1.5012  1.5501 -0.4871
 4434TIP3   OH234792   5.709   3.308  13.488 -0.1572  0.3820 -0.5453
 4434TIP3    H134793   5.749   3.330  13.572 -0.3622  2.0822 -0.8610
 4434TIP3    H234794   5.650   3.235  13.508  1.7319 -1.0281  0.2546
 4435TIP3   OH234795   2.220   1.405  14.105  0.4065 -0.3698  0.1215
 4435TIP3    H134796   2.310   1.380  14.122 -0.3698 -2.2099  2.0594
 4435TIP3    H234797   2.199   1.469  14.173 -0.2072 -1.2325  0.7726
 4436TIP3   OH234798   2.683   1.215  15.924  0.7516 -0.4729  0.0749
 4436TIP3    H134799   2.594   1.204  15.891  1.0335 -1.5919 -0.3531
 4436TIP3    H234800   2.705   1.130  15.964  1.6040 -0.1994  0.2144
 4437TIP3   OH234801   1.696   5.707   3.639  0.5924 -0.4199 -0.3559
 4437TIP3    H134802   1.747   5.627   3.633  0.3446 -0.5810 -0.3308
 4437TIP3    H234803   1.659   5.706   3.727  1.9202  0.5375  0.2448
 4438TIP3   OH234804   2.395   6.195   5.341 -0.4960  0.0765  0.5324
 4438TIP3    H134805   2.306   6.206   5.373 -0.7008  0.7787 -0.2439
 4438TIP3    H234806   2.385   6.145   5.260 -0.3446  1.4542 -0.3613
 4439TIP3   OH234807   4.220   2.916  13.206 -0.3537  0.9879 -0.2511
 4439TIP3    H134808   4.142   2.864  13.190 -0.5930  1.0760  0.5821
 4439TIP3    H234809   4.216   2.939  13.299 -0.4376  2.8056 -0.6581
 4440TIP3   OH234810   2.889   1.723   0.173 -0.1920  0.5366 -0.0528
 4440TIP3    H134811   2.906   1.656   0.240  2.1910 -0.9701 -2.0187
 4440TIP3    H234812   2.953   1.791   0.192  0.8995 -0.1693 -1.0848
 4441TIP3   OH234813   5.740   1.512  11.678 -0.3439 -0.3590  0.0698
 4441TIP3    H134814   5.697   1.554  11.604 -0.3249 -0.4745 -0.0070
 4441TIP3    H234815   5.720   1.568  11.752 -2.2295 -1.4014  0.4106
 4442TIP3   OH234816   5.979   0.477  16.945 -0.4134  0.5917  0.1823
 4442TIP3    H134817   6.070   0.474  16.916 -0.5162  1.6697 -0.3035
 4442TIP3    H234818   5.974   0.411  17.014  0.6973  0.4112  0.1153
 4443TIP3   OH234819   6.333   0.791  13.119  0.5303 -0.6785  0.4134
 4443TIP3    H134820   6.370   0.844  13.189 -1.4485  0.2802  0.8204
 4443TIP3    H234821   6.238   0.804  13.128  0.2092  1.1376 -3.6780
 4444TIP3   OH234822   0.952   4.313   2.835 -0.0965  0.1111 -0.4161
 4444TIP3    H134823   0.893   4.277   2.769 -0.4259  0.3485 -0.2581
 4444TIP3    H234824   0.899   4.317   2.914  0.4381 -0.6259 -0.0095
 4445TIP3   OH234825   1.583   6.110   5.935  0.1858  0.3591  0.1252
 4445TIP3    H134826   1.587   6.056   5.856  2.1456  1.4577 -0.5837
 4445TIP3    H234827   1.636   6.063   5.999 -1.3872 -0.5218  0.8468
 4446TIP3   OH234828   0.749   2.687  15.341  0.2019 -0.5873  0.3368
 4446TIP3    H134829   0.722   2.699  15.250  1.4890 -1.0052 -0.1172
 4446TIP3    H234830   0.826   2.743  15.351 -1.1992  1.2088  1.8428
 4447TIP3   OH234831   2.733   6.709   1.084  0.0346  0.8698 -1.0811
 4447TIP3    H134832   2.760   6.770   1.014 -0.1910 -1.3748 -3.2629
 4447TIP3    H234833   2.767   6.624   1.056 -2.1568 -0.5613  0.3331
 4448TIP3   OH234834   0.520   0.760  14.544 -0.3098 -0.0323  0.1265
 4448TIP3    H134835   0.493   0.824  14.610 -2.0805 -0.0711 -0.5116
 4448TIP3    H234836   0.473   0.680  14.567 -0.4764 -0.2178 -0.8360
 4449TIP3   OH234837   3.114   0.369  14.976 -0.6652  0.0236 -0.7606
 4449TIP3    H134838   3.148   0.456  14.996  0.5807 -0.0410 -2.3450
 4449TIP3    H234839   3.145   0.313  15.048  0.1616  0.5380 -0.7064
 4450TIP3   OH234840   2.946   5.118  15.726  0.6661 -0.0761 -0.0870
 4450TIP3    H134841   2.896   5.125  15.645  1.4668  0.9874 -0.5079
 4450TIP3    H234842   2.898   5.173  15.788  0.8153  0.2045 -0.2235
 4451TIP3   OH234843   3.595   5.209   1.430  0.0418  0.1605  0.2863
 4451TIP3    H134844   3.603   5.220   1.525 -0.3072 -2.8268  0.7452
 4451TIP3    H234845   3.686   5.197   1.400  0.1567  1.1538  0.1953
 4452TIP3   OH234846   5.274   1.143  14.788 -0.1810 -0.2467  0.1073
 4452TIP3    H134847   5.187   1.167  14.820 -0.7940  0.2311 -1.8082
 4452TIP3    H234848   5.307   1.081  14.853 -1.4364  0.4849  1.5003
 4453TIP3   OH234849   5.410   4.624   3.973 -0.2528 -0.0835  0.4893
 4453TIP3    H134850   5.480   4.632   4.037 -1.0651 -0.9280  1.5244
 4453TIP3    H234851   5.413   4.532   3.945 -0.4889  0.0511 -0.0045
 4454TIP3   OH234852   0.904   4.098  16.182  0.3124 -0.1915 -0.3033
 4454TIP3    H134853   0.959   4.173  16.158  0.2927 -0.0911 -0.0406
 4454TIP3    H234854   0.828   4.138  16.225  1.0683 -0.4434  1.3205
 4455TIP3   OH234855   3.721   4.419  11.918  0.4057 -0.5746 -0.0572
 4455TIP3    H134856   3.786   4.357  11.885  1.1918  0.9422 -1.5268
 4455TIP3    H234857   3.749   4.438  12.008  1.3969 -0.7463 -0.3184
 4456TIP3   OH234858   2.471   2.659  17.110  0.0327  0.0146  0.4160
 4456TIP3    H134859   2.475   2.573  17.068  0.0157  0.0278  0.3876
 4456TIP3    H234860   2.560   2.675  17.142  0.0976  0.1077  0.1839
 4457TIP3   OH234861   1.009   4.281  13.389 -0.2432  0.1075 -0.5263
 4457TIP3    H134862   0.970   4.357  13.431 -0.7840 -0.2121 -0.4445
 4457TIP3    H234863   0.947   4.256  13.321  0.3535  0.2716 -1.1534
 4458TIP3   OH234864   5.887   2.931   1.446 -0.1890 -0.2272 -0.3506
 4458TIP3    H134865   5.803   2.948   1.404 -0.6321 -1.7068 -0.1175
 4458TIP3    H234866   5.907   3.012   1.493 -1.7119 -0.0041 -0.0311
 4459TIP3   OH234867   5.361   3.825   1.875 -0.1181  0.1579  0.2677
 4459TIP3    H134868   5.305   3.831   1.798 -1.2805 -0.3599  1.0485
 4459TIP3    H234869   5.331   3.897   1.931  1.1818  0.9664 -0.0240
 4460TIP3   OH234870   0.055   5.662   5.068  0.3834 -0.1734  0.1385
 4460TIP3    H134871   0.096   5.675   4.982  0.2645  0.1648  0.1301
 4460TIP3    H234872   0.055   5.749   5.108  3.3300 -0.8208  1.8125
 4461TIP3   OH234873   1.853   5.792  14.778 -0.1769 -0.1978  0.3392
 4461TIP3    H134874   1.903   5.711  14.772 -0.7843 -0.7447  1.9855
 4461TIP3    H234875   1.916   5.856  14.811  0.0082 -0.2950  0.1791
 4462TIP3   OH234876   4.310   4.491  13.332 -0.1029  0.5485  0.0055
 4462TIP3    H134877   4.216   4.482  13.323 -0.0058 -1.3608  0.4819
 4462TIP3    H234878   4.338   4.537  13.253 -1.2239 -0.3847 -0.9621
 4463TIP3   OH234879   3.477   5.042  14.540 -0.0924  0.1293  0.1137
 4463TIP3    H134880   3.431   4.964  14.569 -0.8256  1.1563  1.8892
 4463TIP3    H234881   3.481   5.034  14.445  2.7130 -3.5994  0.3568
 4464TIP3   OH234882   5.574   5.404   0.398 -0.1658 -0.1104  0.0265
 4464TIP3    H134883   5.646   5.426   0.456 -0.2734 -0.8248  0.4510
 4464TIP3    H234884   5.520   5.483   0.394 -0.8347 -0.4125  1.9157
 4465TIP3   OH234885   2.248   4.392   0.485 -0.1772  0.1899  0.5338
 4465TIP3    H134886   2.179   4.434   0.433 -1.0639 -0.2116  1.3592
 4465TIP3    H234887   2.294   4.336   0.423  0.1645  1.3359 -0.2877
 4466TIP3   OH234888   3.844   0.782  15.412 -0.0846  0.4949 -0.2492
 4466TIP3    H134889   3.919   0.774  15.472  0.4371  0.7216 -0.8561
 4466TIP3    H234890   3.768   0.790  15.470  0.5018  1.6540  0.3985
 4467TIP3   OH234891   3.374   3.418   2.218 -0.1528  0.2630 -0.2807
 4467TIP3    H134892   3.437   3.426   2.290  1.4489 -0.1020 -1.5845
 4467TIP3    H234893   3.394   3.491   2.160  0.8553 -1.2596 -1.9804
 4468TIP3   OH234894   0.611   0.898  12.246 -0.1192  0.6024  0.0308
 4468TIP3    H134895   0.593   0.868  12.335  0.7386 -0.9949 -0.2918
 4468TIP3    H234896   0.697   0.941  12.252 -1.3450  3.2139  0.4937
 4469TIP3   OH234897   2.574   6.372  14.364 -0.5199  0.1546  0.9395
 4469TIP3    H134898   2.625   6.437  14.412  0.3738 -0.0634  0.3191
 4469TIP3    H234899   2.540   6.313  14.431 -1.2072  1.1633  1.4954
 4470TIP3   OH234900   3.316   4.558  14.438 -0.0180  0.1854  0.4240
 4470TIP3    H134901   3.243   4.498  14.429  0.8138 -0.5029 -3.2768
 4470TIP3    H234902   3.291   4.635  14.387  0.1163  1.8928  2.7659
 4471TIP3   OH234903   5.830   0.898   0.249 -0.3756  0.1092  0.0271
 4471TIP3    H134904   5.739   0.910   0.222 -0.8243 -1.5993  0.5927
 4471TIP3    H234905   5.827   0.823   0.309  1.7647 -1.9202 -2.1784
 4472TIP3   OH234906   1.494   1.122   2.572 -0.1282 -0.8803  0.6475
 4472TIP3    H134907   1.427   1.147   2.508 -0.1262 -0.1292  0.9303
 4472TIP3    H234908   1.572   1.107   2.519 -0.1344 -0.2963  0.4608
 4473TIP3   OH234909   0.014   0.460   5.541 -0.0263 -0.0656 -0.2539
 4473TIP3    H134910   0.022   0.460   5.446  0.9501 -0.0536 -0.1843
 4473TIP3    H234911   0.022   0.368   5.566 -3.6600 -0.5613 -0.3877
 4474TIP3   OH234912   0.026   5.135  13.060  0.0504 -0.0560  0.0708
 4474TIP3    H134913  -0.023   5.197  13.006  0.8780  0.9502  0.4395
 4474TIP3    H234914  -0.027   5.125  13.140 -1.1628 -1.5318 -0.8570
 4475TIP3   OH234915   4.444   0.365   3.399  0.3836  0.1918 -0.1100
 4475TIP3    H134916   4.405   0.315   3.327  1.5483 -0.1417 -0.5324
 4475TIP3    H234917   4.474   0.446   3.358  1.7196 -0.3168 -0.1667
 4476TIP3   OH234918   1.049   2.680   0.187 -0.6607 -0.2820  0.1208
 4476TIP3    H134919   1.025   2.643   0.273 -0.5541 -2.5802 -0.7670
 4476TIP3    H234920   1.125   2.629   0.160 -0.7873  0.3067 -1.4251
 4477TIP3   OH234921   4.938   5.064   1.509 -0.1692 -0.0395  0.0816
 4477TIP3    H134922   4.995   5.115   1.452  0.1900  0.0408  0.5047
 4477TIP3    H234923   4.866   5.034   1.452  0.8904 -1.1196 -0.7374
 4478TIP3   OH234924   2.889   5.354  14.765  0.1853  0.0130  0.3396
 4478TIP3    H134925   2.824   5.423  14.753 -0.1415 -0.2345  0.6491
 4478TIP3    H234926   2.896   5.312  14.680  1.6507  1.5027 -0.3413
 4479TIP3   OH234927   2.689   5.858  13.453  0.1168 -0.0830  0.6317
 4479TIP3    H134928   2.780   5.859  13.423 -0.1178 -0.7679 -0.1457
 4479TIP3    H234929   2.692   5.897  13.540  1.5094 -2.2618  1.6319
 4480TIP3   OH234930   2.791   1.320   5.345 -0.2489  0.4039  0.0970
 4480TIP3    H134931   2.734   1.320   5.268 -1.0109  1.1718  0.6401
 4480TIP3    H234932   2.857   1.387   5.326 -0.6040  0.7963  0.2138
 4481TIP3   OH234933   5.762   0.579  10.860  0.3033  0.3819 -0.5037
 4481TIP3    H134934   5.722   0.666  10.861 -0.9024 -0.1433 -1.0877
 4481TIP3    H234935   5.705   0.527  10.804  0.9797 -0.8095 -0.1187
 4482TIP3   OH234936   5.851   0.220  16.093 -0.4592  0.0832  0.7217
 4482TIP3    H134937   5.839   0.315  16.093  1.7885  0.4248  0.7721
 4482TIP3    H234938   5.924   0.205  16.153  1.7687 -1.2524 -2.0800
 4483TIP3   OH234939   1.027   4.423   3.244 -0.1441 -0.3220 -0.2629
 4483TIP3    H134940   0.934   4.427   3.221  0.3668  0.0934 -2.5502
 4483TIP3    H234941   1.064   4.504   3.208  1.1586 -0.6390  0.3115
 4484TIP3   OH234942   4.994   0.151  15.110  0.0117 -0.7549  0.1950
 4484TIP3    H134943   5.029   0.100  15.183  1.1395 -0.0363  0.1911
 4484TIP3    H234944   5.070   0.198  15.075 -0.1437 -2.2220 -2.4195
 4485TIP3   OH234945   2.376   4.311  12.087  0.2565  0.7363  0.2844
 4485TIP3    H134946   2.392   4.397  12.047 -0.1708  0.7912  0.2287
 4485TIP3    H234947   2.301   4.325  12.144 -0.0601  0.3073 -0.0214
 4486TIP3   OH234948   0.118   5.661   2.993 -0.1828  0.4962 -0.6761
 4486TIP3    H134949   0.188   5.599   3.017 -0.0833  0.6096 -0.6742
 4486TIP3    H234950   0.123   5.665   2.897  0.3779  1.1622 -0.6245
 4487TIP3   OH234951   1.381   5.972   0.427  0.1700  0.2399  0.0064
 4487TIP3    H134952   1.294   5.933   0.439  1.5301 -2.6834  1.5032
 4487TIP3    H234953   1.377   6.011   0.339 -2.7543  0.6457  0.2068
 4488TIP3   OH234954   5.197   0.677  13.645 -0.1163  0.3631  0.0235
 4488TIP3    H134955   5.219   0.667  13.552  3.2680  3.1889  0.3520
 4488TIP3    H234956   5.131   0.746  13.647  0.0406  0.5188 -0.2306
 4489TIP3   OH234957   4.045   1.850  11.824  0.1416 -0.4848  0.0392
 4489TIP3    H134958   3.969   1.808  11.864 -0.6422  0.3636 -0.5057
 4489TIP3    H234959   4.106   1.865  11.896 -0.3442 -0.8820  0.5393
 4490TIP3   OH234960   4.557   1.526  11.520 -0.6976 -0.1592 -0.6183
 4490TIP3    H134961   4.489   1.576  11.475 -1.2383 -1.1406 -0.9183
 4490TIP3    H234962   4.549   1.553  11.612 -0.9442  0.3377 -0.7797
 4491TIP3   OH234963   5.367   6.634   3.646  0.0397 -0.0229 -0.1155
 4491TIP3    H134964   5.358   6.562   3.709  0.5963  0.2727  0.3108
 4491TIP3    H234965   5.279   6.648   3.613 -0.2377 -0.2673  0.5075
 4492TIP3   OH234966   5.870   6.805   5.309  0.0036  0.4163 -0.2324
 4492TIP3    H134967   5.889   6.861   5.234 -1.3006  1.1965 -0.0076
 4492TIP3    H234968   5.879   6.863   5.385 -2.8049  0.7791 -0.0924
 4493TIP3   OH234969   1.283   4.716   5.375 -0.0765 -0.4490 -0.0686
 4493TIP3    H134970   1.371   4.745   5.397 -0.1141 -0.3828 -0.0037
 4493TIP3    H234971   1.293   4.624   5.351  0.1598 -0.1905 -0.9900
 4494TIP3   OH234972   4.804   4.725  13.091 -0.1900 -0.2812 -0.2591
 4494TIP3    H134973   4.893   4.715  13.125 -0.0441 -1.1893 -0.8689
 4494TIP3    H234974   4.816   4.730  12.996 -0.7354  0.3840 -0.3047
 4495TIP3   OH234975   2.163   1.625   3.893 -0.0928  0.0698  0.7952
 4495TIP3    H134976   2.077   1.584   3.876 -0.4297  0.3748  1.6894
 4495TIP3    H234977   2.142   1.706   3.939  0.7208 -0.3675  1.9825
 4496TIP3   OH234978   0.136   6.086  13.934 -0.2649 -0.1813  0.0455
 4496TIP3    H134979   0.172   6.147  13.869  2.3479 -0.7583  0.8371
 4496TIP3    H234980   0.117   6.007  13.884  3.3144 -1.2310  0.0588
 4497TIP3   OH234981   2.302   0.977   6.072 -0.5027  0.4907 -0.0936
 4497TIP3    H134982   2.352   0.909   6.029  1.5988  0.2070  2.5210
 4497TIP3    H234983   2.341   1.059   6.041 -1.7177  0.4962 -1.7241
 4498TIP3   OH234984   3.255   1.003   3.133 -0.4371  0.3011  0.8490
 4498TIP3    H134985   3.205   0.922   3.122 -1.0728  0.8311 -0.4526
 4498TIP3    H234986   3.231   1.056   3.057  2.8093  0.2178 -0.4163
 4499TIP3   OH234987   0.458   1.010  16.368 -0.2207  0.0593  0.3176
 4499TIP3    H134988   0.541   0.963  16.370  0.3967  1.1277  0.9068
 4499TIP3    H234989   0.454   1.048  16.280 -0.7513 -1.1060 -0.1813
 4500TIP3   OH234990   4.741   6.086   3.854 -0.1754  0.1832  0.4395
 4500TIP3    H134991   4.738   5.999   3.893 -0.5974  1.0754  2.5761
 4500TIP3    H234992   4.814   6.130   3.898  0.2647  0.8022 -0.8623
 4501TIP3   OH234993   1.314   4.477  16.456 -0.8554 -0.2133 -0.1888
 4501TIP3    H134994   1.307   4.390  16.495  0.5468  0.4081  1.5722
 4501TIP3    H234995   1.223   4.509  16.453 -1.1302 -0.6497  1.7958
 4502TIP3   OH234996   3.307   0.044  16.068 -0.1146 -0.1496 -0.4584
 4502TIP3    H134997   3.320  -0.047  16.042 -2.2207 -0.4186 -0.7349
 4502TIP3    H234998   3.305   0.092  15.985 -0.2775 -0.0442 -0.3937
 4503TIP3   OH234999   3.940   3.546   4.803  0.0783 -0.0378  0.4477
 4503TIP3    H135000   3.952   3.498   4.885  0.1595 -1.3223 -0.3033
 4503TIP3    H235001   3.992   3.626   4.814 -1.1236  0.5534  2.2379
 4504TIP3   OH235002   4.457   2.776  14.398 -0.1547  0.0266  0.2201
 4504TIP3    H135003   4.491   2.718  14.466 -1.0410 -0.7183  0.0409
 4504TIP3    H235004   4.503   2.859  14.413 -0.7697  0.0682  2.1233
 4505TIP3   OH235005   6.091   1.226   3.728  0.1788  0.2201  0.5737
 4505TIP3    H135006   6.069   1.294   3.791  0.6531  0.0604  0.9178
 4505TIP3    H235007   6.186   1.217   3.734 -0.0242 -1.9602  2.1285
 4506TIP3   OH235008   4.401   5.095  16.800 -0.2611 -0.7251 -0.2053
 4506TIP3    H135009   4.462   5.044  16.746 -0.0703 -0.0271 -0.6600
 4506TIP3    H235010   4.364   5.159  16.740  0.5351  0.5855  0.6464
 4507TIP3   OH235011   1.029   2.975   5.162 -0.3851  0.4848  0.1473
 4507TIP3    H135012   1.014   3.046   5.099  0.3276  0.5703  0.0609
 4507TIP3    H235013   1.008   2.895   5.114  0.4907  0.5245 -0.3282
 4508TIP3   OH235014   3.059   4.180   3.744  0.5627  0.6144  0.1657
 4508TIP3    H135015   3.052   4.087   3.767  4.3133 -0.0323 -0.5899
 4508TIP3    H235016   3.026   4.226   3.821  0.3068 -1.3683  1.3262
 4509TIP3   OH235017   1.530   0.651   5.889  0.2013  0.4530  0.4938
 4509TIP3    H135018   1.519   0.618   5.978  0.9543 -0.6785  0.1824
 4509TIP3    H235019   1.496   0.741   5.893 -1.3379 -0.1378  1.5103
 4510TIP3   OH235020   3.928   0.693   2.888 -0.5807  0.1277 -0.5418
 4510TIP3    H135021   3.860   0.626   2.898 -0.0732 -0.2301  0.6818
 4510TIP3    H235022   3.995   0.651   2.835  0.0953 -0.6490  0.8764
 4511TIP3   OH235023   1.053   3.723   5.037  0.0394  0.1173 -0.2678
 4511TIP3    H135024   1.034   3.659   5.106  0.5599  1.1973  0.9300
 4511TIP3    H235025   0.978   3.717   4.978 -0.0468 -1.3960 -0.0420
 4512TIP3   OH235026   4.969   5.756  11.168 -0.1954 -0.5259 -0.2067
 4512TIP3    H135027   4.918   5.684  11.132 -1.7311 -0.0177  0.8502
 4512TIP3    H235028   4.925   5.835  11.136 -0.0606 -0.0719  0.6971
 4513TIP3   OH235029   5.177   6.249   2.730 -0.4817 -0.0811  0.1110
 4513TIP3    H135030   5.228   6.206   2.798 -2.1834  0.9438  2.1448
 4513TIP3    H235031   5.240   6.304   2.684  0.7529 -0.9704  0.7002
 4514TIP3   OH235032   6.133   2.018  14.634 -0.0894 -0.1524  0.1838
 4514TIP3    H135033   6.079   2.038  14.710  1.2735  3.3853  0.4144
 4514TIP3    H235034   6.222   2.020  14.666  0.4095 -1.3676 -1.0302
 4515TIP3   OH235035   4.159   1.824  15.735 -0.0961 -0.0434  0.3171
 4515TIP3    H135036   4.199   1.764  15.672  0.7929  1.9962 -1.1942
 4515TIP3    H235037   4.086   1.776  15.772 -0.4996 -1.4462 -2.1117
 4516TIP3   OH235038   4.509   6.315   4.003 -0.0193 -0.5193  0.1144
 4516TIP3    H135039   4.544   6.356   3.924  0.9932  1.1646  1.3637
 4516TIP3    H235040   4.586   6.280   4.048 -0.4143 -0.3571  0.9372
 4517TIP3   OH235041   2.131   2.454   5.308 -0.3318  0.0672  0.3107
 4517TIP3    H135042   2.155   2.513   5.379  1.4977  0.2335 -0.3663
 4517TIP3    H235043   2.149   2.366   5.342  0.5973  0.1499  0.0837
 4518TIP3   OH235044   2.341   2.354  11.986  0.3753  0.2591 -0.0995
 4518TIP3    H135045   2.382   2.441  11.983  0.0819  0.4233  0.4438
 4518TIP3    H235046   2.293   2.348  11.904  0.8475  0.3847 -0.3903
 4519TIP3   OH235047   0.826   1.474  15.354  0.1272 -0.2691 -0.0650
 4519TIP3    H135048   0.751   1.419  15.376  0.2407 -1.0993 -1.5909
 4519TIP3    H235049   0.901   1.415  15.356  0.1474 -0.4236 -2.4276
 4520TIP3   OH235050   4.079   3.270   1.801 -0.4889 -0.2125  0.1387
 4520TIP3    H135051   3.984   3.254   1.801 -0.5430  0.0749  0.5796
 4520TIP3    H235052   4.115   3.200   1.856 -0.4149 -0.4836 -0.2543
 4521TIP3   OH235053   6.111   1.312   4.981  0.4928 -0.4475  0.0142
 4521TIP3    H135054   6.113   1.369   5.058  2.8591  1.5518 -1.3826
 4521TIP3    H235055   6.023   1.322   4.946  0.9015  2.8793 -0.4179
 4522TIP3   OH235056   6.712   3.749   4.796 -0.3023  0.7968 -0.4315
 4522TIP3    H135057   6.803   3.777   4.805  0.4042 -1.4004 -0.1647
 4522TIP3    H235058   6.691   3.768   4.705  1.0916 -0.3715 -1.0491
 4523TIP3   OH235059   6.786   6.771  13.829 -0.1530 -0.6185 -0.3348
 4523TIP3    H135060   6.756   6.787  13.919 -0.1598 -2.2278 -0.0043
 4523TIP3    H235061   6.879   6.794  13.830 -0.3316  0.1121 -0.1327
 4524TIP3   OH235062   2.705   4.703  13.194  0.0694 -0.1962  0.0136
 4524TIP3    H135063   2.778   4.743  13.243  1.1857 -1.9825 -0.1078
 4524TIP3    H235064   2.748   4.653  13.125 -1.1598 -2.5750  0.8799
 4525TIP3   OH235065   3.416   5.272   0.328 -0.1737  0.1891 -0.1077
 4525TIP3    H135066   3.509   5.259   0.345 -0.5272 -1.7220  0.7234
 4525TIP3    H235067   3.404   5.242   0.237  0.0823  0.9323 -0.3962
 4526TIP3   OH235068   3.624   4.260   2.069  0.6979 -0.9333 -0.0424
 4526TIP3    H135069   3.621   4.262   2.165  0.1289  0.9758 -0.0497
 4526TIP3    H235070   3.546   4.309   2.042  1.7069 -0.0194 -1.4372
 4527TIP3   OH235071   2.095   0.949   5.858 -0.6629  0.0604 -0.0508
 4527TIP3    H135072   2.150   0.966   5.935  0.7842 -1.7289 -0.5884
 4527TIP3    H235073   2.015   0.999   5.873  0.7434  2.0716  1.2197
 4528TIP3   OH235074   5.572   6.706  15.480 -0.0168  0.1969 -0.3371
 4528TIP3    H135075   5.491   6.656  15.472  0.8266 -1.1607 -0.8008
 4528TIP3    H235076   5.579   6.727  15.573  0.2155 -1.6661  0.0996
 4529TIP3   OH235077   5.709   1.518   5.082 -0.0664 -0.6583  0.2742
 4529TIP3    H135078   5.633   1.460   5.075  0.8063 -1.9781  1.1957
 4529TIP3    H235079   5.676   1.595   5.129 -1.0861 -0.7089 -0.3399
 4530TIP3   OH235080   4.317   4.611   3.033  0.1224  0.5612 -0.2175
 4530TIP3    H135081   4.269   4.530   3.050  1.4932 -0.1612  0.3519
 4530TIP3    H235082   4.249   4.676   3.016 -1.0220 -0.5872 -0.1640
 4531TIP3   OH235083   2.041   1.311   6.015 -0.5380  0.0785  0.1835
 4531TIP3    H135084   2.006   1.388   6.059  0.0794  0.6325 -0.2847
 4531TIP3    H235085   2.135   1.326   6.012 -0.3143 -1.0833  0.8383
 4532TIP3   OH235086   4.830   0.410   0.852 -0.5415 -0.6593  0.3709
 4532TIP3    H135087   4.846   0.407   0.947 -1.1057  0.3398  0.5114
 4532TIP3    H235088   4.892   0.475   0.819  0.5867 -1.9517 -0.1775
 4533TIP3   OH235089   6.294   2.806  15.204  0.0879  0.1681  0.4556
 4533TIP3    H135090   6.200   2.787  15.213 -0.3644  0.6587 -2.4279
 4533TIP3    H235091   6.337   2.722  15.221 -0.7349  0.0943  2.5659
 4534TIP3   OH235092   1.968   1.054   0.864  0.2752  0.6290 -0.4363
 4534TIP3    H135093   1.961   1.139   0.908  0.3075  1.1718 -1.4565
 4534TIP3    H235094   2.054   1.055   0.823  0.0290  0.3439 -0.9565
 4535TIP3   OH235095   2.521   4.871  10.543  0.1025  0.2671 -0.1570
 4535TIP3    H135096   2.549   4.795  10.491 -1.3235 -1.0852  0.9527
 4535TIP3    H235097   2.467   4.923  10.483 -1.7492 -1.4133 -0.0581
 4536TIP3   OH235098   2.971   5.730   1.229 -0.5439  0.2177  0.4892
 4536TIP3    H135099   2.940   5.807   1.276 -1.3066 -1.4855  3.0364
 4536TIP3    H235100   3.063   5.722   1.254  0.0218  1.1977 -1.1586
 4537TIP3   OH235101   2.851   1.862   3.338 -0.1756  0.2786  0.0110
 4537TIP3    H135102   2.783   1.814   3.292  0.3209  1.0395 -1.6143
 4537TIP3    H235103   2.804   1.930   3.386 -0.7567 -0.9068  1.1868
 4538TIP3   OH235104   0.283   5.173  13.039  0.2515 -0.1541 -0.1884
 4538TIP3    H135105   0.190   5.154  13.050  0.1748 -1.0736 -2.0806
 4538TIP3    H235106   0.284   5.261  12.999  0.3017  0.6215  1.4434
 4539TIP3   OH235107   4.893   2.009   5.965  0.0218 -0.0377  0.2244
 4539TIP3    H135108   4.948   2.051   6.031  1.2654 -1.5343  0.2021
 4539TIP3    H235109   4.897   2.068   5.890  1.5827 -0.0790  0.2431
 4540TIP3   OH235110   4.622   3.344  12.841 -0.6116 -0.1201  0.3189
 4540TIP3    H135111   4.555   3.352  12.909 -0.9987 -1.5044  0.1231
 4540TIP3    H235112   4.595   3.270  12.788  0.8359 -0.4249 -0.0467
 4541TIP3   OH235113   3.617   0.744   1.165  0.5287  0.2704  0.8082
 4541TIP3    H135114   3.554   0.678   1.194 -0.4829  1.0305  0.4320
 4541TIP3    H235115   3.702   0.701   1.171 -0.2919 -2.1680 -2.2752
 4542TIP3   OH235116   4.798   2.471  11.989  0.0850 -0.6219  0.8765
 4542TIP3    H135117   4.823   2.521  12.067 -0.6817 -1.4948  1.7273
 4542TIP3    H235118   4.880   2.430  11.960  0.3415 -0.4671  1.3623
 4543TIP3   OH235119   1.496   6.370   5.779 -0.4494  0.3706  0.4166
 4543TIP3    H135120   1.553   6.396   5.851 -0.5727  0.2200  0.5703
 4543TIP3    H235121   1.451   6.291   5.811  0.5727 -0.5666 -0.3736
 4544TIP3   OH235122   5.165   4.007   1.927 -0.3248 -0.2129 -0.1171
 4544TIP3    H135123   5.128   3.955   1.855 -0.3705 -1.2455  0.6439
 4544TIP3    H235124   5.094   4.015   1.990 -0.2542  0.6161 -0.1267
 4545TIP3   OH235125   6.056   5.240   0.081 -0.3115 -0.0934 -0.2650
 4545TIP3    H135126   6.140   5.233   0.127  0.3953  1.6276 -1.2158
 4545TIP3    H235127   6.057   5.167   0.019  0.3146 -0.3182  0.0033
 4546TIP3   OH235128   2.678   4.145   2.937 -0.0580  0.8738 -0.4417
 4546TIP3    H135129   2.645   4.127   3.025 -1.6659  1.0688 -0.9685
 4546TIP3    H235130   2.629   4.085   2.881  1.0309  0.6742 -1.2016
 4547TIP3   OH235131   2.761   2.338   2.701  0.1441  0.2193 -0.1499
 4547TIP3    H135132   2.840   2.374   2.661  0.4377  0.8791  0.9737
 4547TIP3    H235133   2.783   2.328   2.794 -0.8481 -0.2825  0.0500
 4548TIP3   OH235134   2.987   0.281  15.334  0.3208  0.3835 -0.0994
 4548TIP3    H135135   2.936   0.356  15.305  0.5290  1.4437  2.0856
 4548TIP3    H235136   3.062   0.278  15.274 -0.5618  0.8448 -1.2604
 4549TIP3   OH235137   1.462   4.531  13.317  0.3737  0.8676 -0.2135
 4549TIP3    H135138   1.400   4.595  13.281  0.4160  1.0228 -0.0074
 4549TIP3    H235139   1.410   4.480  13.379  0.1194  0.1366 -1.0070
 4550TIP3   OH235140   0.631   1.926   1.104  0.3177 -0.2549  0.0520
 4550TIP3    H135141   0.589   2.002   1.145  0.4351 -1.5197  2.7202
 4550TIP3    H235142   0.558   1.865   1.088  0.3588 -0.0108 -1.1459
 4551TIP3   OH235143   3.651   2.162   0.439 -1.0034 -1.0178 -0.4015
 4551TIP3    H135144   3.596   2.215   0.381  0.6863 -0.2498 -1.3935
 4551TIP3    H235145   3.649   2.075   0.401 -0.8851 -0.8014 -0.9165
 4552TIP3   OH235146   2.136   0.782   2.586  0.3296 -0.4848 -0.2049
 4552TIP3    H135147   2.220   0.825   2.598  0.0174  0.1468 -0.2255
 4552TIP3    H235148   2.076   0.852   2.559 -0.0060 -1.0812 -1.0727
 4553TIP3   OH235149   5.132   2.732   4.970  0.1999 -0.8260  0.4524
 4553TIP3    H135150   5.054   2.759   5.018 -0.3381  0.2146 -0.9591
 4553TIP3    H235151   5.101   2.664   4.910 -0.0469  0.7509 -1.3121
 4554TIP3   OH235152   6.677   0.607   3.189 -0.5787 -0.0807  0.1375
 4554TIP3    H135153   6.607   0.587   3.252  0.3056 -1.4425  0.7234
 4554TIP3    H235154   6.757   0.600   3.240  0.0756  0.3235 -0.8100
 4555TIP3   OH235155   1.429   4.798  16.510 -0.3029  0.5236 -0.0490
 4555TIP3    H135156   1.365   4.801  16.582  0.7121 -1.0772  0.9948
 4555TIP3    H235157   1.514   4.792  16.554  0.7221  3.4779 -1.3808
 4556TIP3   OH235158   2.512   5.993  12.691 -0.3317  0.0446 -0.3907
 4556TIP3    H135159   2.563   6.031  12.620 -1.5461  0.4020 -1.0923
 4556TIP3    H235160   2.531   5.899  12.686  2.1754  0.3787  0.9485
 4557TIP3   OH235161   3.370   5.152  16.863  0.2901  0.1949  0.1178
 4557TIP3    H135162   3.410   5.169  16.777  1.4866  0.4683  0.7031
 4557TIP3    H235163   3.419   5.078  16.898  0.2463  0.4945  0.8303
 4558TIP3   OH235164   5.256   2.197   4.684 -0.1467  0.3399  0.4970
 4558TIP3    H135165   5.202   2.172   4.609 -1.0984  1.6658  0.7151
 4558TIP3    H235166   5.330   2.136   4.681 -0.9529 -0.6379 -0.5993
 4559TIP3   OH235167   6.129   5.306  13.632  0.0575 -0.2571 -0.4148
 4559TIP3    H135168   6.216   5.342  13.615 -0.0612  0.4372  0.3685
 4559TIP3    H235169   6.070   5.358  13.578 -0.0077  0.0860 -0.0135
 4560TIP3   OH235170   1.666   0.703  12.804  0.4233  0.1376 -0.2759
 4560TIP3    H135171   1.688   0.659  12.721 -1.0253 -1.1264 -0.0269
 4560TIP3    H235172   1.624   0.635  12.857 -0.4312  1.4241  0.7587
 4561TIP3   OH235173   1.225   0.697  11.081 -0.2380  0.1605 -0.6775
 4561TIP3    H135174   1.251   0.609  11.110 -1.0585 -0.0509 -0.5708
 4561TIP3    H235175   1.146   0.683  11.029 -0.2063  0.8089 -0.9054
 4562TIP3   OH235176   5.645   6.479   0.537 -0.4963  0.5133 -0.1147
 4562TIP3    H135177   5.634   6.422   0.461  2.8542  1.4616 -1.4990
 4562TIP3    H235178   5.557   6.510   0.556 -1.8163 -1.7093 -2.0209
 4563TIP3   OH235179   4.787   3.945  15.370 -0.1202  0.3728  0.1875
 4563TIP3    H135180   4.808   3.853  15.389 -0.9055 -0.0190 -0.7659
 4563TIP3    H235181   4.817   3.958  15.281 -0.2282  0.9849  0.2386
 4564TIP3   OH235182   4.827   1.952  15.655 -0.3314  0.3071  0.2111
 4564TIP3    H135183   4.877   1.932  15.576  0.1698 -2.1777  1.0474
 4564TIP3    H235184   4.872   2.025  15.695  1.1201 -0.2383 -0.3725
 4565TIP3   OH235185   0.305   4.472  15.922 -0.5563  0.2297  0.2902
 4565TIP3    H135186   0.247   4.404  15.954  0.7675 -0.8654  0.4535
 4565TIP3    H235187   0.322   4.449  15.830  0.1072  0.1650  0.4216
 4566TIP3   OH235188   3.080   0.273  15.944  0.0066 -0.0826  1.0207
 4566TIP3    H135189   3.086   0.268  16.040  0.2359  0.1343  1.0176
 4566TIP3    H235190   3.049   0.362  15.927  1.1171  0.2778  0.8434
 4567TIP3   OH235191   1.225   3.929  13.931  0.0289  0.0260 -0.4965
 4567TIP3    H135192   1.286   3.908  14.001  3.2939  0.5776 -2.9373
 4567TIP3    H235193   1.259   4.010  13.893 -1.6268 -0.2015 -2.6364
 4568TIP3   OH235194   1.183   0.785   5.280 -0.2161  0.1652  0.3781
 4568TIP3    H135195   1.265   0.764   5.235 -0.3626  1.2995 -0.4506
 4568TIP3    H235196   1.114   0.755   5.221 -0.4164 -0.4284  0.8965
 4569TIP3   OH235197   1.724   4.650  16.116  0.7090  0.1041 -0.2103
 4569TIP3    H135198   1.726   4.672  16.209  1.4002  1.9445 -0.6141
 4569TIP3    H235199   1.686   4.727  16.074 -1.3036 -1.3955 -1.3271
 4570TIP3   OH235200   0.062   2.561   2.717 -0.0121  0.0442 -0.1867
 4570TIP3    H135201   0.032   2.650   2.738  0.4253  0.1637 -0.0598
 4570TIP3    H235202   0.009   2.535   2.641 -0.6351  0.1402  0.2131
 4571TIP3   OH235203   1.293   1.600   4.365  0.4000  0.1866  0.3386
 4571TIP3    H135204   1.288   1.516   4.321  1.0784 -0.3653  1.2714
 4571TIP3    H235205   1.234   1.657   4.316  1.7549 -0.1446 -1.7704
 4572TIP3   OH235206   0.914   4.504  13.500 -0.1225 -0.4054 -0.2200
 4572TIP3    H135207   0.877   4.446  13.567  0.1581 -0.1345  0.1730
 4572TIP3    H235208   0.907   4.592  13.538 -0.0206 -0.2410 -0.5748
 4573TIP3   OH235209   5.649   6.369  15.174  0.2405  0.2881  0.0704
 4573TIP3    H135210   5.729   6.365  15.122  2.5565 -0.9845  3.4201
 4573TIP3    H235211   5.639   6.462  15.195  0.5141  0.5290 -0.8294
 4574TIP3   OH235212   4.420   1.113   2.937  0.2982 -0.2226  0.7937
 4574TIP3    H135213   4.342   1.093   2.988 -0.6173 -0.6119 -0.7192
 4574TIP3    H235214   4.473   1.033   2.942  0.8006  0.1519  2.0852
 4575TIP3   OH235215   3.803   1.408  14.732 -0.2096  0.7540 -0.0269
 4575TIP3    H135216   3.848   1.455  14.802 -1.2678  0.8609  0.6049
 4575TIP3    H235217   3.818   1.316  14.752 -1.8700  0.7200  1.3358
 4576TIP3   OH235218   3.400   6.262   5.735 -0.5536 -0.1125 -0.1359
 4576TIP3    H135219   3.358   6.344   5.762 -1.4147 -0.6634  0.2600
 4576TIP3    H235220   3.493   6.277   5.749 -0.6823  0.8429 -0.1883
 4577TIP3   OH235221   3.483   2.776   3.437  0.2379  0.2970  0.5060
 4577TIP3    H135222   3.533   2.748   3.514 -0.1905  3.1852  1.9929
 4577TIP3    H235223   3.531   2.852   3.404  0.8296 -1.2841 -2.6758
 4578TIP3   OH235224   3.058   3.588   5.651  0.1370 -0.1046 -0.2398
 4578TIP3    H135225   3.153   3.595   5.664  0.3085  0.9345 -1.8193
 4578TIP3    H235226   3.022   3.580   5.740  1.7449 -1.5190  0.3506
 4579TIP3   OH235227   5.164   0.659   2.196  0.6691  0.1998 -0.2074
 4579TIP3    H135228   5.128   0.607   2.124 -2.3923 -1.0069  1.9606
 4579TIP3    H235229   5.229   0.601   2.237  2.0061  0.6807 -1.5416
 4580TIP3   OH235230   0.857   0.914   4.108 -0.2479 -0.0894 -0.5041
 4580TIP3    H135231   0.816   0.957   4.184 -0.2862 -1.2969  0.1742
 4580TIP3    H235232   0.949   0.940   4.113  0.0126 -1.1238  0.6857
 4581TIP3   OH235233   0.812   1.208   3.316  0.1699  0.4312 -0.3376
 4581TIP3    H135234   0.872   1.141   3.284 -1.3552 -1.0875 -0.2061
 4581TIP3    H235235   0.807   1.272   3.245  0.4647 -0.4261 -1.1521
 4582TIP3   OH235236   4.404   5.776  14.157  0.4615  0.3396  0.2506
 4582TIP3    H135237   4.434   5.789  14.247  0.4317  1.3035  0.1335
 4582TIP3    H235238   4.423   5.859  14.113 -2.4659  1.1442  0.2232
 4583TIP3   OH235239   4.615   4.406  15.986  0.1892 -0.4424 -1.0730
 4583TIP3    H135240   4.591   4.473  16.049  2.7815  0.4668 -0.9262
 4583TIP3    H235241   4.697   4.438  15.947 -0.0875 -2.0873 -3.2058
 4584TIP3   OH235242   5.446   0.442   4.179  0.1543 -0.7244 -0.5250
 4584TIP3    H135243   5.458   0.379   4.250  0.8347 -0.4143 -0.3498
 4584TIP3    H235244   5.535   0.474   4.161  0.0873 -1.2814 -1.9647
 4585TIP3   OH235245   1.684   0.551   0.982 -0.6730 -0.1756  0.4416
 4585TIP3    H135246   1.728   0.468   0.960 -1.6446 -0.7287  0.5066
 4585TIP3    H235247   1.738   0.618   0.941 -0.2209 -0.8926 -0.1726
 4586TIP3   OH235248   6.112   6.810  11.618 -0.4814 -0.0165 -0.0299
 4586TIP3    H135249   6.183   6.873  11.608 -0.5027  0.0906  0.4632
 4586TIP3    H235250   6.094   6.808  11.712 -0.1008 -1.1783  0.0394
 4587TIP3   OH235251   6.082   6.631  11.401  0.3092  0.1954 -0.0143
 4587TIP3    H135252   6.170   6.610  11.372  0.1114 -1.2768  0.3417
 4587TIP3    H235253   6.091   6.713  11.450  1.2634  0.6763 -0.9562
 4588TIP3   OH235254   4.625   2.991  14.465  0.2865  0.3206 -0.7863
 4588TIP3    H135255   4.698   3.024  14.414 -1.3352  2.3073 -1.9698
 4588TIP3    H235256   4.577   3.069  14.492 -0.1302 -0.7891  1.9937
 4589TIP3   OH235257   1.293   1.098  11.447 -0.3669 -0.2717  0.3542
 4589TIP3    H135258   1.248   1.083  11.364  0.3118 -0.1656 -0.0428
 4589TIP3    H235259   1.322   1.011  11.475 -1.1152 -0.3874  0.7900
 4590TIP3   OH235260   4.210   1.553   1.449 -0.0485 -1.0634 -0.4828
 4590TIP3    H135261   4.233   1.568   1.357  1.4953 -1.9912 -0.2845
 4590TIP3    H235262   4.243   1.630   1.495  0.1254 -1.0837 -0.5719
 4591TIP3   OH235263   3.318   1.066   2.597  0.9237 -0.0177  0.3352
 4591TIP3    H135264   3.260   1.021   2.535 -0.3375  0.4787  1.1105
 4591TIP3    H235265   3.351   1.141   2.548  0.8753 -0.2863 -0.1137
 4592TIP3   OH235266   6.690   4.136  10.172  0.2959 -0.6127 -0.5647
 4592TIP3    H135267   6.624   4.101  10.112 -0.2607 -1.3385  0.4473
 4592TIP3    H235268   6.652   4.125  10.259  0.7125  1.2644 -0.1075
 4593TIP3   OH235269   0.994   0.812  13.267  0.0644  0.2106  0.2447
 4593TIP3    H135270   1.023   0.723  13.247 -0.1355  0.2199 -0.0947
 4593TIP3    H235271   0.998   0.818  13.362 -0.2777 -0.2844  0.2886
 4594TIP3   OH235272   1.752   6.085   2.427  0.5447 -0.4830  0.0448
 4594TIP3    H135273   1.782   5.995   2.434  0.5233 -0.6702 -1.7746
 4594TIP3    H235274   1.825   6.132   2.387  0.1690  0.0798 -0.0036
 4595TIP3   OH235275   6.347   4.226   1.989  0.0746  0.6469  0.4346
 4595TIP3    H135276   6.264   4.181   1.972  0.7737 -1.1005  1.3453
 4595TIP3    H235277   6.348   4.241   2.083  1.2434 -0.3781  0.6203
 4596TIP3   OH235278   2.993   1.812   1.131 -0.7848 -0.1312 -0.8988
 4596TIP3    H135279   2.983   1.906   1.143 -1.1722 -0.1456 -1.0955
 4596TIP3    H235280   2.972   1.797   1.038 -1.9267 -0.5703 -0.5913
 4597TIP3   OH235281   3.667   3.901  16.995 -0.3516 -0.6040  0.7018
 4597TIP3    H135282   3.623   3.839  17.053  0.0326 -0.5970  0.9996
 4597TIP3    H235283   3.600   3.968  16.977 -0.9587 -1.4110 -0.1115
 4598TIP3   OH235284   5.984   0.068  12.819 -0.1921 -0.2012  0.0663
 4598TIP3    H135285   6.073   0.097  12.837  0.3956 -0.4294 -2.2164
 4598TIP3    H235286   5.983  -0.024  12.845  0.5674 -0.4721 -0.7877
 4599TIP3   OH235287   3.115   2.335  14.194 -0.1279  0.0534  0.1131
 4599TIP3    H135288   3.136   2.394  14.121 -0.2141  0.6146  0.5355
 4599TIP3    H235289   3.021   2.344  14.205 -0.5479 -1.9802 -1.3645
 4600TIP3   OH235290   2.832   3.742   4.046  0.2676 -0.0636 -0.5403
 4600TIP3    H135291   2.835   3.717   4.139 -1.3629  0.2751 -0.3745
 4600TIP3    H235292   2.838   3.659   3.999  0.6024 -0.2790 -0.1225
 4601TIP3   OH235293   5.484   3.164  12.482 -0.1202 -0.3662 -0.3984
 4601TIP3    H135294   5.435   3.082  12.489 -0.3901 -0.0617  1.9279
 4601TIP3    H235295   5.417   3.232  12.479  0.1272 -0.1263 -0.5646
 4602TIP3   OH235296   2.060   2.689  10.571 -0.5761 -0.6415 -0.3983
 4602TIP3    H135297   2.105   2.773  10.571 -1.1757 -0.3194  0.2894
 4602TIP3    H235298   2.055   2.663  10.663 -0.7248 -1.2545 -0.5707
 4603TIP3   OH235299   1.435   1.505  10.834  0.0240  0.6697  0.1225
 4603TIP3    H135300   1.484   1.530  10.756  1.3859  0.7554  0.9584
 4603TIP3    H235301   1.351   1.550  10.826 -0.3066 -0.1976 -1.8016
 4604TIP3   OH235302   3.165   3.838   2.095 -0.4190  0.1503 -0.7630
 4604TIP3    H135303   3.090   3.859   2.039 -1.7524  1.5374  1.3624
 4604TIP3    H235304   3.181   3.919   2.144  1.4127 -0.6413  0.0372
 4605TIP3   OH235305   0.162   4.355  13.216  0.4864 -0.3268 -0.3117
 4605TIP3    H135306   0.130   4.291  13.280  0.7645 -0.6767 -0.5148
 4605TIP3    H235307   0.166   4.437  13.264  1.5888 -0.7671  0.3978
 4606TIP3   OH235308   2.291   4.240  14.407 -0.7815  0.1902  0.3532
 4606TIP3    H135309   2.215   4.294  14.427 -1.4952  0.1715 -2.0056
 4606TIP3    H235310   2.256   4.164  14.361  0.5313 -0.6452  0.6778
 4607TIP3   OH235311   2.824   3.377   4.651 -0.3244  0.0434  0.3419
 4607TIP3    H135312   2.852   3.399   4.562 -1.8837 -0.7389 -0.3920
 4607TIP3    H235313   2.804   3.462   4.691 -0.8197  0.3471 -0.5070
 4608TIP3   OH235314   2.166   4.735   3.450  0.3196 -0.2556  0.4768
 4608TIP3    H135315   2.094   4.743   3.388  0.8047  0.0013 -0.0616
 4608TIP3    H235316   2.187   4.642   3.451  1.7614 -0.0112 -1.4464
 4609TIP3   OH235317   6.079   0.161  16.228 -0.2669  0.0240  0.4340
 4609TIP3    H135318   6.101   0.105  16.153 -1.7588 -4.0204  2.7455
 4609TIP3    H235319   6.146   0.141  16.293 -0.6949  1.2085  1.2791
 4610TIP3   OH235320   6.620   1.904  14.268 -0.5850  0.1760  0.9628
 4610TIP3    H135321   6.659   1.856  14.341  0.5740  0.0397  0.2821
 4610TIP3    H235322   6.629   1.996  14.293  0.0463  0.1396  0.8868
 4611TIP3   OH235323   6.561   6.825   4.298 -0.0084 -0.3630  0.1136
 4611TIP3    H135324   6.573   6.904   4.350  2.6124 -0.5555 -0.0851
 4611TIP3    H235325   6.620   6.761   4.337 -0.3717 -1.5024 -1.1341
 4612TIP3   OH235326   0.115   6.183  14.684  0.3430  0.3950 -0.2654
 4612TIP3    H135327   0.120   6.117  14.752  0.7419  0.5284 -0.1567
 4612TIP3    H235328   0.163   6.258  14.720  1.2202  0.2052 -0.9793
 4613TIP3   OH235329   5.195   6.087  10.527 -0.4198 -0.2031 -0.2372
 4613TIP3    H135330   5.174   6.150  10.458 -0.5317 -0.8057 -0.7641
 4613TIP3    H235331   5.276   6.045  10.498  1.2624  1.6504  1.4713
 4614TIP3   OH235332   5.249   5.855  14.410 -0.1272 -0.4726 -0.0589
 4614TIP3    H135333   5.276   5.874  14.321  0.4072 -0.8079  0.0244
 4614TIP3    H235334   5.236   5.941  14.451 -2.1388 -0.2902 -0.9588
 4615TIP3   OH235335   1.271   1.454  13.150 -0.2644  0.4326  0.7964
 4615TIP3    H135336   1.294   1.522  13.087 -0.4238 -2.4584 -2.7158
 4615TIP3    H235337   1.186   1.421  13.121 -0.7262 -0.6034  3.0464
 4616TIP3   OH235338   3.362   3.043   0.743 -0.4988  0.9417 -0.2495
 4616TIP3    H135339   3.403   3.111   0.797  0.0584 -1.3496  2.4670
 4616TIP3    H235340   3.428   2.974   0.736 -1.7814 -0.2722 -0.9872
 4617TIP3   OH235341   4.042   3.706  16.228  0.5653 -0.1683 -0.2055
 4617TIP3    H135342   4.031   3.740  16.139  0.2279 -0.1019 -0.1382
 4617TIP3    H235343   4.135   3.681  16.232  0.3356 -1.2612 -0.9635
 4618TIP3   OH235344   0.595   4.015   2.746  0.0149 -0.3131  0.8604
 4618TIP3    H135345   0.637   4.027   2.831  0.3709 -0.3937  0.6962
 4618TIP3    H235346   0.546   3.933   2.754  2.0403 -1.6563  0.2007
 4619TIP3   OH235347   6.736   6.044   2.187  0.2887 -0.0796  0.2265
 4619TIP3    H135348   6.773   5.978   2.128  1.1889  0.7941 -0.2289
 4619TIP3    H235349   6.671   6.089   2.134  1.3383  0.9318 -0.2463
 4620TIP3   OH235350   3.515   2.241  12.587  0.4980  0.0248  0.2776
 4620TIP3    H135351   3.481   2.246  12.498  0.5283 -1.1695  0.1932
 4620TIP3    H235352   3.606   2.211  12.576  1.3964  2.3805  0.5496
 4621TIP3   OH235353   6.353   6.172  12.339 -0.0037  0.3185 -0.2190
 4621TIP3    H135354   6.405   6.093  12.322 -0.4342 -0.2930  1.1938
 4621TIP3    H235355   6.410   6.227  12.392 -0.7839 -0.4315  1.4946
 4622TIP3   OH235356   3.765   0.944  11.623  0.0058  0.1239  0.5225
 4622TIP3    H135357   3.803   0.992  11.550  0.2442  0.2106  0.7030
 4622TIP3    H235358   3.840   0.908  11.670 -0.1918 -1.0176 -0.0078
 4623TIP3   OH235359   4.369   2.881   2.852 -0.0037  0.3169 -0.0812
 4623TIP3    H135360   4.357   2.925   2.937 -0.1504 -1.5305  0.9093
 4623TIP3    H235361   4.427   2.808   2.871 -1.4748 -1.2131 -1.1605
 4624TIP3   OH235362   6.459   5.160   5.970  0.1008  0.4903  0.5656
 4624TIP3    H135363   6.411   5.183   6.049 -0.4803 -1.6717  0.9037
 4624TIP3    H235364   6.547   5.137   6.000 -0.7005 -2.4778  1.0234
 4625TIP3   OH235365   5.204   4.982   3.645 -0.1493  0.3615  0.3286
 4625TIP3    H135366   5.138   4.985   3.715 -0.4982 -0.7143  0.0637
 4625TIP3    H235367   5.246   4.896   3.655  1.7903  1.3195  0.9833
 4626TIP3   OH235368   6.445   0.393  10.953  0.1032 -0.0684  0.2363
 4626TIP3    H135369   6.364   0.379  11.004  0.2421  0.1621  0.5281
 4626TIP3    H235370   6.482   0.473  10.991  1.0794 -0.8169  0.9081
 4627TIP3   OH235371   6.607   2.132  14.394 -0.2428 -0.4051  0.6227
 4627TIP3    H135372   6.592   2.135  14.489 -0.4079  1.4649  0.5706
 4627TIP3    H235373   6.525   2.164  14.356 -0.5739 -2.1529 -0.2366
 4628TIP3   OH235374   0.591   2.875   3.280 -0.0046  0.1715  0.0281
 4628TIP3    H135375   0.580   2.947   3.342  0.5821 -1.4027  2.0826
 4628TIP3    H235376   0.537   2.804   3.315  0.9254 -1.0103 -0.8288
 4629TIP3   OH235377   6.187   2.141  15.412 -0.4962 -0.2511  0.3841
 4629TIP3    H135378   6.160   2.157  15.502 -0.5216  0.1122  0.3120
 4629TIP3    H235379   6.242   2.216  15.389 -0.4842 -0.3434  0.1005
 4630TIP3   OH235380   5.779   1.252   0.944 -0.5880 -0.0919 -0.3517
 4630TIP3    H135381   5.839   1.235   0.871 -3.4656 -0.6070 -2.7880
 4630TIP3    H235382   5.761   1.346   0.938  0.1343  0.1322  0.6002
 4631TIP3   OH235383   6.052   5.862  16.066  0.0730  0.1691 -0.2395
 4631TIP3    H135384   6.138   5.883  16.031 -0.5680 -0.0378 -2.0084
 4631TIP3    H235385   6.026   5.781  16.022 -1.1568  0.3829  0.0478
 4632TIP3   OH235386   1.999   6.625   4.617  0.3738 -0.4052 -0.0087
 4632TIP3    H135387   1.929   6.567   4.649 -0.3858  1.9897  3.2338
 4632TIP3    H235388   2.070   6.615   4.681  0.7968  1.0696 -0.1973
 4633TIP3   OH235389   2.265   5.781   3.433  0.8195  0.6866 -0.4267
 4633TIP3    H135390   2.210   5.828   3.495  0.9068  0.8711 -0.4877
 4633TIP3    H235391   2.348   5.768   3.480  0.5476 -0.0612 -0.1414
 4634TIP3   OH235392   6.590   0.230  14.731 -0.3293  0.4361 -0.4456
 4634TIP3    H135393   6.608   0.291  14.659 -1.8239  1.6462  0.1384
 4634TIP3    H235394   6.650   0.157  14.716  1.7517  2.1478 -1.0422
 4635TIP3   OH235395   3.951   2.211   4.782  0.0496 -0.7453 -0.0334
 4635TIP3    H135396   3.924   2.293   4.740 -0.3435 -0.0718  1.4419
 4635TIP3    H235397   3.887   2.199   4.853  0.6768 -1.8166  0.3708
 4636TIP3   OH235398   6.293   1.761  12.182  0.0125  0.1725 -0.1562
 4636TIP3    H135399   6.266   1.751  12.274 -2.1451 -0.9382 -0.8356
 4636TIP3    H235400   6.313   1.671  12.154 -0.4578  0.3447 -1.0694
 4637TIP3   OH235401   2.749   0.581  16.359 -0.3533  0.5198  0.1463
 4637TIP3    H135402   2.670   0.552  16.403 -0.4197  0.5566  0.0508
 4637TIP3    H235403   2.791   0.640  16.421  0.3162 -0.5869  0.7830
 4638TIP3   OH235404   3.059   6.682  14.407 -0.4029  0.6403 -0.2653
 4638TIP3    H135405   2.989   6.728  14.360 -1.1168  0.4268  0.5544
 4638TIP3    H235406   3.059   6.722  14.495 -0.1207 -0.0058  0.0337
 4639TIP3   OH235407   2.020   6.511  16.412  0.9141  0.0416  0.3577
 4639TIP3    H135408   1.929   6.513  16.383  1.1658 -1.9567 -0.7365
 4639TIP3    H235409   2.019   6.558  16.496 -0.8897  1.0440 -0.1657
 4640TIP3   OH235410   4.202   5.962   0.775 -0.2917 -0.1525  0.5855
 4640TIP3    H135411   4.151   5.908   0.715  0.7747 -0.9411  0.3598
 4640TIP3    H235412   4.173   6.051   0.757 -2.4273 -0.6465  1.2922
 4641TIP3   OH235413   2.711   1.295  13.431 -0.2117  0.8021  0.4745
 4641TIP3    H135414   2.761   1.290  13.350  0.3088 -2.5374  0.8564
 4641TIP3    H235415   2.683   1.386  13.437  0.8603  1.4566 -2.7404
 4642TIP3   OH235416   3.510   4.744   4.665  0.3540 -0.4860  0.1139
 4642TIP3    H135417   3.551   4.722   4.582 -1.4820 -1.2676 -0.6335
 4642TIP3    H235418   3.450   4.815   4.644  0.0130 -0.5577  0.8170
 4643TIP3   OH235419   5.633   1.499   2.293 -0.4644 -0.6312 -0.7628
 4643TIP3    H135420   5.650   1.537   2.379 -1.8958 -2.1280  0.2349
 4643TIP3    H235421   5.582   1.566   2.247  0.7554  0.3930 -0.6853
 4644TIP3   OH235422   3.154   6.441   5.944 -0.4714 -0.1334 -0.3776
 4644TIP3    H135423   3.194   6.490   5.872 -1.3131 -0.9809 -1.4635
 4644TIP3    H235424   3.124   6.360   5.903  0.1765 -1.2188  1.2010
 4645TIP3   OH235425   2.255   0.045  14.230  0.0267  0.0061 -0.6718
 4645TIP3    H135426   2.279   0.103  14.159  0.1022 -0.2148 -0.8266
 4645TIP3    H235427   2.172   0.081  14.263 -0.8499 -0.7999 -1.9028
 4646TIP3   OH235428   4.808   6.526   2.856  0.2999 -0.1836  0.2132
 4646TIP3    H135429   4.840   6.436   2.859  3.3032  0.7509 -0.1163
 4646TIP3    H235430   4.767   6.540   2.941 -1.2573 -2.1248 -0.1332
 4647TIP3   OH235431   1.443   6.254  14.841  0.0029 -0.7189 -0.6163
 4647TIP3    H135432   1.404   6.198  14.774 -1.6705 -0.1036 -0.2067
 4647TIP3    H235433   1.524   6.285  14.802 -0.3102 -1.3983 -1.8526
 4648TIP3   OH235434   2.080   6.249  16.509  0.1146 -0.2654  0.1415
 4648TIP3    H135435   2.166   6.234  16.469  1.1126 -0.3092  2.1540
 4648TIP3    H235436   2.058   6.340  16.487 -0.6129 -1.0066 -2.5683
 4649TIP3   OH235437   6.089   0.074  11.310  0.0655 -0.4231  0.5468
 4649TIP3    H135438   6.175   0.048  11.343  0.3929  0.8497  0.7455
 4649TIP3    H235439   6.084   0.168  11.327 -1.5354 -0.5395  0.8906
 4650TIP3   OH235440   6.756   1.638  12.976 -0.2660 -0.2014 -0.0905
 4650TIP3    H135441   6.775   1.563  13.032  0.7069 -1.3436 -1.8569
 4650TIP3    H235442   6.739   1.600  12.890  1.4723  1.6620 -1.3382
 4651TIP3   OH235443   2.871   0.036  15.316  0.4303 -0.0934 -0.0274
 4651TIP3    H135444   2.870  -0.003  15.228  0.6333 -0.0822 -0.0355
 4651TIP3    H235445   2.913   0.121  15.304  0.7778 -0.2406  0.1417
 4652TIP3   OH235446   4.065   3.344  16.213 -0.4418  0.0140  0.6528
 4652TIP3    H135447   4.002   3.274  16.198 -1.5107  1.2397 -0.9157
 4652TIP3    H235448   4.021   3.403  16.275  0.3818 -0.5795  1.8333
 4653TIP3   OH235449   5.183   6.084  11.114 -1.0387  0.3562 -0.0711
 4653TIP3    H135450   5.148   6.026  11.047  0.9331  1.5384 -2.2570
 4653TIP3    H235451   5.133   6.165  11.103 -0.9932  0.4164  0.1682
 4654TIP3   OH235452   0.331   5.550  16.193  0.2534 -0.6376  0.8636
 4654TIP3    H135453   0.423   5.574  16.183 -0.1226  0.4716 -0.1438
 4654TIP3    H235454   0.333   5.465  16.237  1.8976 -2.1398 -1.8278
 4655TIP3   OH235455   0.957   4.186  11.634 -0.1644  0.0632  0.0272
 4655TIP3    H135456   1.013   4.121  11.676 -0.5036  0.0043  0.3983
 4655TIP3    H235457   0.874   4.141  11.620 -0.1621  0.1874 -0.4051
 4656TIP3   OH235458   2.029   2.966   3.902  0.3978  0.0887  0.4022
 4656TIP3    H135459   1.971   2.996   3.971 -2.4921 -1.9752 -0.9114
 4656TIP3    H235460   2.030   3.038   3.838  0.9908  0.9526  1.3621
 4657TIP3   OH235461   0.459   5.491   2.772  0.1944 -0.3204 -0.4403
 4657TIP3    H135462   0.434   5.551   2.702  0.6260  0.7681  0.3085
 4657TIP3    H235463   0.511   5.545   2.832 -1.8588 -0.6207  1.7961
 4658TIP3   OH235464   4.735   5.966  14.546 -0.3975  0.3117  0.4257
 4658TIP3    H135465   4.720   6.045  14.599 -1.1134 -0.3340  1.2036
 4658TIP3    H235466   4.706   5.894  14.601  0.1356 -0.5020 -0.3285
 4659TIP3   OH235467   6.634   6.142  13.401 -0.1556 -0.1680 -0.1369
 4659TIP3    H135468   6.547   6.119  13.434 -1.6716  2.4109 -1.9351
 4659TIP3    H235469   6.648   6.084  13.326 -0.0409 -1.0043  0.5263
 4660TIP3   OH235470   3.010   1.587   3.691 -0.0497 -1.3427  0.4687
 4660TIP3    H135471   2.980   1.498   3.707  0.0873 -1.5058 -0.1537
 4660TIP3    H235472   3.074   1.579   3.621 -1.7799 -0.4975 -1.3318
 4661TIP3   OH235473   1.647   2.979   5.669  0.3432  0.5907  0.1001
 4661TIP3    H135474   1.724   3.002   5.722 -1.8679  2.1335  2.9678
 4661TIP3    H235475   1.619   3.063   5.632 -0.0273  0.0756 -0.7868
 4662TIP3   OH235476   1.197   1.712  15.816  0.9977 -0.2537 -0.1040
 4662TIP3    H135477   1.122   1.706  15.876  2.3604 -1.2187  1.5916
 4662TIP3    H235478   1.202   1.626  15.775  1.6179 -0.4555  0.3751
 4663TIP3   OH235479   3.944   4.224  13.305 -0.3922  0.3825 -0.3283
 4663TIP3    H135480   3.938   4.191  13.395  0.1099  0.0311 -0.4229
 4663TIP3    H235481   4.005   4.165  13.262 -1.6728 -0.2703 -1.2857
 4664TIP3   OH235482   6.425   0.187  16.097 -0.2471  0.6230 -0.1552
 4664TIP3    H135483   6.481   0.141  16.159 -0.4883  1.7755  0.9640
 4664TIP3    H235484   6.450   0.152  16.012 -2.1802 -3.4952  0.7071
 4665TIP3   OH235485   4.662   0.116  14.439 -0.0514 -0.2779 -0.1322
 4665TIP3    H135486   4.602   0.109  14.366  0.9721  2.2977 -1.3604
 4665TIP3    H235487   4.646   0.204  14.474  1.2873 -0.4782  1.0760
 4666TIP3   OH235488   1.999   0.236  11.279 -0.3070  0.3476 -0.0318
 4666TIP3    H135489   2.034   0.201  11.197  0.3153  0.2945  0.2542
 4666TIP3    H235490   1.925   0.291  11.252  1.2587  2.1610 -0.8411
 4667TIP3   OH235491   6.396   5.365  13.596  0.4501  0.0892 -0.1670
 4667TIP3    H135492   6.388   5.309  13.519 -0.9804  1.2338 -0.8923
 4667TIP3    H235493   6.481   5.408  13.585  0.7247 -0.5302 -0.5547
 4668TIP3   OH235494   6.474   2.860   4.863 -0.5143  0.0206 -0.2067
 4668TIP3    H135495   6.515   2.854   4.950  2.3652 -1.1108 -1.5414
 4668TIP3    H235496   6.517   2.935   4.821 -0.5516 -0.5569 -1.3062
 4669TIP3   OH235497   2.214   6.434   5.578 -0.7342 -0.1167  0.3459
 4669TIP3    H135498   2.265   6.437   5.659 -0.1849 -0.2318  0.0077
 4669TIP3    H235499   2.140   6.377   5.599  0.2966 -1.5250  0.2717
 4670TIP3   OH235500   4.485   5.256   0.533  0.1368  0.6166 -0.3740
 4670TIP3    H135501   4.487   5.315   0.608  0.4010  2.1316 -1.5142
 4670TIP3    H235502   4.408   5.284   0.483 -0.2543 -0.6120 -0.5052
 4671TIP3   OH235503   5.355   5.738   6.307 -0.1254  0.0835  0.3074
 4671TIP3    H135504   5.380   5.830   6.317 -1.6748  0.3477  2.5525
 4671TIP3    H235505   5.310   5.735   6.223 -2.7398  2.1341  1.4677
 4672TIP3   OH235506   0.246   6.277   0.398 -0.3603  0.2658 -0.7251
 4672TIP3    H135507   0.234   6.247   0.308 -1.1135 -0.2875 -0.4588
 4672TIP3    H235508   0.160   6.263   0.439  0.2138 -0.3466  0.3166
 4673TIP3   OH235509   3.149   1.147  13.272  0.2681  0.4299  0.2081
 4673TIP3    H135510   3.056   1.169  13.280 -0.2323 -0.9769 -1.2611
 4673TIP3    H235511   3.158   1.063  13.316  0.5345 -0.1331 -0.8944
 4674TIP3   OH235512   3.041   0.535   5.376  0.2036 -0.1526 -0.2830
 4674TIP3    H135513   3.041   0.586   5.295 -1.3331  0.7128  0.2263
 4674TIP3    H235514   3.099   0.583   5.435  1.4733 -0.8833 -0.8938
 4675TIP3   OH235515   5.402   1.582   4.578 -0.8796  0.0354 -0.2054
 4675TIP3    H135516   5.379   1.671   4.603 -1.6127 -0.1495 -0.1854
 4675TIP3    H235517   5.323   1.548   4.536 -0.9061 -0.8916  0.5626
 4676TIP3   OH235518   1.672   0.611   2.554 -0.3374 -0.5807  0.0014
 4676TIP3    H135519   1.755   0.651   2.528 -0.1051 -0.1475  1.3433
 4676TIP3    H235520   1.616   0.685   2.579 -1.7618 -0.7024 -2.4393
 4677TIP3   OH235521   5.418   6.607  13.937 -0.2790 -0.5318 -0.3145
 4677TIP3    H135522   5.505   6.591  13.975 -0.4615  0.3601  0.5273
 4677TIP3    H235523   5.428   6.688  13.888 -0.3299 -1.0979 -1.2705
 4678TIP3   OH235524   6.492   1.741  15.190 -0.3261  0.1142 -0.4449
 4678TIP3    H135525   6.570   1.687  15.175 -0.8155 -0.2352 -1.9552
 4678TIP3    H235526   6.422   1.695  15.144 -1.2255  0.9268  0.0758
 4679TIP3   OH235527   5.289   6.620  11.622  0.3538 -0.0551 -0.1804
 4679TIP3    H135528   5.333   6.661  11.697  0.5141 -2.3815  1.0856
 4679TIP3    H235529   5.359   6.606  11.558  0.4273  0.9376 -0.3343
 4680TIP3   OH235530   1.386   3.757  15.595 -0.0809  0.1514  0.8188
 4680TIP3    H135531   1.467   3.807  15.587  0.3436 -0.6975 -0.5905
 4680TIP3    H235532   1.404   3.693  15.665  1.5069 -1.7801 -1.2023
 4681TIP3   OH235533   1.680   3.587  12.418 -0.1491  0.1044 -0.2273
 4681TIP3    H135534   1.595   3.548  12.397  0.4936 -1.4541 -0.0779
 4681TIP3    H235535   1.665   3.682  12.412 -1.8126 -0.1397 -0.4767
 4682TIP3   OH235536   0.474   1.054  14.955  0.3163 -0.3457  0.0009
 4682TIP3    H135537   0.417   0.978  14.968 -0.9540  0.7422  1.1508
 4682TIP3    H235538   0.523   1.060  15.037 -0.3441  0.6610  0.3321
 4683TIP3   OH235539   0.741   1.205  11.046  0.1718  0.5912  0.4664
 4683TIP3    H135540   0.777   1.281  10.999  2.0686  0.5960  1.8436
 4683TIP3    H235541   0.807   1.137  11.035  0.2900  0.3410  2.4043
 4684TIP3   OH235542   6.442   5.739  12.508  0.2705 -0.3460  0.3963
 4684TIP3    H135543   6.529   5.741  12.468 -0.6925  1.0142 -1.8534
 4684TIP3    H235544   6.438   5.821  12.559 -0.2372  0.4436 -0.8710
 4685TIP3   OH235545   4.702   3.712  16.303  0.5325 -0.7074  0.4803
 4685TIP3    H135546   4.642   3.643  16.331 -0.8004  0.1159 -0.2373
 4685TIP3    H235547   4.680   3.787  16.358  0.5434 -0.2376 -0.1441
 4686TIP3   OH235548   1.924   1.081   0.147  0.3783 -0.0911 -0.6706
 4686TIP3    H135549   1.865   1.068   0.073  0.6097 -0.1998 -0.8386
 4686TIP3    H235550   1.904   1.169   0.180 -0.0691 -0.2367 -0.5515
 4687TIP3   OH235551   5.978   4.904   3.387 -0.4695 -0.3311  0.1014
 4687TIP3    H135552   5.899   4.923   3.336 -1.0532 -1.0153  0.7390
 4687TIP3    H235553   6.008   4.820   3.353 -0.2039 -0.2374  0.1002
 4688TIP3   OH235554   0.690   2.881  12.709 -0.5953 -0.3234  0.5827
 4688TIP3    H135555   0.671   2.856  12.799 -1.0049  0.7034  0.8026
 4688TIP3    H235556   0.785   2.888  12.704 -0.5231 -1.1673  0.7062
 4689TIP3   OH235557   4.346   2.109   2.671 -0.1290 -0.5478  0.5883
 4689TIP3    H135558   4.343   2.175   2.602  0.3890 -0.1862  0.9023
 4689TIP3    H235559   4.255   2.087   2.688 -0.3010  0.0065  0.4009
 4690TIP3   OH235560   5.612   4.202   3.183  0.5136 -0.7435 -0.6617
 4690TIP3    H135561   5.534   4.161   3.145 -0.5000 -3.0322  3.3305
 4690TIP3    H235562   5.582   4.288   3.213 -0.7846 -1.8401  1.3880
 4691TIP3   OH235563   1.695   5.252   0.982 -0.3898 -0.1753  0.8382
 4691TIP3    H135564   1.705   5.306   0.903 -1.7811 -0.3268  0.5274
 4691TIP3    H235565   1.606   5.270   1.011 -0.2545 -0.9509  1.7603
 4692TIP3   OH235566   3.337   4.853  11.757 -0.5861 -0.2351 -0.2487
 4692TIP3    H135567   3.385   4.931  11.784 -1.3295  0.0514  0.3046
 4692TIP3    H235568   3.403   4.784  11.751  0.0286  0.3591 -0.4252
 4693TIP3   OH235569   6.452   4.535  10.490 -0.2303  0.2141  0.3961
 4693TIP3    H135570   6.365   4.557  10.457  0.1915  1.1149 -0.1516
 4693TIP3    H235571   6.485   4.468  10.430  0.4632  1.7184 -0.9659
 4694TIP3   OH235572   4.940   0.254  14.267  0.2734  0.0511  0.0877
 4694TIP3    H135573   4.969   0.175  14.312  1.4904  1.2485  1.5127
 4694TIP3    H235574   4.848   0.238  14.247  0.8764 -2.3441 -1.1243
 4695TIP3   OH235575   4.582   2.945  13.556 -0.1945 -0.3686 -0.0980
 4695TIP3    H135576   4.546   3.015  13.611  0.6898  0.0923 -0.0905
 4695TIP3    H235577   4.676   2.943  13.578 -0.0557 -0.9854 -0.7193
 4696TIP3   OH235578   2.700   6.525   3.947  0.0428 -0.0195  0.0640
 4696TIP3    H135579   2.730   6.615   3.955 -0.8906  0.2778  0.2844
 4696TIP3    H235580   2.774   6.472   3.977  0.3483  0.6964  0.5884
 4697TIP3   OH235581   0.768   3.042  11.578 -0.1108  0.5625 -0.5245
 4697TIP3    H135582   0.842   3.058  11.519 -0.6804  0.6076 -1.2366
 4697TIP3    H235583   0.809   3.018  11.661  0.7090  0.4792 -0.9382
 4698TIP3   OH235584   0.606   1.554   0.691 -0.3316 -0.2577 -0.2464
 4698TIP3    H135585   0.638   1.470   0.723 -0.8003 -0.0075  0.9285
 4698TIP3    H235586   0.511   1.549   0.699 -0.5296 -0.4293 -2.2774
 4699TIP3   OH235587   4.084   4.242  14.822 -0.8169  0.2223 -0.0906
 4699TIP3    H135588   4.085   4.308  14.753  0.8116 -0.3142 -0.6316
 4699TIP3    H235589   4.000   4.197  14.810 -0.2506 -0.3929 -2.2936
 4700TIP3   OH235590   3.373   0.109  15.601  0.0653 -0.0216  0.1062
 4700TIP3    H135591   3.335   0.100  15.514  0.7610  0.3651 -0.2441
 4700TIP3    H235592   3.333   0.188  15.637 -0.6497 -0.4894  0.3752
 4701TIP3   OH235593   0.038   5.516   5.542 -0.0730  0.3470 -0.0994
 4701TIP3    H135594   0.127   5.551   5.553  0.2669 -0.6400  0.4606
 4701TIP3    H235595   0.011   5.491   5.630 -0.1768 -1.0581 -0.5134
 4702TIP3   OH235596   1.704   4.724   3.554 -0.0001 -0.1656 -0.2578
 4702TIP3    H135597   1.752   4.803   3.528 -1.6653  0.9688  0.0032
 4702TIP3    H235598   1.763   4.679   3.614  0.7694  1.1507  0.0134
 4703TIP3   OH235599   4.793   0.308   4.558 -0.0928 -0.1235 -0.4513
 4703TIP3    H135600   4.701   0.320   4.534 -0.3426  0.4169  0.7427
 4703TIP3    H235601   4.805   0.361   4.636  1.4818  0.5756 -1.1260
 4704TIP3   OH235602   5.387   5.954  12.395 -0.1347 -0.1316 -0.1975
 4704TIP3    H135603   5.366   5.908  12.314 -1.8030  0.1125  0.0551
 4704TIP3    H235604   5.440   6.029  12.368 -0.8718  0.0795 -1.1064
 4705TIP3   OH235605   1.284   5.868   5.669  0.1003  0.3264 -0.0484
 4705TIP3    H135606   1.267   5.844   5.578 -0.6377 -0.4023  0.2693
 4705TIP3    H235607   1.327   5.791   5.707  1.2393  0.9579  0.0000
 4706TIP3   OH235608   1.235   3.132   3.800 -0.6225  0.2552  0.1488
 4706TIP3    H135609   1.300   3.137   3.871 -0.1317 -1.7065 -0.0907
 4706TIP3    H235610   1.154   3.165   3.839 -1.1107 -3.2856  2.6736
 4707TIP3   OH235611   5.239   6.029  13.654 -0.3864 -0.2022  0.8594
 4707TIP3    H135612   5.306   6.002  13.590  1.3057  1.4136  1.8455
 4707TIP3    H235613   5.268   6.115  13.684 -1.5319 -0.5753  3.2528
 4708TIP3   OH235614   1.286   0.355   3.751  0.3037 -0.0220 -0.0829
 4708TIP3    H135615   1.199   0.370   3.715 -0.2589 -1.4233  0.6311
 4708TIP3    H235616   1.324   0.287   3.695 -0.1240 -1.3549  1.1809
 4709TIP3   OH235617   5.393   0.345   3.362  0.0431 -0.0199 -0.2278
 4709TIP3    H135618   5.391   0.423   3.307 -1.1076  0.0620 -0.0969
 4709TIP3    H235619   5.436   0.372   3.443 -2.2460  1.1018  0.6900
 4710TIP3   OH235620   6.171   2.380  10.624  0.2193  0.5044  0.0618
 4710TIP3    H135621   6.221   2.461  10.636  0.7350  0.0229  1.2786
 4710TIP3    H235622   6.202   2.345  10.540  0.6163  1.1239 -0.0539
 4711TIP3   OH235623   5.666   6.322   2.071 -0.2915 -0.3181  0.5453
 4711TIP3    H135624   5.748   6.277   2.092  0.4459  0.0816 -1.3330
 4711TIP3    H235625   5.601   6.252   2.061  0.6349 -0.9516 -1.4326
 4712TIP3   OH235626   3.682   0.393   4.775  0.4671  0.3582  0.1854
 4712TIP3    H135627   3.765   0.374   4.819  0.4020  0.5093  0.3769
 4712TIP3    H235628   3.691   0.354   4.689  1.2825  1.5523 -0.3088
 4713TIP3   OH235629   5.237   4.477   2.177  0.4360 -0.1196  0.5791
 4713TIP3    H135630   5.282   4.523   2.106 -0.2426 -0.3810 -0.0399
 4713TIP3    H235631   5.237   4.385   2.149  1.6528 -0.4982  1.7288
 4714TIP3   OH235632   6.781   0.623   4.369 -0.0465 -0.3571 -0.1672
 4714TIP3    H135633   6.873   0.604   4.384 -0.0835 -1.6494 -1.3495
 4714TIP3    H235634   6.778   0.717   4.352  1.3643 -0.5865 -2.0707
 4715TIP3   OH235635   2.569   6.103   6.193 -0.3114  0.1282 -0.9905
 4715TIP3    H135636   2.579   6.194   6.167 -1.4556  0.4550 -0.3481
 4715TIP3    H235637   2.603   6.100   6.283 -1.0797  0.1211 -0.6940
 4716TIP3   OH235638   0.169   3.366  13.186  0.1729  0.0932  0.3308
 4716TIP3    H135639   0.116   3.334  13.113 -1.4047  0.0036  1.4692
 4716TIP3    H235640   0.252   3.319  13.179  0.1409  0.2423 -1.5020
 4717TIP3   OH235641   3.727   6.341  15.781  0.2351  0.6883  0.6769
 4717TIP3    H135642   3.746   6.272  15.718  3.2801  1.5553  0.4403
 4717TIP3    H235643   3.739   6.300  15.866  0.9747  0.6310  0.5543
 4718TIP3   OH235644   2.739   1.086  12.647  0.3716  0.1442  0.3295
 4718TIP3    H135645   2.694   1.002  12.649  2.1011 -0.8003  0.6791
 4718TIP3    H235646   2.685   1.140  12.589  0.0789 -1.7043 -1.2084
 4719TIP3   OH235647   5.052   2.424   6.108 -0.7371  0.1287 -1.0701
 4719TIP3    H135648   5.086   2.494   6.165  1.9870 -2.3521  0.6758
 4719TIP3    H235649   5.101   2.434   6.026 -0.2464  0.2152 -0.7736
 4720TIP3   OH235650   4.418   6.500   1.193  0.5212 -0.7815 -0.7334
 4720TIP3    H135651   4.453   6.411   1.189  0.2627 -1.2016  3.0781
 4720TIP3    H235652   4.447   6.534   1.278  0.8247  2.9413 -2.1199
 4721TIP3   OH235653   3.979   6.561   2.673  0.6311 -0.1437 -0.5373
 4721TIP3    H135654   4.038   6.496   2.711  2.3213  1.4459 -0.2849
 4721TIP3    H235655   3.934   6.600   2.748  1.7080  0.8754 -0.3867
 4722TIP3   OH235656   6.108   5.032   4.649  0.7926  0.3289 -0.2677
 4722TIP3    H135657   6.048   5.084   4.596  0.7084  1.1838  0.6334
 4722TIP3    H235658   6.068   5.029   4.736  0.8980 -1.0926 -0.2337
 4723TIP3   OH235659   4.298   6.629   3.651 -0.0561  0.2194 -0.2072
 4723TIP3    H135660   4.250   6.557   3.693  0.7826 -1.2218 -1.5988
 4723TIP3    H235661   4.298   6.699   3.716 -1.7527 -0.6764  0.8318
 4724TIP3   OH235662   2.468   4.395  14.928 -0.2663  0.6724 -0.6104
 4724TIP3    H135663   2.538   4.360  14.984 -2.4095 -4.0414 -0.4217
 4724TIP3    H235664   2.499   4.378  14.839 -0.1703  0.8733 -0.6169
 4725TIP3   OH235665   1.437   2.960   1.261  0.4477 -0.3490 -0.4505
 4725TIP3    H135666   1.503   2.920   1.205  2.2786  0.0325  1.3313
 4725TIP3    H235667   1.372   2.995   1.200  0.7260 -2.6426 -2.1858
 4726TIP3   OH235668   4.838   4.626  11.648  0.1103  0.2244 -0.3325
 4726TIP3    H135669   4.798   4.559  11.594 -1.3100  1.4021 -0.8002
 4726TIP3    H235670   4.907   4.664  11.593  0.7348 -0.6437 -0.1626
 4727TIP3   OH235671   1.785   6.143   4.479  0.1314 -0.3979  0.2228
 4727TIP3    H135672   1.705   6.184   4.446 -0.0552 -1.0459 -0.1530
 4727TIP3    H235673   1.856   6.187   4.432 -0.1147 -1.1063 -0.8579
 4728TIP3   OH235674   2.588   0.049  15.401 -0.0348  0.4271  0.5218
 4728TIP3    H135675   2.662   0.052  15.462  1.5606 -0.4408 -1.2760
 4728TIP3    H235676   2.625   0.068  15.315 -2.2491  1.8217 -0.2221
 4729TIP3   OH235677   4.166   5.321   5.273  0.4436 -0.6182  0.6945
 4729TIP3    H135678   4.242   5.307   5.328  0.3019 -0.1486  1.0214
 4729TIP3    H235679   4.130   5.405   5.302  0.9254  0.1351 -0.7546
 4730TIP3   OH235680   1.228   1.378  14.845 -0.2592  0.3260  0.2161
 4730TIP3    H135681   1.301   1.382  14.783 -1.3763  0.2445 -1.1400
 4730TIP3    H235682   1.236   1.458  14.897  0.3398  0.7038 -0.4388
 4731TIP3   OH235683   6.405   5.307  13.935  0.6386 -0.2190 -0.1956
 4731TIP3    H135684   6.419   5.248  13.861  0.6962  0.5186 -0.7769
 4731TIP3    H235685   6.339   5.263  13.988 -0.6993  0.0292 -1.5749
 4732TIP3   OH235686   5.153   5.313   5.723  0.2581 -0.2494  0.2841
 4732TIP3    H135687   5.174   5.263   5.802  1.1095  0.2040  0.3544
 4732TIP3    H235688   5.227   5.297   5.665 -1.4037 -2.4953 -1.4150
 4733TIP3   OH235689   1.531   1.898  10.758 -0.2115  0.6059 -0.1757
 4733TIP3    H135690   1.566   1.852  10.835 -1.3188  1.4768  0.8922
 4733TIP3    H235691   1.591   1.876  10.688  1.3400  0.4794  1.1368
 4734TIP3   OH235692   4.261   4.603   6.203  0.3848  0.1787 -0.1665
 4734TIP3    H135693   4.225   4.663   6.269 -0.8872 -0.3761 -0.3212
 4734TIP3    H235694   4.330   4.556   6.249  0.3982  0.7352  0.3899
 4735TIP3   OH235695   5.503   3.455   4.991 -0.3704  0.2932 -0.0115
 4735TIP3    H135696   5.528   3.450   5.083  0.0736  0.9531 -0.0920
 4735TIP3    H235697   5.453   3.536   4.984 -2.0529 -0.6805  0.0190
 4736TIP3   OH235698   6.269   0.823   3.769 -0.3836  0.0643  0.1575
 4736TIP3    H135699   6.250   0.729   3.763 -0.5170 -0.0442  1.9130
 4736TIP3    H235700   6.258   0.844   3.862  0.6534  1.6086 -0.0413
 4737TIP3   OH235701   0.679   6.258   0.148 -0.2226 -0.3663  0.8878
 4737TIP3    H135702   0.605   6.229   0.095  0.3392  0.4800 -0.3892
 4737TIP3    H235703   0.646   6.336   0.194 -0.3553 -0.4311  0.9036
 4738TIP3   OH235704   2.411   2.066  15.029 -0.1218  0.3948 -0.1214
 4738TIP3    H135705   2.482   2.033  15.085  0.3299  1.3890 -0.0732
 4738TIP3    H235706   2.339   2.083  15.090 -0.7579 -1.4829 -0.2920
 4739TIP3   OH235707   5.338   0.669  13.364 -0.6987  0.3420 -0.2584
 4739TIP3    H135708   5.427   0.659  13.399 -1.3672 -0.2861  1.3773
 4739TIP3    H235709   5.346   0.739  13.299  1.1762 -0.3997 -0.8938
 4740TIP3   OH235710   6.804   4.493   3.787  0.2370  0.0455  0.6202
 4740TIP3    H135711   6.772   4.406   3.812  0.8364 -0.4012 -0.1074
 4740TIP3    H235712   6.887   4.502   3.833 -0.6913  1.0463  2.2018
 4741TIP3   OH235713   3.312   4.700   3.372  0.1247  0.7639  0.1305
 4741TIP3    H135714   3.286   4.792   3.365  1.7019  1.2110 -0.1497
 4741TIP3    H235715   3.401   4.703   3.405  0.3013 -0.6696 -0.1669
 4742TIP3   OH235716   1.668   4.564  13.529  0.2684  0.1608 -0.6013
 4742TIP3    H135717   1.597   4.573  13.466  1.5904 -1.1633 -2.3808
 4742TIP3    H235718   1.678   4.469  13.541  2.0514  0.2838 -0.8134
 4743TIP3   OH235719   5.589   6.087  15.092  0.0524  0.0022 -0.0446
 4743TIP3    H135720   5.570   6.174  15.128  1.6640  0.2912  0.1982
 4743TIP3    H235721   5.621   6.104  15.003 -0.3766 -0.4129 -0.2827
 4744TIP3   OH235722   5.632   3.890  16.121  0.3551 -0.7326 -0.0529
 4744TIP3    H135723   5.620   3.803  16.085  0.1734 -1.3937  1.5543
 4744TIP3    H235724   5.544   3.926  16.127  0.3672 -0.6959 -0.0934
 4745TIP3   OH235725   4.328   1.345   2.336  0.1991  0.1464 -0.4693
 4745TIP3    H135726   4.423   1.350   2.332  0.1406  2.0193 -0.1384
 4745TIP3    H235727   4.301   1.338   2.244  0.6404 -0.5806 -0.5548
 4746TIP3   OH235728   4.023   1.120   5.926  0.7706 -0.1397  0.2579
 4746TIP3    H135729   4.106   1.091   5.887  0.7177 -0.6433  0.5106
 4746TIP3    H235730   3.990   1.186   5.865  0.6421 -0.9819 -0.6043
 4747TIP3   OH235731   2.463   3.085  16.920  0.4388 -0.0834  0.7754
 4747TIP3    H135732   2.506   3.090  17.005  1.3238 -1.6293  0.4680
 4747TIP3    H235733   2.372   3.062  16.940  0.0870  1.7056  1.3675
 4748TIP3   OH235734   5.242   5.698  16.275  0.6602 -0.2540  0.0462
 4748TIP3    H135735   5.311   5.760  16.253  0.6484  0.4825  1.8898
 4748TIP3    H235736   5.264   5.618  16.226  2.2209  0.3002 -0.1963
 4749TIP3   OH235737   6.478   2.213   2.553  0.2055  0.8778 -0.2194
 4749TIP3    H135738   6.481   2.200   2.458  0.5042  0.8482 -0.2052
 4749TIP3    H235739   6.491   2.307   2.565  0.2712  0.8661 -0.2014
 4750TIP3   OH235740   4.707   2.986   2.907 -0.1208 -0.4980  0.3648
 4750TIP3    H135741   4.745   2.898   2.902 -0.2031 -0.5307  0.3206
 4750TIP3    H235742   4.695   3.013   2.816  1.2813  0.1547  0.3442
 4751TIP3   OH235743   2.298   2.853   6.448  0.3415  0.0015  0.3342
 4751TIP3    H135744   2.313   2.870   6.355 -0.1151  0.3313  0.3165
 4751TIP3    H235745   2.210   2.814   6.452  1.0171 -1.5826  0.4650
 4752TIP3   OH235746   0.615   0.051  16.689 -0.1413  0.1633  0.0829
 4752TIP3    H135747   0.543   0.114  16.690 -0.1488  0.1543  0.1851
 4752TIP3    H235748   0.572  -0.034  16.689 -0.1448  0.1489 -1.3898
 4753TIP3   OH235749   6.466   1.195   5.771 -0.4561 -0.5012  0.6799
 4753TIP3    H135750   6.428   1.279   5.798  1.5137  0.1079  1.8111
 4753TIP3    H235751   6.432   1.133   5.835 -1.2884 -0.4263  0.3249
 4754TIP3   OH235752   1.048   0.223   3.373  0.4209 -0.1163  0.4697
 4754TIP3    H135753   1.113   0.201   3.440  0.9413  1.1604  0.4087
 4754TIP3    H235754   0.999   0.295   3.411  0.8302  0.7393 -0.5738
 4755TIP3   OH235755   5.499   0.213   4.329 -0.3380  0.0890  0.0970
 4755TIP3    H135756   5.538   0.132   4.295 -0.4392  0.0895 -0.0202
 4755TIP3    H235757   5.439   0.184   4.398 -0.3072  0.0713  0.1165
 4756TIP3   OH235758   4.988   6.562   5.136 -0.2762  0.4873  0.3114
 4756TIP3    H135759   5.082   6.548   5.146  0.0424  1.5933 -0.7760
 4756TIP3    H235760   4.958   6.587   5.223  0.7434  1.5893  0.3738
 4757TIP3   OH235761   1.505   6.160   2.416  0.1594  0.0142  0.2761
 4757TIP3    H135762   1.595   6.126   2.415  1.0972  2.3038  0.6597
 4757TIP3    H235763   1.491   6.194   2.327  1.1076  2.9509  1.1425
 4758TIP3   OH235764   5.112   0.816  15.678  0.0825 -0.3813  0.2345
 4758TIP3    H135765   5.036   0.848  15.727 -0.3085 -0.8994 -0.0259
 4758TIP3    H235766   5.075   0.756  15.614  0.7990 -1.4437  0.7906
 4759TIP3   OH235767   0.673   3.716  14.633 -0.2399  0.3615  0.1513
 4759TIP3    H135768   0.678   3.796  14.582 -1.2295  0.5425  0.3316
 4759TIP3    H235769   0.760   3.708  14.673  0.1471  0.8612 -0.5745
 4760TIP3   OH235770   5.746   1.904  15.363 -1.0354 -0.5176  0.4157
 4760TIP3    H135771   5.686   1.977  15.352 -0.5567 -0.2675 -0.6424
 4760TIP3    H235772   5.824   1.928  15.312 -1.8778 -2.8864 -2.2372
 4761TIP3   OH235773   6.377   6.808  13.570 -0.1459  0.0602  0.4285
 4761TIP3    H135774   6.380   6.844  13.481  0.0967 -1.2921 -0.1377
 4761TIP3    H235775   6.466   6.779  13.588  0.2576  1.9884  1.8805
 4762TIP3   OH235776   4.703   6.164  13.725 -0.1085 -0.2243  0.0417
 4762TIP3    H135777   4.698   6.069  13.736  0.2171 -0.4367 -1.3723
 4762TIP3    H235778   4.796   6.184  13.734  0.1027 -0.3443 -1.5755
 4763TIP3   OH235779   2.917   6.667  14.730 -0.0898 -0.0806  0.0172
 4763TIP3    H135780   2.925   6.756  14.696  1.1579  0.1391  0.8310
 4763TIP3    H235781   3.002   6.648  14.770 -1.5337 -0.1520  3.4351
 4764TIP3   OH235782   3.309   2.145  15.546 -0.7374 -0.7179  0.3935
 4764TIP3    H135783   3.369   2.104  15.484  0.6775 -1.3786  2.1111
 4764TIP3    H235784   3.258   2.206  15.493  2.6688  1.2544 -0.9780
 4765TIP3   OH235785   1.187   1.503   2.824 -0.2393 -0.1502  0.0883
 4765TIP3    H135786   1.127   1.460   2.762 -0.5383  1.6917 -0.9574
 4765TIP3    H235787   1.256   1.438   2.838 -0.1058 -0.6256 -2.2725
 4766TIP3   OH235788   0.349   6.788  11.755 -0.2171 -0.3159 -0.6003
 4766TIP3    H135789   0.421   6.842  11.788  1.1423 -0.5404 -2.9457
 4766TIP3    H235790   0.393   6.712  11.715 -1.8384 -1.0906 -0.9707
 4767TIP3   OH235791   2.258   3.981   4.064  0.4293  0.0177 -0.4480
 4767TIP3    H135792   2.289   4.030   3.988  0.7846 -2.5611 -2.0497
 4767TIP3    H235793   2.330   3.988   4.127  1.4387 -0.3175 -1.5264
 4768TIP3   OH235794   5.838   6.091  10.857 -0.5692  0.4737  0.5213
 4768TIP3    H135795   5.814   6.084  10.764  0.0987  0.1322  0.3654
 4768TIP3    H235796   5.874   6.179  10.866 -1.2844  0.7594  0.6150
 4769TIP3   OH235797   4.394   2.554   1.506 -1.0068 -0.0089  0.2225
 4769TIP3    H135798   4.464   2.578   1.445 -1.2546 -0.7393 -0.3647
 4769TIP3    H235799   4.355   2.638   1.532 -1.0837  0.3036 -0.8599
 4770TIP3   OH235800   6.439   3.932   1.262  0.1038 -0.0312 -0.2079
 4770TIP3    H135801   6.436   3.988   1.185 -2.0477 -0.7955 -0.7554
 4770TIP3    H235802   6.523   3.951   1.303  1.2235  0.5274 -2.6231
 4771TIP3   OH235803   1.527   4.061  16.153 -0.5674  0.6547 -0.2960
 4771TIP3    H135804   1.565   4.149  16.159 -0.4701  0.6841 -1.2037
 4771TIP3    H235805   1.485   4.047  16.237 -0.1354  1.3671  0.0455
 4772TIP3   OH235806   4.797   5.573  13.208  0.3200  0.3468  0.1918
 4772TIP3    H135807   4.837   5.596  13.292 -0.0671  2.7290 -0.2239
 4772TIP3    H235808   4.765   5.483  13.221  1.7061  0.0567  2.0213
 4773TIP3   OH235809   2.178   3.898  13.529  0.5076 -0.1342  0.4024
 4773TIP3    H135810   2.249   3.948  13.489  0.2979  0.5772  0.8953
 4773TIP3    H235811   2.100   3.924  13.480  0.6703 -1.4800 -0.6379
 4774TIP3   OH235812   1.639   2.624  16.613  0.6965  0.0794  0.6163
 4774TIP3    H135813   1.652   2.575  16.532  2.9552  2.5136 -0.6446
 4774TIP3    H235814   1.690   2.576  16.679  0.9066 -0.5380  0.0109
 4775TIP3   OH235815   4.246   4.995   5.273 -0.0442 -0.6796 -0.3461
 4775TIP3    H135816   4.321   5.048   5.246 -0.4124 -0.6737 -1.3858
 4775TIP3    H235817   4.259   4.982   5.367  0.5601  0.4351 -0.2571
 4776TIP3   OH235818   5.828   3.310   4.667 -0.1196 -0.5566  0.4467
 4776TIP3    H135819   5.891   3.288   4.736  0.4184  1.2532  0.5789
 4776TIP3    H235820   5.762   3.363   4.711  0.2054  0.5794 -0.4006
 4777TIP3   OH235821   1.400   3.829  16.393  0.2058  0.2662  0.3874
 4777TIP3    H135822   1.364   3.763  16.451 -0.4771 -0.3965 -0.7452
 4777TIP3    H235823   1.360   3.811  16.308  0.7598  1.5303 -0.1763
 4778TIP3   OH235824   3.112   5.274  15.943 -0.0665 -0.5615 -0.2514
 4778TIP3    H135825   3.122   5.325  15.862 -0.2555 -1.1250 -0.6353
 4778TIP3    H235826   3.019   5.284  15.965  0.0027 -0.3419 -0.0549
 4779TIP3   OH235827   3.781   0.154  16.905 -0.1617  0.2755 -0.2442
 4779TIP3    H135828   3.728   0.097  16.960  0.8532 -0.9711 -0.5036
 4779TIP3    H235829   3.722   0.225  16.880 -1.4796 -0.6599  0.0837
 4780TIP3   OH235830   1.691   2.361  12.088 -0.7950 -0.1309  0.0866
 4780TIP3    H135831   1.717   2.304  12.016  0.4708 -0.4317  0.7446
 4780TIP3    H235832   1.717   2.313  12.167 -0.6094  0.9234  0.6812
 4781TIP3   OH235833   4.759   5.497  15.951 -0.0855  0.7528  0.2913
 4781TIP3    H135834   4.734   5.445  15.874 -0.5444 -0.8090  1.4271
 4781TIP3    H235835   4.760   5.587  15.920 -0.1487  0.1652 -1.5660
 4782TIP3   OH235836   4.430   5.823   5.502  0.5549  0.2662 -0.0211
 4782TIP3    H135837   4.345   5.847   5.539  0.7519 -0.4828  0.9701
 4782TIP3    H235838   4.479   5.787   5.576  1.8406  0.9214 -0.5149
 4783TIP3   OH235839   6.413   3.683   1.484  0.0400 -0.5403 -0.1953
 4783TIP3    H135840   6.506   3.685   1.506  0.2711  2.0926 -1.0729
 4783TIP3    H235841   6.407   3.622   1.411  0.7864 -1.9093  0.8341
 4784TIP3   OH235842   4.454   3.979   3.521  0.2904 -0.2127  0.1972
 4784TIP3    H135843   4.363   3.951   3.522  0.0444  0.4321 -1.2929
 4784TIP3    H235844   4.456   4.054   3.581 -0.3142  0.2060 -0.2971
 4785TIP3   OH235845   3.701   2.864   0.682  0.1841 -0.7765  0.0167
 4785TIP3    H135846   3.640   2.823   0.743  0.8914  0.5280  1.6981
 4785TIP3    H235847   3.673   2.835   0.595 -2.7483 -0.3296  0.7130
 4786TIP3   OH235848   0.680   0.317   0.612 -0.6243 -0.5683 -0.1755
 4786TIP3    H135849   0.610   0.375   0.582 -1.1702  0.5821  2.9486
 4786TIP3    H235850   0.639   0.231   0.616 -0.9702 -0.4615 -1.1254
 4787TIP3   OH235851   2.200   3.773   2.286  0.4641 -0.1972  0.2489
 4787TIP3    H135852   2.137   3.762   2.358  0.7104 -1.5791  0.2793
 4787TIP3    H235853   2.161   3.725   2.213  0.1619  1.2987 -0.6169
 4788TIP3   OH235854   5.761   6.036   0.368  0.3304 -0.2062  0.1137
 4788TIP3    H135855   5.761   5.972   0.297 -1.5085  0.6429 -0.7105
 4788TIP3    H235856   5.788   5.986   0.445 -0.2260 -1.7855 -0.6716
 4789TIP3   OH235857   3.363   3.020  16.675 -0.5422 -0.1555  0.0600
 4789TIP3    H135858   3.300   3.033  16.605  1.1621  0.8116 -1.3659
 4789TIP3    H235859   3.411   3.102  16.681  0.3783 -0.7413  1.3366
 4790TIP3   OH235860   0.126   2.064  17.016 -0.0562  0.2245 -0.2078
 4790TIP3    H135861   0.108   2.138  16.958  0.0278  1.1003  0.8616
 4790TIP3    H235862   0.218   2.043  17.000  0.3883  1.4331  0.6781
 4791TIP3   OH235863   3.294   0.269   0.713 -0.1245  0.1800  0.1455
 4791TIP3    H135864   3.284   0.357   0.677 -2.1354  1.0275  2.4827
 4791TIP3    H235865   3.212   0.252   0.760  0.0634 -3.1020 -0.4351
 4792TIP3   OH235866   2.166   3.423   4.194  0.5436  0.5515  0.7977
 4792TIP3    H135867   2.215   3.345   4.221  2.0588  1.3835  0.5753
 4792TIP3    H235868   2.225   3.496   4.215 -0.6770  1.6048  0.6294
 4793TIP3   OH235869   6.824   3.622  10.889  0.3428  0.0300  0.1578
 4793TIP3    H135870   6.756   3.622  10.822  0.2487  2.8473  0.1603
 4793TIP3    H235871   6.777   3.636  10.971  0.8594  2.6412  0.0967
 4794TIP3   OH235872   5.379   5.272   0.806 -0.4577 -0.1925  0.4704
 4794TIP3    H135873   5.319   5.344   0.826 -0.2547 -0.1369  0.9100
 4794TIP3    H235874   5.451   5.283   0.869  0.2127 -0.0148 -0.3006
 4795TIP3   OH235875   4.161   5.911  15.038  0.3966  0.3999  0.5171
 4795TIP3    H135876   4.091   5.971  15.012 -1.5494 -1.6357  0.7889
 4795TIP3    H235877   4.177   5.857  14.961  1.3085  0.4717  0.6370
 4796TIP3   OH235878   0.858   0.653  14.217  0.1013 -0.4643  0.2148
 4796TIP3    H135879   0.925   0.721  14.223 -0.4047  0.0055  0.6256
 4796TIP3    H235880   0.776   0.699  14.231 -0.2359 -1.1932  0.6638
 4797TIP3   OH235881   2.827   2.583   0.786 -0.1525  0.4237  0.0148
 4797TIP3    H135882   2.875   2.651   0.834  1.0738 -0.0917 -0.4616
 4797TIP3    H235883   2.756   2.630   0.742  0.0056  1.2195  0.5939
 4798TIP3   OH235884   1.047   6.493  13.704 -0.3931  0.4449 -0.5268
 4798TIP3    H135885   0.955   6.466  13.701 -0.4339  0.6310 -1.0277
 4798TIP3    H235886   1.088   6.452  13.628  0.3115 -0.9130  0.5441
 4799TIP3   OH235887   4.688   3.490   2.755  0.2898 -0.2348 -0.1649
 4799TIP3    H135888   4.628   3.439   2.700  0.1590 -0.8854  0.5501
 4799TIP3    H235889   4.700   3.572   2.709 -1.0994 -0.1239 -0.3728
 4800TIP3   OH235890   1.662   3.203   4.463  0.1670  0.0359 -0.0151
 4800TIP3    H135891   1.719   3.128   4.479  0.3125 -0.0834 -1.0234
 4800TIP3    H235892   1.717   3.279   4.482  0.3088 -0.0957  0.1022
 4801TIP3   OH235893   2.300   6.407   1.458  0.4916 -0.4440  0.2618
 4801TIP3    H135894   2.277   6.493   1.422  0.3374 -1.4336 -2.1962
 4801TIP3    H235895   2.219   6.378   1.502  0.0722  0.0508 -0.1654
 4802TIP3   OH235896   3.044   1.589  16.775  0.4639 -0.5414  0.0654
 4802TIP3    H135897   3.006   1.580  16.863  1.0907  0.7039  0.4954
 4802TIP3    H235898   2.974   1.564  16.715 -0.2618 -0.5619  0.9040
 4803TIP3   OH235899   6.541   5.027   0.832  0.3337  0.8191  0.2491
 4803TIP3    H135900   6.624   5.023   0.786  1.1441  2.7372  1.4218
 4803TIP3    H235901   6.537   5.116   0.868 -1.4928  0.2807  1.5550
 4804TIP3   OH235902   5.119   4.704  12.861  0.0265 -0.0362 -0.0687
 4804TIP3    H135903   5.172   4.635  12.900  0.3830  0.1561 -0.2045
 4804TIP3    H235904   5.131   4.779  12.920 -0.8941 -0.2839  0.4471
 4805TIP3   OH235905   6.103   3.330  14.938  0.1307  0.0587  0.1300
 4805TIP3    H135906   6.095   3.254  14.995  1.0906  1.0777  1.6982
 4805TIP3    H235907   6.059   3.401  14.985 -0.2651  0.6175 -1.0368
 4806TIP3   OH235908   0.410   4.092  10.354 -0.0702 -0.3910 -0.5023
 4806TIP3    H135909   0.453   4.171  10.319  0.2816 -1.5610 -2.9351
 4806TIP3    H235910   0.349   4.126  10.420  0.7660  1.8155 -0.7613
 4807TIP3   OH235911   4.272   3.558   4.804  1.3739  0.2058  0.0011
 4807TIP3    H135912   4.368   3.549   4.806  1.2686 -1.0207  2.0361
 4807TIP3    H235913   4.240   3.488   4.861 -0.7509  0.7458 -0.4407
 4808TIP3   OH235914   3.921   0.866   4.941 -0.3919 -0.3578 -0.0427
 4808TIP3    H135915   4.003   0.911   4.960  0.2442 -1.9209  1.1312
 4808TIP3    H235916   3.906   0.883   4.848  0.4456  1.2015  0.0746
 4809TIP3   OH235917   4.565   5.153   0.119  0.4395 -0.3396 -0.4698
 4809TIP3    H135918   4.474   5.133   0.095 -0.3877  1.8937  0.5346
 4809TIP3    H235919   4.576   5.112   0.205  1.1641 -2.4618 -1.4966
 4810TIP3   OH235920   5.909   6.477  13.138 -0.4881  0.5347  0.2768
 4810TIP3    H135921   5.901   6.552  13.078 -1.5164  0.7328  0.6374
 4810TIP3    H235922   5.819   6.459  13.166 -0.1681 -0.3678  0.7793
 4811TIP3   OH235923   0.508   5.215   5.368 -0.5752  0.0387  0.1302
 4811TIP3    H135924   0.526   5.309   5.367 -2.6816  0.5006  0.3222
 4811TIP3    H235925   0.485   5.193   5.278  1.0341 -0.5753 -0.1616
 4812TIP3   OH235926   2.858   3.618   1.417 -0.1776  0.2194 -0.1936
 4812TIP3    H135927   2.917   3.550   1.387 -0.1076 -0.0187  0.4586
 4812TIP3    H235928   2.911   3.698   1.414  0.2526 -0.0205  0.5636
 4813TIP3   OH235929   3.930   1.310  11.685  0.4250  0.0619 -0.3755
 4813TIP3    H135930   3.856   1.320  11.626 -0.5471 -0.0707  0.7772
 4813TIP3    H235931   3.937   1.215  11.699  1.6900 -0.0407 -1.5273
 4814TIP3   OH235932   6.781   5.998   1.401  0.0208 -0.3341 -0.4123
 4814TIP3    H135933   6.703   5.993   1.455  0.4025 -2.1092  0.0425
 4814TIP3    H235934   6.834   5.923   1.428  0.5669 -0.8498 -2.6893
 4815TIP3   OH235935   6.292   6.543   4.795 -0.0677 -0.4035  0.0819
 4815TIP3    H135936   6.383   6.542   4.824  0.6744 -3.3060 -1.9120
 4815TIP3    H235937   6.296   6.569   4.703 -1.4536  0.6479  0.2689
 4816TIP3   OH235938   5.721   6.767   0.691 -0.7964 -0.4538 -0.5650
 4816TIP3    H135939   5.778   6.721   0.629  0.8176  1.4749 -0.6003
 4816TIP3    H235940   5.654   6.808   0.636 -0.4488 -0.2734 -0.8611
 4817TIP3   OH235941   6.102   6.794   0.979  0.1935 -0.2369  0.2896
 4817TIP3    H135942   6.175   6.738   0.952  0.8100  0.8030 -0.2698
 4817TIP3    H235943   6.120   6.817   1.070  1.6588  1.6300 -0.4204
 4818TIP3   OH235944   5.263   1.386   4.845 -0.7951 -0.3157  0.2789
 4818TIP3    H135945   5.183   1.367   4.895 -0.6681 -1.4983  0.0568
 4818TIP3    H235946   5.242   1.363   4.755  0.1228 -1.6979  0.3888
 4819TIP3   OH235947   6.031   0.189  17.037 -0.0865 -0.2345 -0.4173
 4819TIP3    H135948   5.951   0.177  16.985 -2.1579  0.4846  2.3349
 4819TIP3    H235949   6.091   0.122  17.006 -1.5319 -0.4405 -2.9992
 4820TIP3   OH235950   2.609   4.151  12.170  0.0246 -0.3531 -0.2555
 4820TIP3    H135951   2.523   4.193  12.166 -0.0960 -0.6898 -1.3361
 4820TIP3    H235952   2.591   4.060  12.194  0.2285 -0.0263  1.2634
 4821TIP3   OH235953   4.379   5.092   1.566 -0.2632  0.5852 -0.0019
 4821TIP3    H135954   4.403   5.148   1.641  1.6303 -0.9792  0.6324
 4821TIP3    H235955   4.291   5.122   1.542  0.3743  3.3456  0.7337
 4822TIP3   OH235956   4.886   2.595  12.218  0.6887  0.1108  0.3497
 4822TIP3    H135957   4.825   2.665  12.241  0.0457 -0.6692  1.1035
 4822TIP3    H235958   4.969   2.622  12.258  0.0806 -0.2402  1.9396
 4823TIP3   OH235959   5.038   2.231  11.020 -0.4621  0.1176  0.0808
 4823TIP3    H135960   5.074   2.266  11.102 -0.2339 -1.5085  0.7048
 4823TIP3    H235961   4.944   2.223  11.036 -0.7663  1.8203 -0.6089
 4824TIP3   OH235962   2.158   4.994  15.303  0.6523  0.7575  0.3640
 4824TIP3    H135963   2.193   4.947  15.227 -0.4252  0.7873 -0.1686
 4824TIP3    H235964   2.065   4.973  15.303  0.7023  0.4382  1.9224
 4825TIP3   OH235965   0.345   4.825  14.186  0.0736 -0.2631 -0.4089
 4825TIP3    H135966   0.287   4.805  14.112 -0.7970  1.2738 -0.1834
 4825TIP3    H235967   0.430   4.842  14.146 -0.1315 -0.5000 -0.9572
 4826TIP3   OH235968   2.426   6.407  16.812  0.3977 -0.8273  0.3934
 4826TIP3    H135969   2.456   6.431  16.724 -0.0952 -0.2094  0.3839
 4826TIP3    H235970   2.501   6.426  16.868  0.8461 -1.5820  0.0675
 4827TIP3   OH235971   6.635   3.067   4.218  0.2385  0.2712  0.0229
 4827TIP3    H135972   6.712   3.067   4.274  1.1263 -3.3783 -0.8782
 4827TIP3    H235973   6.569   3.020   4.268  0.0234 -0.2926 -0.7654
 4828TIP3   OH235974   3.648   1.422  12.687 -0.0892 -0.2866  0.4516
 4828TIP3    H135975   3.732   1.393  12.722 -0.4896 -3.4351 -0.7953
 4828TIP3    H235976   3.665   1.437  12.594 -0.5021  1.1405  0.5832
 4829TIP3   OH235977   4.655   0.144   0.134 -0.1604  0.2619  0.6634
 4829TIP3    H135978   4.634   0.098   0.215 -1.1332 -0.2331  0.1413
 4829TIP3    H235979   4.571   0.177   0.102  0.2778  0.8590  0.0968
 4830TIP3   OH235980   1.995   2.881  11.479  0.2394  0.2689  0.1360
 4830TIP3    H135981   1.934   2.820  11.521  0.1971  0.4049  0.2732
 4830TIP3    H235982   2.078   2.833  11.475  0.2229  0.2255  0.3032
 4831TIP3   OH235983   5.983   2.858  12.544 -0.7334  0.7069  0.8214
 4831TIP3    H135984   5.976   2.944  12.584 -0.9721  0.9176  0.3357
 4831TIP3    H235985   5.911   2.855  12.481  1.1269  1.4168 -1.4868
 4832TIP3   OH235986   2.219   1.756   5.708  0.0619  0.5185  0.2856
 4832TIP3    H135987   2.147   1.818   5.720  0.4538  0.8776  0.8484
 4832TIP3    H235988   2.289   1.790   5.764 -0.4918 -1.7109  2.4903
 4833TIP3   OH235989   2.391   1.346  12.525 -0.3090  0.0196  0.3478
 4833TIP3    H135990   2.361   1.392  12.604 -1.3800 -0.7306  0.4071
 4833TIP3    H235991   2.339   1.384  12.454  1.9533  2.0180 -0.3635
 4834TIP3   OH235992   6.043   0.968   3.663 -0.2137  0.2514  0.4952
 4834TIP3    H135993   6.038   1.061   3.685 -0.6539  0.1961  0.6453
 4834TIP3    H235994   6.130   0.941   3.691 -0.0066  0.6674  0.2575
 4835TIP3   OH235995   0.900   1.112   3.597  0.2575  0.0114 -0.1775
 4835TIP3    H135996   0.812   1.079   3.583  0.8901 -1.0687 -1.9494
 4835TIP3    H235997   0.957   1.035   3.587  1.4613  0.8351  0.0757
 4836TIP3   OH235998   2.097   3.159  13.557  0.5984  0.2668 -0.2161
 4836TIP3    H135999   2.040   3.202  13.493 -0.6164 -0.6855  0.1775
 4836TIP3    H236000   2.153   3.102  13.505 -2.4362 -2.9068 -0.4071
 4837TIP3   OH236001   6.296   2.759  16.159  0.9196 -0.7348 -0.2156
 4837TIP3    H136002   6.277   2.848  16.129  1.4609 -0.9426 -1.2009
 4837TIP3    H236003   6.310   2.708  16.079 -1.0004 -2.0982  0.2341
 4838TIP3   OH236004   3.339   4.533  16.764  0.5365 -0.2181  0.2461
 4838TIP3    H136005   3.254   4.511  16.725  1.2889  0.5825 -1.9953
 4838TIP3    H236006   3.335   4.628  16.778  1.2517 -0.0871 -0.3986
 4839TIP3   OH236007   4.691   0.047   5.942 -0.7489 -0.0027 -0.3666
 4839TIP3    H136008   4.763  -0.015   5.953 -1.3679 -0.8364 -0.7740
 4839TIP3    H236009   4.683   0.091   6.026  0.7482  0.6929 -0.5666
 4840TIP3   OH236010   1.269   4.560  11.811  0.3646  0.3207  0.4616
 4840TIP3    H136011   1.263   4.597  11.723 -0.4933  3.4116  1.6824
 4840TIP3    H236012   1.362   4.561  11.831  0.3665  2.3193  0.5569
 4841TIP3   OH236013   2.560   0.581   2.202  0.2401  0.1276  0.1782
 4841TIP3    H136014   2.572   0.566   2.296  2.1323 -1.3384 -0.2345
 4841TIP3    H236015   2.467   0.603   2.193  0.0395  0.4312  2.3918
 4842TIP3   OH236016   1.226   0.311   1.148 -0.2976  0.3559 -0.1025
 4842TIP3    H136017   1.315   0.296   1.118 -0.8649 -1.5017 -1.0405
 4842TIP3    H236018   1.214   0.406   1.143  1.1364  0.5047 -1.3558
 4843TIP3   OH236019   4.341   3.737   3.871 -0.2537 -0.4528 -0.3493
 4843TIP3    H136020   4.271   3.773   3.927  0.0214  1.0377 -0.9105
 4843TIP3    H236021   4.315   3.646   3.857 -1.6510 -0.1686  0.1413
 4844TIP3   OH236022   5.632   6.378   6.077  0.3132 -0.8807 -0.4394
 4844TIP3    H136023   5.602   6.300   6.122  0.4967 -1.2974 -1.0204
 4844TIP3    H236024   5.572   6.388   6.003 -1.5704  1.2572  1.2783
 4845TIP3   OH236025   3.394   3.339  14.542  0.6203 -0.2573  0.0291
 4845TIP3    H136026   3.341   3.323  14.620  1.9890 -0.8424  0.8797
 4845TIP3    H236027   3.482   3.357  14.576  1.3572 -1.0303 -1.3897
 4846TIP3   OH236028   4.273   3.163  14.843 -0.0768 -0.5425  0.2364
 4846TIP3    H136029   4.361   3.186  14.813 -1.0622  2.0300 -0.9777
 4846TIP3    H236030   4.229   3.127  14.766 -1.0052  1.1673 -0.0829
 4847TIP3   OH236031   0.526   5.242  16.049  0.4596 -0.0124 -0.0934
 4847TIP3    H136032   0.476   5.207  15.975 -2.5311  2.3529  0.5947
 4847TIP3    H236033   0.588   5.303  16.010  1.0876 -1.1012 -0.8229
 4848TIP3   OH236034   2.482   2.170   0.359 -0.2965 -0.1553 -0.9050
 4848TIP3    H136035   2.406   2.197   0.410 -0.5251 -2.2299 -0.0407
 4848TIP3    H236036   2.557   2.192   0.415 -0.3246  0.7168 -1.1988
 4849TIP3   OH236037   3.218   1.410   6.842  0.2498  0.3133 -0.0759
 4849TIP3    H136038   3.166   1.341   6.800  0.3375 -0.0155  0.3344
 4849TIP3    H236039   3.278   1.440   6.775  1.4469 -1.2728  0.2151
 4850TIP3   OH236040   3.304   1.852   0.120  0.5633  0.7412  0.3145
 4850TIP3    H136041   3.376   1.911   0.099 -0.2451  2.1358  1.3370
 4850TIP3    H236042   3.328   1.815   0.205  1.2428 -0.7582 -0.4788
 4851TIP3   OH236043   2.023   5.632   3.542  0.2971 -0.1265 -0.0972
 4851TIP3    H136044   1.985   5.636   3.455 -3.3624 -0.2218  1.3451
 4851TIP3    H236045   2.046   5.723   3.563 -1.8577  0.4618 -0.0275
 4852TIP3   OH236046   4.746   1.483  17.161 -0.1628 -0.3956 -0.3969
 4852TIP3    H136047   4.699   1.491  17.078  1.2591  0.5842 -1.1491
 4852TIP3    H236048   4.838   1.499  17.139  0.6433 -2.7215  0.9452
 4853TIP3   OH236049   4.791   3.756   0.472  0.1691  0.2760 -0.4843
 4853TIP3    H136050   4.878   3.727   0.497  0.0463 -3.9623 -3.8544
 4853TIP3    H236051   4.733   3.716   0.537  0.5395  0.3989 -0.0747
 4854TIP3   OH236052   3.465   6.028  14.644 -0.3543  0.1133  0.0075
 4854TIP3    H136053   3.369   6.021  14.650 -0.5130  1.0372 -1.1466
 4854TIP3    H236054   3.496   5.995  14.729 -1.7111  0.1363  0.5472
 4855TIP3   OH236055   2.494   5.042  15.709 -0.3093 -0.1006  0.2704
 4855TIP3    H136056   2.401   5.060  15.722 -0.0350  1.3326  0.3704
 4855TIP3    H236057   2.503   5.031  15.614 -0.8379 -1.9801  0.3848
 4856TIP3   OH236058   3.890   5.580  14.750  0.0734 -0.4502  0.2125
 4856TIP3    H136059   3.842   5.540  14.822  1.1517  0.0418  1.2469
 4856TIP3    H236060   3.912   5.508  14.692 -2.3558 -0.6232 -0.6094
 4857TIP3   OH236061   2.294   1.837  11.791 -0.5122 -0.2316 -0.6650
 4857TIP3    H136062   2.200   1.850  11.797 -0.3348  2.0127 -1.7650
 4857TIP3    H236063   2.331   1.925  11.798  1.6680 -1.2230  1.8060
 4858TIP3   OH236064   4.306   0.141  10.946  0.2074  0.1374 -0.0517
 4858TIP3    H136065   4.387   0.175  10.910  1.5572 -0.1455  2.4771
 4858TIP3    H236066   4.308   0.048  10.926 -0.2607  0.3714 -1.2711
 4859TIP3   OH236067   0.917   2.658  14.507  0.0476  0.5640 -0.2179
 4859TIP3    H136068   0.953   2.582  14.461  0.6012  1.0727 -0.6524
 4859TIP3    H236069   0.983   2.680  14.572 -0.1865  0.5718  0.0159
 4860TIP3   OH236070   5.114   0.998  11.613  0.2842  0.6422  0.3020
 4860TIP3    H136071   5.177   0.993  11.542  0.4633 -0.2663  0.5104
 4860TIP3    H236072   5.029   0.995  11.570  0.3662  1.9966  0.0107
 4861TIP3   OH236073   4.240   6.570  13.452 -0.4439  0.2223  0.2389
 4861TIP3    H136074   4.304   6.624  13.406 -0.9412  0.1716 -0.5075
 4861TIP3    H236075   4.243   6.486  13.407 -0.6310  0.0344  0.5698
 4862TIP3   OH236076   0.104   0.949   3.691  0.3780 -0.2919  0.6278
 4862TIP3    H136077   0.065   1.027   3.730  0.3487  0.5700 -1.0544
 4862TIP3    H236078   0.030   0.901   3.655  0.5039 -0.5871  0.7600
 4863TIP3   OH236079   6.371   3.076  15.920 -0.5444 -0.4967 -0.2427
 4863TIP3    H136080   6.301   3.128  15.959 -1.6334 -1.1014 -1.3265
 4863TIP3    H236081   6.358   3.085  15.826  0.2193 -1.4480 -0.4543
 4864TIP3   OH236082   0.449   6.829  12.015  0.1502 -0.3244 -0.1769
 4864TIP3    H136083   0.371   6.881  11.997  0.8108  0.4889 -0.8100
 4864TIP3    H236084   0.511   6.892  12.053  1.3331 -0.3640 -1.9349
 4865TIP3   OH236085   6.573   1.753  14.709  0.4286  0.5045 -0.4316
 4865TIP3    H136086   6.612   1.667  14.729 -0.3354  0.2879  0.1777
 4865TIP3    H236087   6.583   1.803  14.790 -1.4609  0.0840  0.1311
 4866TIP3   OH236088   2.113   3.581   5.125 -0.1795  0.3047  0.3573
 4866TIP3    H136089   2.108   3.655   5.185 -0.9264  0.0299  0.6357
 4866TIP3    H236090   2.026   3.542   5.126 -0.3233  0.5038 -1.1811
 4867TIP3   OH236091   4.398   6.751   4.987 -0.2940  0.1996  0.1283
 4867TIP3    H136092   4.335   6.713   4.926 -0.0116 -2.6636  1.4629
 4867TIP3    H236093   4.354   6.749   5.072 -0.6145  3.9633  0.2085
 4868TIP3   OH236094   2.838   1.277  16.265  0.0300  0.0015  0.5106
 4868TIP3    H136095   2.894   1.200  16.263  0.4935  0.3431 -0.5937
 4868TIP3    H236096   2.790   1.273  16.181  0.1949  1.0036  0.3647
 4869TIP3   OH236097   2.369   5.050   5.253 -0.7065 -0.7739 -0.4511
 4869TIP3    H136098   2.395   5.137   5.283  0.6709 -1.5741  0.7797
 4869TIP3    H236099   2.302   5.067   5.187 -1.9696  1.1611  1.2071
 4870TIP3   OH236100   0.803   5.128  12.692  0.2222  0.1500 -0.1334
 4870TIP3    H136101   0.781   5.179  12.614  1.2514  0.8595  0.0158
 4870TIP3    H236102   0.848   5.190  12.749  1.6885 -0.9597 -0.0191
 4871TIP3   OH236103   5.386   0.735   1.482  0.2684 -0.1840  0.4652
 4871TIP3    H136104   5.423   0.763   1.398  0.1403 -0.4361  0.3223
 4871TIP3    H236105   5.429   0.791   1.547 -0.2413  0.5857  0.1604
 4872TIP3   OH236106   3.023   2.083   1.198  0.0205 -0.2644 -0.3377
 4872TIP3    H136107   3.059   2.084   1.286 -1.0076 -0.4191  0.0954
 4872TIP3    H236108   3.077   2.145   1.149  0.3537  0.1150  0.4962
 4873TIP3   OH236109   2.276   1.593   0.991  1.1220 -0.7378  0.1892
 4873TIP3    H136110   2.284   1.499   0.975 -1.5253 -1.4485  2.3090
 4873TIP3    H236111   2.219   1.599   1.067  1.2260  2.6246  0.1263
 4874TIP3   OH236112   3.728   6.079   5.650 -0.1874  0.2196 -0.1020
 4874TIP3    H136113   3.730   6.164   5.694  0.3023  0.4242 -0.5152
 4874TIP3    H236114   3.675   6.023   5.708 -0.9257  0.9347 -0.0771
 4875TIP3   OH236115   4.351   0.032   6.851 -0.0645 -0.6517  0.3087
 4875TIP3    H136116   4.285   0.101   6.850  0.7062  0.1058  0.9009
 4875TIP3    H236117   4.384   0.029   6.762 -0.4596 -0.6063  0.1594
 4876TIP3   OH236118   0.643   0.505  12.049 -0.2981 -0.3926 -0.6574
 4876TIP3    H136119   0.639   0.601  12.056 -0.5049 -0.4314 -0.1919
 4876TIP3    H236120   0.732   0.487  12.020  0.7222 -0.2004  2.0868
 4877TIP3   OH236121   6.830   2.275  16.280  0.2010 -0.1126 -0.2376
 4877TIP3    H136122   6.876   2.354  16.310 -0.8101  1.5383 -2.7078
 4877TIP3    H236123   6.754   2.270  16.337  0.4956  0.4514  0.2283
 4878TIP3   OH236124   3.030   3.935   2.928  0.0728 -0.4447  0.5334
 4878TIP3    H136125   2.986   3.936   3.013 -1.1923  0.5807 -0.1025
 4878TIP3    H236126   3.049   4.027   2.910  0.0193 -0.6127 -0.4433
 4879TIP3   OH236127   1.457   0.132  12.759  0.3138 -0.3132 -0.2753
 4879TIP3    H136128   1.502   0.050  12.780  0.5101 -0.3698 -0.9034
 4879TIP3    H236129   1.454   0.180  12.842 -0.9055 -1.4752  0.3861
 4880TIP3   OH236130   2.331   2.397  14.958 -0.2063  0.0876  0.6639
 4880TIP3    H136131   2.236   2.397  14.958 -0.2491  0.6972  2.1991
 4880TIP3    H236132   2.355   2.377  15.049  1.1161  0.6247  0.4685
 4881TIP3   OH236133   5.688   4.546   0.787  0.6006  0.1076 -0.2362
 4881TIP3    H136134   5.698   4.481   0.718 -1.3693 -0.5682  0.0402
 4881TIP3    H236135   5.703   4.498   0.868 -1.6883 -0.3049  0.0220
 4882TIP3   OH236136   2.944   1.450  15.507 -0.7996  0.5991  0.2203
 4882TIP3    H136137   2.941   1.486  15.418  0.0505  0.9581  0.3341
 4882TIP3    H236138   3.020   1.491  15.547  0.6913 -1.8608  0.1232
 4883TIP3   OH236139   4.562   5.732  12.017  0.6061  0.3285  0.9803
 4883TIP3    H136140   4.520   5.648  12.033  3.7886 -1.2225  2.0993
 4883TIP3    H236141   4.583   5.732  11.924 -0.0165  0.1960  0.8399
 4884TIP3   OH236142   2.149   3.587   0.597  0.4708 -0.0511 -0.7273
 4884TIP3    H136143   2.231   3.638   0.601  1.1840 -1.1228 -1.3106
 4884TIP3    H236144   2.158   3.534   0.519  0.0031 -1.5109  0.1791
 4885TIP3   OH236145   1.721   3.941  10.325 -0.1769  0.0269 -0.3047
 4885TIP3    H136146   1.690   3.907  10.409 -0.0886  0.7229  0.0165
 4885TIP3    H236147   1.769   3.868  10.285  3.7728  0.9100  2.2484
 4886TIP3   OH236148   3.427   1.440  13.763  0.3136 -0.2332  0.3631
 4886TIP3    H136149   3.436   1.351  13.729  0.7744  0.3307 -1.0225
 4886TIP3    H236150   3.517   1.473  13.769  0.0954  0.4223  0.1074
 4887TIP3   OH236151   0.354   4.578  13.531  0.7194  0.1054 -0.3282
 4887TIP3    H136152   0.330   4.501  13.582 -1.0025  1.1792  0.5842
 4887TIP3    H236153   0.287   4.584  13.462  1.0628  0.5673 -0.6354
 4888TIP3   OH236154   1.570   4.402   2.515  0.1178 -0.1168  0.0319
 4888TIP3    H136155   1.633   4.339   2.550 -0.7740 -0.0819  1.7757
 4888TIP3    H236156   1.489   4.352   2.505 -0.3472  0.5195  0.5357
 4889TIP3   OH236157   5.896   3.003   0.275 -0.2200 -0.0725  0.1595
 4889TIP3    H136158   5.922   2.911   0.277 -0.0683 -0.0749  3.2138
 4889TIP3    H236159   5.939   3.038   0.197  1.1812 -2.1846 -0.1104
 4890TIP3   OH236160   4.488   5.756  16.686  0.2833  0.7339  0.0704
 4890TIP3    H136161   4.578   5.730  16.706  0.4093  0.4241 -0.8787
 4890TIP3    H236162   4.452   5.782  16.771  1.4691  1.5104  0.3659
 4891TIP3   OH236163   4.654   5.283  15.765  0.2707  0.4716 -0.1373
 4891TIP3    H136164   4.708   5.217  15.721 -1.4039 -0.7998 -0.3846
 4891TIP3    H236165   4.630   5.243  15.848 -0.8435  0.7090 -0.3279
 4892TIP3   OH236166   0.659   6.767  10.587 -0.1947  0.2762 -0.0683
 4892TIP3    H136167   0.704   6.757  10.503 -0.0088  1.4014 -0.1300
 4892TIP3    H236168   0.666   6.861  10.605 -1.3170  0.2363  0.6012
 4893TIP3   OH236169   5.119   0.519  10.440 -0.5751 -0.0034 -0.5991
 4893TIP3    H136170   5.030   0.489  10.458 -0.5150  1.3568  2.5894
 4893TIP3    H236171   5.173   0.440  10.450 -1.1118 -0.2205  0.8163
 4894TIP3   OH236172   0.563   6.055   2.191  0.1882  0.2068  0.4179
 4894TIP3    H136173   0.605   5.991   2.133  0.0817  0.4485  0.0675
 4894TIP3    H236174   0.500   6.004   2.241 -1.3526  0.3282 -1.2843
 4895TIP3   OH236175   0.280   4.498  16.690  0.0562  0.0770  0.2234
 4895TIP3    H136176   0.293   4.419  16.636 -0.8424  1.0879 -1.5710
 4895TIP3    H236177   0.279   4.570  16.627  1.5398  1.6397  1.8808
 4896TIP3   OH236178   2.366   2.342  13.440  0.1050  0.0607  0.2311
 4896TIP3    H136179   2.440   2.378  13.488 -0.7598  3.1740 -0.5380
 4896TIP3    H236180   2.298   2.330  13.505  0.2102  0.4431  0.4128
 4897TIP3   OH236181   2.802   2.850  12.380  0.4053 -0.0032 -0.4332
 4897TIP3    H136182   2.843   2.860  12.293 -1.2405 -0.3235 -1.2814
 4897TIP3    H236183   2.856   2.785  12.424  1.5776  0.5337 -0.9995
 4898TIP3   OH236184   3.566   0.548  15.459  0.0201 -0.1849 -0.5416
 4898TIP3    H136185   3.553   0.462  15.421  1.8955 -0.3421 -0.9293
 4898TIP3    H236186   3.530   0.609  15.394 -2.1358 -0.6614  0.1367
 4899TIP3   OH236187   4.545   2.136  16.532  0.0927 -0.6076 -0.2496
 4899TIP3    H136188   4.562   2.224  16.566 -0.0766 -0.3337 -0.8605
 4899TIP3    H236189   4.516   2.151  16.442 -2.9867 -1.0321  0.5706
 4900TIP3   OH236190   1.351   3.391  11.166  0.3216  0.2847  0.1522
 4900TIP3    H136191   1.360   3.407  11.072  1.1855  1.4653  0.4211
 4900TIP3    H236192   1.324   3.475  11.203 -0.8461 -0.3708  0.8729
 4901TIP3   OH236193   0.260   0.111  15.595  0.7645 -0.0450  0.3238
 4901TIP3    H136194   0.349   0.076  15.601  0.4819 -1.3678 -2.1093
 4901TIP3    H236195   0.272   0.205  15.583  1.7232  0.0674  1.8359
 4902TIP3   OH236196   0.222   1.638  17.047 -0.6809  0.2857  0.3006
 4902TIP3    H136197   0.238   1.696  17.122 -2.2048  0.9364  0.1597
 4902TIP3    H236198   0.143   1.589  17.071 -1.0918  0.3765 -0.7979
 4903TIP3   OH236199   6.370   1.995   4.032  0.3251 -0.0130  0.2885
 4903TIP3    H136200   6.346   1.985   4.125  0.9806  0.5829  0.5305
 4903TIP3    H236201   6.338   1.915   3.991  0.1241 -0.3402  1.0517
 4904TIP3   OH236202   1.943   1.222  11.854  0.0519  0.4299 -0.7179
 4904TIP3    H136203   1.978   1.309  11.835  1.5021 -0.1270 -0.6566
 4904TIP3    H236204   1.893   1.234  11.935  1.7651  0.8532  0.3157
 4905TIP3   OH236205   2.056   6.710  16.610 -0.5534 -0.5665  0.4788
 4905TIP3    H136206   2.104   6.788  16.584 -0.2057 -1.9999 -4.1620
 4905TIP3    H236207   2.067   6.705  16.705  3.8118  2.1221  0.3846
 4906TIP3   OH236208   6.725   4.080   2.598  0.4610 -0.3098  0.4538
 4906TIP3    H136209   6.630   4.085   2.589  0.3758  0.8330  1.7342
 4906TIP3    H236210   6.744   3.986   2.594 -0.6905 -0.5381 -0.0448
 4907TIP3   OH236211   2.147   4.590  16.743  0.3029 -0.2474  0.3081
 4907TIP3    H136212   2.223   4.566  16.796 -0.2474  2.0942  2.3859
 4907TIP3    H236213   2.103   4.507  16.723  2.4352 -1.4892  0.5390
 4908TIP3   OH236214   4.920   4.939   4.741 -0.4398  0.7846  0.2668
 4908TIP3    H136215   4.853   4.927   4.674  0.0944  0.7593 -0.2766
 4908TIP3    H236216   4.872   4.940   4.823 -1.0267 -0.0548 -0.0466
 4909TIP3   OH236217   0.908   4.930   3.415 -0.0507  0.1528  0.2373
 4909TIP3    H136218   0.828   4.895   3.454 -0.5875  3.3480  2.3344
 4909TIP3    H236219   0.880   4.964   3.330 -1.2830  2.1084  1.3382
 4910TIP3   OH236220   3.424   4.437  15.031  0.1862 -0.0167 -0.2113
 4910TIP3    H136221   3.407   4.505  14.966  0.4530 -1.2297 -1.6107
 4910TIP3    H236222   3.520   4.429  15.032  0.1225 -0.9562 -0.7141
 4911TIP3   OH236223   6.227   3.527  13.899 -0.3800  0.1279  0.1741
 4911TIP3    H136224   6.134   3.516  13.878  0.1387 -1.1860 -1.6900
 4911TIP3    H236225   6.229   3.600  13.961 -2.7693 -0.7298  1.3855
 4912TIP3   OH236226   6.327   4.449   1.200  0.0982  0.3143 -0.5379
 4912TIP3    H136227   6.342   4.528   1.146 -0.0108  0.5408 -0.2383
 4912TIP3    H236228   6.239   4.460   1.234 -0.1595 -0.2515 -1.0068
 4913TIP3   OH236229   4.754   6.639   0.691 -0.0575 -0.1687  0.1109
 4913TIP3    H136230   4.778   6.722   0.731  3.7858 -0.6739 -0.7091
 4913TIP3    H236231   4.734   6.581   0.765  1.5028  0.3851  1.0197
 4914TIP3   OH236232   6.292   3.912   1.902 -0.3194  0.0164  0.1416
 4914TIP3    H136233   6.375   3.906   1.855 -0.4723 -0.4486 -0.0781
 4914TIP3    H236234   6.225   3.903   1.834 -0.5662 -3.0435  0.6174
 4915TIP3   OH236235   4.773   6.693  11.121  0.6110 -0.4410  0.5618
 4915TIP3    H136236   4.805   6.645  11.045  1.7924  0.6359  0.3396
 4915TIP3    H236237   4.690   6.731  11.092  0.5667 -0.8490  0.1399
 4916TIP3   OH236238   6.595   3.657  11.072  0.0424  0.0727  0.1859
 4916TIP3    H136239   6.547   3.630  11.150 -0.3407  0.2818  0.0214
 4916TIP3    H236240   6.557   3.606  11.001 -0.7947  1.1412 -0.1558
 4917TIP3   OH236241   1.039   5.620   1.724 -0.3161 -0.0195  0.3112
 4917TIP3    H136242   1.013   5.592   1.637  0.8743  0.0953 -0.1003
 4917TIP3    H236243   1.114   5.678   1.710 -1.1119  1.3249  1.3138
 4918TIP3   OH236244   3.865   0.677   0.495 -0.3492  0.2949  0.4645
 4918TIP3    H136245   3.879   0.708   0.585 -0.8441  2.2059 -0.0646
 4918TIP3    H236246   3.942   0.708   0.448 -1.2976  1.5904 -0.2822
 4919TIP3   OH236247   0.329   4.983   0.428 -0.0363 -0.5288  0.0575
 4919TIP3    H136248   0.342   4.920   0.499  1.2825 -0.9452 -0.5293
 4919TIP3    H236249   0.390   4.956   0.360 -1.2507 -0.1091 -1.2492
 4920TIP3   OH236250   1.254   6.280   2.492  0.5353  0.1030 -0.4153
 4920TIP3    H136251   1.270   6.372   2.474 -0.1866  0.2743 -0.2186
 4920TIP3    H236252   1.340   6.238   2.482  0.8539  0.7778 -0.5718
 4921TIP3   OH236253   3.228   0.836   3.624 -0.0426  0.2659 -0.4840
 4921TIP3    H136254   3.293   0.807   3.688  0.5987 -0.5381 -1.4774
 4921TIP3    H236255   3.144   0.807   3.661  0.5380 -2.9114 -1.3752
 4922TIP3   OH236256   6.509   5.246   0.469 -0.1274  0.3048  0.1480
 4922TIP3    H136257   6.581   5.211   0.417 -0.2441  0.9546 -0.4629
 4922TIP3    H236258   6.430   5.222   0.421 -0.2114  1.3544 -0.2648
 4923TIP3   OH236259   3.613   1.538   4.194  0.5449  0.3783 -0.0360
 4923TIP3    H136260   3.688   1.582   4.234  0.0953  1.9161 -0.8212
 4923TIP3    H236261   3.617   1.562   4.101 -0.7990  0.3509 -0.1276
 4924TIP3   OH236262   4.022   0.806  15.636 -0.8054 -0.6556 -0.5088
 4924TIP3    H136263   3.984   0.788  15.722 -1.8408  0.6138 -0.6673
 4924TIP3    H236264   4.099   0.860  15.655 -0.8186 -0.6937 -0.3472
 4925TIP3   OH236265   4.706   3.493  15.870  0.9992  0.5423 -0.5645
 4925TIP3    H136266   4.738   3.482  15.960  0.1735  2.4036  0.0266
 4925TIP3    H236267   4.710   3.406  15.832  0.4341 -0.5189  1.6202
 4926TIP3   OH236268   0.981   4.519   2.641 -0.3853  0.3240  0.5184
 4926TIP3    H136269   1.071   4.509   2.609 -1.2836  0.9479 -2.5204
 4926TIP3    H236270   0.965   4.439   2.691  1.5974 -0.1397  0.5256
 4927TIP3   OH236271   3.151   2.061   0.615  0.1757  0.1639 -0.2416
 4927TIP3    H136272   3.120   2.121   0.682  1.8361  0.7724  0.0355
 4927TIP3    H236273   3.073   2.013   0.586 -0.7287  0.6033  1.3980
 4928TIP3   OH236274   6.643   4.364   3.082 -0.1211  0.2890 -0.6362
 4928TIP3    H136275   6.717   4.337   3.137 -0.4032  1.2391  0.2530
 4928TIP3    H236276   6.566   4.352   3.138 -0.6592 -0.7926 -1.5904
 4929TIP3   OH236277   4.341   6.738   3.904 -0.1870  0.1252 -0.3992
 4929TIP3    H136278   4.307   6.659   3.946  0.5381  0.4723  0.8768
 4929TIP3    H236279   4.309   6.810   3.958 -0.6218  0.7038 -1.4051
 4930TIP3   OH236280   0.827   0.019  14.379  0.4703  0.0547  0.1832
 4930TIP3    H136281   0.830   0.103  14.426  0.6507 -0.1398  0.5232
 4930TIP3    H236282   0.866   0.037  14.294 -0.5181  0.5923 -0.1768
 4931TIP3   OH236283   6.786   6.559  14.061  0.2970  0.0473 -0.6094
 4931TIP3    H136284   6.771   6.466  14.043 -1.8918 -0.4756  2.9408
 4931TIP3    H236285   6.735   6.605  13.994 -0.8466 -1.3990 -0.7802
 4932TIP3   OH236286   2.693   1.437   1.593  0.1137  0.1297  0.1713
 4932TIP3    H136287   2.676   1.450   1.499  2.1766 -3.0039 -0.7829
 4932TIP3    H236288   2.631   1.369   1.619  0.1066  0.4154  0.9203
 4933TIP3   OH236289   0.640   3.695   6.603 -0.2160 -0.2914  0.6464
 4933TIP3    H136290   0.614   3.613   6.644  1.0677 -1.2575 -0.3873
 4933TIP3    H236291   0.726   3.714   6.641 -0.6412  0.7657  1.1184
 4934TIP3   OH236292   4.224   3.786   5.345 -0.1546 -0.9033  0.2335
 4934TIP3    H136293   4.219   3.744   5.260 -1.2770  0.5360 -0.4671
 4934TIP3    H236294   4.318   3.795   5.362  0.0970 -0.8434 -1.0647
 4935TIP3   OH236295   6.307   4.068  12.952  0.9462 -0.2218  0.5167
 4935TIP3    H136296   6.388   4.035  12.991  0.3051 -0.3873  1.7433
 4935TIP3    H236297   6.281   4.001  12.889  0.8139 -1.0272  1.4154
 4936TIP3   OH236298   0.018   5.792  12.726  0.1374 -0.3518  0.3912
 4936TIP3    H136299   0.087   5.781  12.661  2.0584  1.2624  2.0113
 4936TIP3    H236300   0.056   5.758  12.807 -1.7139 -1.1735  0.9719
 4937TIP3   OH236301   0.817   3.494   5.451  0.0157 -0.0103  0.1373
 4937TIP3    H136302   0.748   3.503   5.386  1.2788  2.1245 -1.0428
 4937TIP3    H236303   0.811   3.575   5.503  0.8234 -0.3790  0.8207
 4938TIP3   OH236304   1.728   3.097  11.722  0.3912 -0.3297  0.2880
 4938TIP3    H136305   1.767   3.011  11.733  1.0352  0.0413  0.9732
 4938TIP3    H236306   1.670   3.087  11.646 -0.1740 -1.5716  0.8612
 4939TIP3   OH236307   5.688   4.054   1.998  0.1688 -0.2254  0.1619
 4939TIP3    H136308   5.619   3.996   2.029  0.3963  0.4697  2.0717
 4939TIP3    H236309   5.650   4.097   1.921 -1.9128  0.8098  1.6739
 4940TIP3   OH236310   2.268   4.732  13.490  0.5035 -0.2424 -0.0680
 4940TIP3    H136311   2.180   4.759  13.463 -0.2934 -0.4518  2.0989
 4940TIP3    H236312   2.257   4.704  13.581  2.3649 -2.5652 -0.4771
 4941TIP3   OH236313   6.630   1.401   5.956 -0.4324  0.0315 -0.0387
 4941TIP3    H136314   6.601   1.456   5.884 -0.1900  0.5285  0.2398
 4941TIP3    H236315   6.550   1.374   6.001 -0.4587  2.7825  1.7670
 4942TIP3   OH236316   2.941   5.380  15.317 -0.2183  0.3377 -0.5296
 4942TIP3    H136317   2.976   5.461  15.355 -1.7585  0.3125  1.0731
 4942TIP3    H236318   3.017   5.322  15.311  0.5137  1.1759  0.3135
 4943TIP3   OH236319   4.891   0.881   5.582 -0.2407 -0.2186  0.8615
 4943TIP3    H136320   4.834   0.957   5.576  0.4398  0.2487 -0.0958
 4943TIP3    H236321   4.869   0.828   5.505  1.6034  0.7219 -0.3893
 4944TIP3   OH236322   6.587   1.286  11.775  0.1894 -0.4261  0.1748
 4944TIP3    H136323   6.569   1.380  11.787 -1.1756 -0.4982 -0.9841
 4944TIP3    H236324   6.604   1.277  11.681 -0.3956 -1.4407  0.1524
 4945TIP3   OH236325   5.182   5.039   2.513  0.0361  0.5471 -0.2952
 4945TIP3    H136326   5.135   5.004   2.438 -1.3607 -1.6014  1.4685
 4945TIP3    H236327   5.122   5.103   2.551 -0.9567 -1.1599  1.1335
 4946TIP3   OH236328   2.477   0.586   1.837  0.0120 -0.5675 -0.3442
 4946TIP3    H136329   2.527   0.551   1.764 -2.6580  1.3262 -3.3345
 4946TIP3    H236330   2.419   0.515   1.864  0.0767 -0.8758 -1.0049
 4947TIP3   OH236331   5.988   2.768  11.074  0.3369 -0.0027  0.2075
 4947TIP3    H136332   5.918   2.713  11.109 -0.7120  1.7504  0.9797
 4947TIP3    H236333   5.981   2.757  10.979  0.3779 -1.4402  0.3560
 4948TIP3   OH236334   5.749   1.468  17.041 -0.4811 -0.3836  0.0930
 4948TIP3    H136335   5.825   1.474  16.982 -0.3883 -0.4591  0.2044
 4948TIP3    H236336   5.738   1.557  17.075 -1.0441 -0.1436 -0.6698
 4949TIP3   OH236337   5.796   0.491   2.572 -0.0635  0.0010 -0.2259
 4949TIP3    H136338   5.822   0.517   2.483  1.6964  0.5795  0.4255
 4949TIP3    H236339   5.842   0.552   2.629 -0.9690 -0.5343  1.1228
 4950TIP3   OH236340   3.507   6.307   0.694  0.3261 -0.0012 -0.3186
 4950TIP3    H136341   3.433   6.270   0.742 -0.7424  0.7199 -1.3382
 4950TIP3    H236342   3.541   6.375   0.751  0.9142 -1.0702  0.6279
 4951TIP3   OH236343   2.530   2.647   2.715  0.1713 -0.8584  0.1588
 4951TIP3    H136344   2.492   2.574   2.763 -1.0378 -1.2674 -1.3466
 4951TIP3    H236345   2.598   2.681   2.773 -1.0869 -1.4311  2.0650
 4952TIP3   OH236346   0.026   5.624   0.615  0.5586 -0.4807  0.1897
 4952TIP3    H136347   0.001   5.709   0.579 -1.0012 -0.6021  0.8820
 4952TIP3    H236348  -0.004   5.560   0.551 -1.4986 -0.6524  1.2224
 4953TIP3   OH236349   2.630   3.284  12.320  0.0806  0.4952  0.2571
 4953TIP3    H136350   2.707   3.251  12.274 -0.7244 -0.4093 -0.4941
 4953TIP3    H236351   2.572   3.316  12.251 -0.4166  0.7344  0.7744
 4954TIP3   OH236352   0.335   4.174   1.188 -0.1918  0.2100  0.0667
 4954TIP3    H136353   0.418   4.127   1.191 -1.0135 -1.3112  0.2649
 4954TIP3    H236354   0.283   4.127   1.122  0.2820  3.2792 -2.7405
 4955TIP3   OH236355   0.237   2.501  14.071 -0.1144 -0.3424 -0.2805
 4955TIP3    H136356   0.256   2.495  14.165  0.3071 -0.8835 -0.3930
 4955TIP3    H236357   0.170   2.434  14.056  0.0788 -0.5017 -0.4320
 4956TIP3   OH236358   0.341   4.983  12.856 -0.0035 -0.2744  0.4695
 4956TIP3    H136359   0.386   4.902  12.879  1.8222  0.5409 -0.1052
 4956TIP3    H236360   0.342   5.034  12.937 -1.9210 -1.0963  1.0835
 4957TIP3   OH236361   5.563   4.338   2.022  0.1174  0.1931 -0.4320
 4957TIP3    H136362   5.596   4.250   2.036  0.2922  0.1678 -0.9744
 4957TIP3    H236363   5.487   4.327   1.966 -1.0020  0.2292  1.0262
 4958TIP3   OH236364   6.078   4.657  11.842 -0.0565  0.7185 -0.1885
 4958TIP3    H136365   5.998   4.709  11.838 -0.6771 -0.1654  0.3273
 4958TIP3    H236366   6.099   4.652  11.935 -1.7472 -2.4459  0.1714
 4959TIP3   OH236367   4.613   3.203  12.362 -0.3177 -0.2879  0.2264
 4959TIP3    H136368   4.530   3.248  12.376 -0.5667  0.3816 -2.7479
 4959TIP3    H236369   4.589   3.111  12.352 -0.5385 -0.2666  0.5444
 4960TIP3   OH236370   3.596   6.119   2.890  0.1320 -0.8040 -0.8783
 4960TIP3    H136371   3.525   6.151   2.946  1.3550 -1.8755  1.3904
 4960TIP3    H236372   3.574   6.028   2.873  1.6869 -1.6445  1.2231
 4961TIP3   OH236373   4.537   0.374  11.207 -0.8142  0.0518  0.1558
 4961TIP3    H136374   4.475   0.443  11.230  0.0334  1.6470 -2.0226
 4961TIP3    H236375   4.623   0.414  11.218 -0.3125 -0.3865 -1.8203
 4962TIP3   OH236376   3.422   0.362   4.827 -0.7225 -0.0084 -0.3286
 4962TIP3    H136377   3.511   0.396   4.814 -1.2262  1.0554 -1.1769
 4962TIP3    H236378   3.434   0.284   4.881  0.7258  0.1127 -0.4272
 4963TIP3   OH236379   4.441   5.300  10.960 -0.3331 -0.5470  0.1362
 4963TIP3    H136380   4.363   5.332  10.915 -0.6458 -1.3161  0.1086
 4963TIP3    H236381   4.489   5.379  10.985 -1.2169 -0.0604  0.3297
 4964TIP3   OH236382   0.307   1.878   1.045 -0.1556  0.1154  0.6436
 4964TIP3    H136383   0.301   1.868   1.140 -0.6117 -1.2554  0.5018
 4964TIP3    H236384   0.308   1.973   1.030 -1.3207  0.3694  1.9548
 4965TIP3   OH236385   2.336   1.233  15.211 -0.3365 -0.0916 -0.2600
 4965TIP3    H136386   2.340   1.248  15.117 -0.4131  1.3350 -0.0623
 4965TIP3    H236387   2.321   1.320  15.249 -1.2567 -0.7632  1.0105
 4966TIP3   OH236388   5.809   5.942   5.618 -0.2543 -0.5965 -0.6500
 4966TIP3    H136389   5.853   6.011   5.569  1.4132 -1.5080 -0.4960
 4966TIP3    H236390   5.804   5.975   5.707  3.4239 -1.8117  0.1743
 4967TIP3   OH236391   2.674   4.152   3.242 -0.0823 -0.1190  0.2012
 4967TIP3    H136392   2.712   4.230   3.283  1.1628 -0.5298 -0.1395
 4967TIP3    H236393   2.600   4.129   3.298  0.4012  0.4769  1.1037
 4968TIP3   OH236394   0.692   0.866  16.322 -0.6362 -0.6492 -0.0371
 4968TIP3    H136395   0.662   0.820  16.243  1.3851 -0.2491 -1.1361
 4968TIP3    H236396   0.773   0.910  16.294 -0.9251  1.1707  1.7553
 4969TIP3   OH236397   2.243   1.030   0.812 -0.4845  0.0572  0.4264
 4969TIP3    H136398   2.274   0.960   0.869 -2.2504 -0.6029  0.6715
 4969TIP3    H236399   2.290   1.017   0.730 -1.4749 -2.1162  0.1128
 4970TIP3   OH236400   4.062   3.245  11.995 -0.3018 -0.6235 -0.4800
 4970TIP3    H136401   3.979   3.259  12.041  1.3269  2.2568  1.9707
 4970TIP3    H236402   4.110   3.183  12.049 -0.0839 -0.7234 -0.7842
 4971TIP3   OH236403   1.064   0.969   0.051 -0.4485  0.3486  0.0729
 4971TIP3    H136404   1.011   1.017  -0.013  0.3997 -0.1828 -1.0551
 4971TIP3    H236405   1.154   0.988   0.027 -0.1019 -0.9315  0.2768
 4972TIP3   OH236406   6.091   0.241   1.029 -0.0630  0.1301 -0.9718
 4972TIP3    H136407   6.111   0.152   1.000 -0.6821 -0.2325 -0.3114
 4972TIP3    H236408   6.004   0.260   0.994 -0.7266 -0.2334  0.4107
 4973TIP3   OH236409   6.833   5.181  12.678 -0.4014  0.9381  0.2162
 4973TIP3    H136410   6.770   5.185  12.606  0.4810  3.2232 -0.5190
 4973TIP3    H236411   6.917   5.165  12.635 -0.3032 -1.2350  1.1151
 4974TIP3   OH236412   0.724   6.456   2.892 -0.1978  0.0016  0.1674
 4974TIP3    H136413   0.795   6.413   2.845 -0.2827 -1.0526  0.9755
 4974TIP3    H236414   0.652   6.459   2.829  0.3451  0.4737 -0.4374
 4975TIP3   OH236415   2.137   5.015  14.066 -0.1793  0.1025  0.1881
 4975TIP3    H136416   2.100   5.098  14.097 -0.5995 -0.0411  0.0707
 4975TIP3    H236417   2.063   4.955  14.062  0.3738 -0.7899  1.9172
 4976TIP3   OH236418   3.252   1.969  15.193  0.1644 -0.5904 -0.4068
 4976TIP3    H136419   3.217   2.044  15.242  1.0140  0.3358 -1.1800
 4976TIP3    H236420   3.301   1.919  15.259 -0.5719 -0.5917  0.1591
 4977TIP3   OH236421   2.016   5.851   4.872 -0.0421 -0.5050 -0.0117
 4977TIP3    H136422   2.061   5.788   4.816 -1.2903 -0.2923 -1.3151
 4977TIP3    H236423   1.933   5.808   4.894 -1.0862  0.7801 -1.2402
 4978TIP3   OH236424   5.910   5.410  11.047  0.1044  0.6423  0.3005
 4978TIP3    H136425   5.960   5.341  11.092 -0.9936 -0.2327  0.2204
 4978TIP3    H236426   5.964   5.488  11.055  2.0536 -0.5088 -0.7566
 4979TIP3   OH236427   6.345   6.631  14.711  0.4184 -0.2198 -0.5224
 4979TIP3    H136428   6.348   6.598  14.801  1.5216  2.3895  0.4781
 4979TIP3    H236429   6.437   6.645  14.688  0.0362  2.4534 -0.6798
 4980TIP3   OH236430   3.985   5.409   2.944  0.2256  0.5601  0.4129
 4980TIP3    H136431   3.998   5.504   2.943  1.7621  0.3723  0.3559
 4980TIP3    H236432   4.065   5.374   2.983 -0.2255 -0.7308  0.2400
 4981TIP3   OH236433   2.342   3.092   2.922  0.3402 -0.6714  0.6147
 4981TIP3    H136434   2.427   3.134   2.937 -0.5664  1.1359  0.8524
 4981TIP3    H236435   2.350   3.052   2.835  0.4370  2.1640 -0.7750
 4982TIP3   OH236436   4.115   1.635  16.379  0.1800 -0.3077  0.0180
 4982TIP3    H136437   4.038   1.628  16.323 -0.0294  0.9524  0.1148
 4982TIP3    H236438   4.130   1.729  16.387  2.3532 -0.5177 -0.8549
 4983TIP3   OH236439   0.459   0.089  14.575  0.4452  0.0992 -0.3905
 4983TIP3    H136440   0.530   0.036  14.612 -0.7192 -0.8689  0.5164
 4983TIP3    H236441   0.408   0.027  14.523  0.5293  0.9043 -1.4887
 4984TIP3   OH236442   6.329   2.328  12.782 -0.0812  0.4100  0.1855
 4984TIP3    H136443   6.300   2.251  12.831  0.0128 -0.7104 -1.4303
 4984TIP3    H236444   6.386   2.292  12.714 -0.1770  1.9009 -0.7090
 4985TIP3   OH236445   1.335   6.594   0.373 -0.0246  0.1261 -0.1366
 4985TIP3    H136446   1.249   6.636   0.373  0.0040  0.2795  1.9233
 4985TIP3    H236447   1.320   6.509   0.332 -1.2570 -0.0013  0.5247
 4986TIP3   OH236448   1.817   6.513   5.621  0.1940 -0.2001 -1.0144
 4986TIP3    H136449   1.799   6.555   5.705 -0.5666 -2.1574 -0.1488
 4986TIP3    H236450   1.749   6.547   5.563 -0.3396 -0.1349 -0.3647
 4987TIP3   OH236451   0.506   3.625  16.246  0.1131  0.5058  0.3690
 4987TIP3    H136452   0.601   3.637  16.250 -0.1615  3.0653  1.7395
 4987TIP3    H236453   0.472   3.713  16.230 -2.0665 -0.2033  0.7956
 4988TIP3   OH236454   0.000   1.510  14.479  0.1260 -0.4440  0.0588
 4988TIP3    H136455  -0.035   1.584  14.429 -1.8317  0.4277  2.5512
 4988TIP3    H236456   0.068   1.548  14.535 -0.4254 -0.6555  0.8758
 4989TIP3   OH236457   1.214   3.194  16.367 -0.8414 -0.3645 -0.3995
 4989TIP3    H136458   1.305   3.178  16.340 -2.0537 -0.9585 -4.8936
 4989TIP3    H236459   1.206   3.290  16.366 -0.9275 -0.3276 -3.1251
 4990TIP3   OH236460   4.424   5.417  16.012  0.0183 -0.5425 -0.6448
 4990TIP3    H136461   4.407   5.383  16.100 -0.3096  2.5538  0.6076
 4990TIP3    H236462   4.499   5.367  15.981  0.3165 -1.5279  1.4916
 4991TIP3   OH236463   4.019   6.658   4.531 -0.3664 -0.1201  0.2297
 4991TIP3    H136464   3.983   6.657   4.619 -0.7774  2.1025  0.1433
 4991TIP3    H236465   4.049   6.568   4.516  0.9152 -0.2677  3.0972
 4992TIP3   OH236466   4.998   5.207  12.094 -0.4774 -0.0839 -0.3144
 4992TIP3    H136467   5.053   5.184  12.020  0.0350 -0.2102  0.1015
 4992TIP3    H236468   4.932   5.267  12.058 -0.3559 -0.3049 -0.9050
 4993TIP3   OH236469   2.425   2.585  11.645 -0.0573 -0.7075 -0.8488
 4993TIP3    H136470   2.487   2.515  11.626  0.7944 -0.3579  0.5371
 4993TIP3    H236471   2.479   2.661  11.666 -0.8776 -0.7171  1.5972
 4994TIP3   OH236472   6.650   1.007  16.331 -0.5052 -0.5298  0.5124
 4994TIP3    H136473   6.572   1.052  16.300 -0.4052 -1.6904 -1.6833
 4994TIP3    H236474   6.704   1.075  16.369 -1.4280  0.7783 -0.4241
 4995TIP3   OH236475   6.294   3.535  11.533 -0.8686 -0.5296  0.7978
 4995TIP3    H136476   6.212   3.538  11.581 -0.7172  0.0233  1.0391
 4995TIP3    H236477   6.315   3.627  11.517  0.2853 -0.6015  1.7603
 4996TIP3   OH236478   5.504   2.143   5.220 -0.4205 -0.2786 -0.6965
 4996TIP3    H136479   5.460   2.221   5.186 -0.4529  1.2073  2.4489
 4996TIP3    H236480   5.440   2.104   5.279  0.4857 -1.2907 -0.3635
 4997TIP3   OH236481   5.058   4.658  15.339  0.0224 -0.1135  0.5080
 4997TIP3    H136482   5.142   4.703  15.328  0.9131 -1.8225  0.0033
 4997TIP3    H236483   4.994   4.728  15.347  1.4895  1.2358  0.8474
 4998TIP3   OH236484   0.677   1.742   4.337  0.1033 -0.4544  0.5022
 4998TIP3    H136485   0.638   1.656   4.325  1.2194 -0.9502  0.2742
 4998TIP3    H236486   0.746   1.728   4.401 -0.0364  0.3774  0.8396
 4999TIP3   OH236487   2.427   2.579   5.263  0.4967  0.6269  0.5136
 4999TIP3    H136488   2.461   2.493   5.288  0.4488  0.2524 -0.6445
 4999TIP3    H236489   2.398   2.568   5.173 -0.4672  1.5982  0.6862
 5000TIP3   OH236490   2.631   3.478  15.864  0.1586 -0.1805 -0.3944
 5000TIP3    H136491   2.691   3.552  15.876  0.2608 -0.4930  1.2168
 5000TIP3    H236492   2.686   3.407  15.832  0.5304 -0.2533  0.3878
 5001TIP3   OH236493   2.452   1.969  16.859  0.4657 -0.0065 -0.0719
 5001TIP3    H136494   2.518   1.982  16.926  1.5411 -1.4000 -0.7955
 5001TIP3    H236495   2.411   1.885  16.881 -0.9616  0.7464  0.2620
 5002TIP3   OH236496   0.571   0.699   3.670 -0.3105 -0.7269  0.6231
 5002TIP3    H136497   0.479   0.723   3.656 -0.9474 -1.7816  2.5980
 5002TIP3    H236498   0.620   0.780   3.654 -1.7414  0.2621  1.0549
 5003TIP3   OH236499   2.802   4.885   3.632  0.0587  0.4025 -0.3980
 5003TIP3    H136500   2.757   4.910   3.551 -0.2339  0.2052 -0.2990
 5003TIP3    H236501   2.858   4.812   3.607 -2.0146 -1.4695  0.0903
 5004TIP3   OH236502   0.713   1.301  11.637 -0.3721 -0.6071  0.3324
 5004TIP3    H136503   0.789   1.347  11.601 -0.5817 -1.6312 -1.5723
 5004TIP3    H236504   0.682   1.246  11.565 -0.9927 -2.6338  2.0435
 5005TIP3   OH236505   4.471   1.859  15.489  0.6603 -0.1599  0.3862
 5005TIP3    H136506   4.524   1.821  15.419  0.8363 -0.6124  0.7646
 5005TIP3    H236507   4.524   1.848  15.568 -0.6557 -2.0488  1.0577
 5006TIP3   OH236508   2.343   4.262   0.251  0.0574 -0.6580  0.3226
 5006TIP3    H136509   2.271   4.207   0.219  0.0157 -1.1652  1.2658
 5006TIP3    H236510   2.415   4.243   0.191 -0.5197 -0.3234 -0.4889
 5007TIP3   OH236511   3.732   6.552  14.041  0.2516  0.8287  0.1923
 5007TIP3    H136512   3.669   6.624  14.035  0.6665  1.1570 -0.2619
 5007TIP3    H236513   3.768   6.544  13.952  1.0896  0.8609  0.5211
 5008TIP3   OH236514   1.169   1.909   4.739 -0.5291  0.0894 -0.6087
 5008TIP3    H136515   1.121   1.827   4.753  0.1090 -0.3100 -0.7399
 5008TIP3    H236516   1.260   1.887   4.759 -0.4243  0.8915 -0.1772
 5009TIP3   OH236517   2.307   1.736  16.021  0.7356 -0.4621  0.0889
 5009TIP3    H136518   2.272   1.670  16.081 -0.5021 -0.8584 -1.0198
 5009TIP3    H236519   2.351   1.686  15.953 -0.2501 -0.1834 -0.7840
 5010TIP3   OH236520   1.662   1.485  11.504  0.0148  0.4174 -0.3623
 5010TIP3    H136521   1.604   1.515  11.573  0.0950  0.4489 -0.3086
 5010TIP3    H236522   1.732   1.438  11.550  0.0614  0.4281 -0.4220
 5011TIP3   OH236523   0.352   5.536  13.795  0.1299 -0.3817 -0.4482
 5011TIP3    H136524   0.344   5.453  13.842 -1.4077 -0.2468 -0.4442
 5011TIP3    H236525   0.363   5.602  13.864 -1.3334 -0.2819 -0.2782
 5012TIP3   OH236526   0.477   5.134   5.079  0.6897  0.0447  0.1112
 5012TIP3    H136527   0.559   5.123   5.032 -0.1871 -2.4495 -1.0262
 5012TIP3    H236528   0.446   5.221   5.055  3.0370  1.1347  0.7565
 5013TIP3   OH236529   2.484   3.622  14.750  0.9262 -0.2796  0.2294
 5013TIP3    H136530   2.490   3.705  14.797  1.0169 -0.1628  0.0174
 5013TIP3    H236531   2.546   3.632  14.677  0.9905 -0.5611  0.2453
 5014TIP3   OH236532   5.450   4.064  13.456 -0.2929 -0.1144  0.2988
 5014TIP3    H136533   5.407   4.016  13.526  0.1297 -0.1966  0.5069
 5014TIP3    H236534   5.544   4.050  13.471 -0.1528  0.8952  0.4540
 5015TIP3   OH236535   0.934   6.354   2.522 -0.0310  0.3581 -0.0771
 5015TIP3    H136536   0.967   6.443   2.529  0.2274  0.3280 -0.8108
 5015TIP3    H236537   0.945   6.317   2.610  2.5821  0.1080 -0.4210
 5016TIP3   OH236538   5.564   0.528   5.037  0.0340  0.1028 -0.1246
 5016TIP3    H136539   5.511   0.589   5.087  2.6651  0.1043  2.9483
 5016TIP3    H236540   5.601   0.581   4.966 -0.2689  1.2385  0.5449
 5017TIP3   OH236541   5.078   3.065  16.632 -0.3969 -0.0883  0.0865
 5017TIP3    H136542   5.088   3.052  16.727 -0.7987  0.3493  0.1941
 5017TIP3    H236543   5.088   2.977  16.595 -0.0244 -0.2310  0.5155
 5018TIP3   OH236544   6.238   4.624  15.098 -0.5782  0.4283 -0.2345
 5018TIP3    H136545   6.221   4.551  15.039 -0.9653  0.7627 -0.5471
 5018TIP3    H236546   6.227   4.588  15.186  0.0547 -0.0885 -0.3574
 5019TIP3   OH236547   3.258   6.183   0.428 -0.5102 -0.1350  0.0628
 5019TIP3    H136548   3.234   6.211   0.516 -0.7452 -1.5173  0.4582
 5019TIP3    H236549   3.318   6.110   0.441  0.7285  0.6547 -0.9326
 5020TIP3   OH236550   3.170   3.276   1.644 -0.0758  0.6133  0.4413
 5020TIP3    H136551   3.232   3.330   1.593  1.9577 -0.1403  1.9866
 5020TIP3    H236552   3.156   3.326   1.725 -0.2468  0.0384  0.7694
 5021TIP3   OH236553   3.114   4.356   2.566 -0.5227 -0.2900 -0.0391
 5021TIP3    H136554   3.055   4.414   2.614  1.2186  1.2467  0.3929
 5021TIP3    H236555   3.123   4.397   2.480  0.5142 -0.0135  0.1785
 5022TIP3   OH236556   3.219   4.514   1.390  0.0401  0.2355 -0.3508
 5022TIP3    H136557   3.260   4.583   1.443 -0.4751  0.6083 -0.4277
 5022TIP3    H236558   3.130   4.546   1.374 -0.2090 -0.4514 -0.3821
 5023TIP3   OH236559   3.469   2.083   0.127  0.2055  0.3914  0.2755
 5023TIP3    H136560   3.455   2.170   0.165  0.6431  0.8456 -0.5918
 5023TIP3    H236561   3.545   2.048   0.173 -0.3499  0.1964  1.0713
 5024TIP3   OH236562   1.232   5.841   2.141  0.0788 -0.3269  0.4309
 5024TIP3    H136563   1.246   5.929   2.104 -0.3339 -1.0781 -1.6189
 5024TIP3    H236564   1.138   5.828   2.138 -0.1733  0.1407  3.2677
 5025TIP3   OH236565   1.225   4.055  11.710 -0.0693  0.3262  0.0146
 5025TIP3    H136566   1.210   3.967  11.745  0.4688  0.2854  0.1527
 5025TIP3    H236567   1.239   4.041  11.616  0.0698  0.2563  0.0448
 5026TIP3   OH236568   2.891   3.234   6.469 -0.3663 -0.2374  0.1458
 5026TIP3    H136569   2.890   3.302   6.402  1.6353 -1.1734 -0.9111
 5026TIP3    H236570   2.979   3.197   6.466 -0.8874 -1.8113  1.7836
 5027TIP3   OH236571   2.428   0.790  16.466  0.3203 -0.0714 -0.1037
 5027TIP3    H136572   2.396   0.828  16.548  2.3185 -0.1753  0.7709
 5027TIP3    H236573   2.452   0.866  16.412 -0.2861 -0.0274 -0.3304
 5028TIP3   OH236574   3.803   0.340   3.674 -0.0552  0.2444  0.0922
 5028TIP3    H136575   3.854   0.261   3.692 -0.8769 -0.0501  1.2448
 5028TIP3    H236576   3.838   0.373   3.592  0.4815 -1.1734 -0.2739
 5029TIP3   OH236577   6.073   0.905   0.142 -0.0348 -0.1246 -1.2536
 5029TIP3    H136578   6.063   0.971   0.073 -0.8252 -0.0156 -1.0362
 5029TIP3    H236579   5.990   0.906   0.189  1.3958  1.7680  1.4597
 5030TIP3   OH236580   3.392   0.458  15.816  0.1645 -0.6890 -0.5484
 5030TIP3    H136581   3.429   0.415  15.893  2.2421  1.3062 -0.3219
 5030TIP3    H236582   3.417   0.550  15.826 -2.7041  0.3482 -1.7713
 5031TIP3   OH236583   4.739   1.826  11.531  0.0740  0.0726  0.1925
 5031TIP3    H136584   4.682   1.894  11.567 -0.1115 -0.3645  0.7417
 5031TIP3    H236585   4.700   1.805  11.446 -0.2132  0.2287  0.2823
 5032TIP3   OH236586   4.537   6.793  12.980 -0.1802 -0.3613 -0.8616
 5032TIP3    H136587   4.456   6.827  12.942 -1.5160  0.6614  2.4794
 5032TIP3    H236588   4.598   6.866  12.974 -0.9983  0.4941  0.5208
 5033TIP3   OH236589   1.931   3.809   3.589 -0.1855 -0.3092  0.4143
 5033TIP3    H136590   1.933   3.839   3.680 -2.4088  0.5784  0.2401
 5033TIP3    H236591   1.850   3.846   3.554 -0.0517 -1.7526 -1.5549
 5034TIP3   OH236592   4.222   5.274   2.130 -0.2028 -0.2666 -0.6987
 5034TIP3    H136593   4.252   5.303   2.043  0.7594  0.7077 -0.0620
 5034TIP3    H236594   4.163   5.344   2.159 -1.3502 -1.0878 -0.9799
 5035TIP3   OH236595   5.803   1.795  17.122 -0.2361  0.3926  0.5146
 5035TIP3    H136596   5.889   1.756  17.114 -0.7766 -0.5533 -1.0147
 5035TIP3    H236597   5.817   1.889  17.108  0.4231  0.1324 -0.6539
 5036TIP3   OH236598   2.751   0.846   6.560  0.5817  0.5369  0.1795
 5036TIP3    H136599   2.780   0.922   6.510 -0.5116  2.1806  1.8875
 5036TIP3    H236600   2.729   0.781   6.494  0.0788  2.2613 -1.4495
 5037TIP3   OH236601   0.320   2.954  10.789 -0.4431  0.2160  0.3599
 5037TIP3    H136602   0.276   2.969  10.706 -0.0220  2.8280  0.5363
 5037TIP3    H236603   0.404   2.916  10.765 -0.4606  0.6361 -0.4033
 5038TIP3   OH236604   4.774   1.979   4.641  0.3337 -0.0527  0.5161
 5038TIP3    H136605   4.815   1.901   4.604  1.2071  0.1475  1.0433
 5038TIP3    H236606   4.685   1.951   4.664  0.4034 -0.6840  0.0279
 5039TIP3   OH236607   2.337   2.634  10.777  0.2998 -0.6053 -0.2777
 5039TIP3    H136608   2.297   2.558  10.818 -1.3211  0.6483  0.5801
 5039TIP3    H236609   2.401   2.665  10.840  0.8077 -1.1142 -0.5360
 5040TIP3   OH236610   5.518   6.437   5.188 -1.0882  0.8684 -0.2807
 5040TIP3    H136611   5.583   6.496   5.225  0.0865 -1.2442  1.2323
 5040TIP3    H236612   5.565   6.391   5.118  0.5379 -3.3224  3.1133
 5041TIP3   OH236613   5.623   1.075   2.061 -0.1250 -0.3835 -0.0457
 5041TIP3    H136614   5.640   1.157   2.109 -2.6125  0.1694  0.0467
 5041TIP3    H236615   5.621   1.101   1.969 -0.3111 -0.4517 -0.0617
 5042TIP3   OH236616   2.489   2.905  11.695  0.1992  0.4242  0.3857
 5042TIP3    H136617   2.512   2.974  11.758  0.6624 -0.1218  0.8258
 5042TIP3    H236618   2.403   2.875  11.724  0.6756 -0.2493  1.1502
 5043TIP3   OH236619   0.957   4.023  11.033  0.6928 -0.1675  0.2155
 5043TIP3    H136620   0.934   4.013  10.941  0.6110  0.3544  0.1757
 5043TIP3    H236621   0.876   4.002  11.080  1.0979 -1.7898  0.2454
 5044TIP3   OH236622   4.074   4.312  15.072  0.1127 -0.1813  0.0056
 5044TIP3    H136623   4.079   4.298  14.977 -0.6784  2.1081 -0.4278
 5044TIP3    H236624   4.104   4.402  15.084  0.4683 -0.5347  1.9860
 5045TIP3   OH236625   1.028   1.871  16.990 -0.4789 -0.0610 -0.3685
 5045TIP3    H136626   1.079   1.826  17.056 -2.0799  1.9547  2.4645
 5045TIP3    H236627   1.092   1.923  16.941  0.7070 -1.3414 -0.2356
 5046TIP3   OH236628   1.948   3.362   5.263  0.1606 -0.3138  0.0931
 5046TIP3    H136629   1.934   3.284   5.210  0.6873  0.0107 -0.5418
 5046TIP3    H236630   1.861   3.402   5.271 -0.0215 -0.6858 -0.0231
 5047TIP3   OH236631   3.757   0.131  13.130  0.2036  0.1695  0.1720
 5047TIP3    H136632   3.810   0.112  13.052  0.2131  0.8282  0.0078
 5047TIP3    H236633   3.671   0.155  13.095 -0.1556 -0.7160  0.4291
 5048TIP3   OH236634   1.647   1.931   2.495 -0.4137 -0.4566 -0.1493
 5048TIP3    H136635   1.730   1.958   2.457  0.0226 -0.2612  0.8941
 5048TIP3    H236636   1.669   1.857   2.552 -1.2612 -1.6333 -1.2998
 5049TIP3   OH236637   4.345   4.249  12.041 -0.1340 -0.4393  0.3197
 5049TIP3    H136638   4.291   4.174  12.017 -0.8019  0.4401 -1.0932
 5049TIP3    H236639   4.304   4.283  12.121 -1.1039 -0.3911 -0.1698
 5050TIP3   OH236640   0.998   2.850  15.346  0.2712 -0.0607 -0.1377
 5050TIP3    H136641   1.065   2.905  15.387  1.0127 -0.8136 -0.3016
 5050TIP3    H236642   1.046   2.772  15.316 -0.7417 -0.7975  0.0892
 5051TIP3   OH236643   0.301   0.859   1.399 -0.3123 -0.1175 -0.0039
 5051TIP3    H136644   0.210   0.870   1.426 -0.8139 -1.3744 -1.0336
 5051TIP3    H236645   0.334   0.947   1.384 -1.3029  0.3552  0.5566
 5052TIP3   OH236646   4.509   5.041  12.536 -0.5062  0.5345 -0.5358
 5052TIP3    H136647   4.461   5.057  12.617  0.5098 -0.0028  0.1949
 5052TIP3    H236648   4.598   5.020  12.565 -0.2387 -0.1071 -1.7660
 5053TIP3   OH236649   1.290   3.944  16.977  0.2265  0.4068  0.3175
 5053TIP3    H136650   1.352   3.879  17.011 -0.8636  0.6626  3.0311
 5053TIP3    H236651   1.204   3.904  16.990 -0.3233  1.0912 -1.0506
 5054TIP3   OH236652   6.621   2.993   5.486  0.1381  0.2118 -0.0198
 5054TIP3    H136653   6.606   3.069   5.430  0.5121  1.5144  1.5625
 5054TIP3    H236654   6.560   3.004   5.559  0.5074 -0.7592  0.4606
 5055TIP3   OH236655   0.056   5.845  16.741 -0.8516 -0.3258  0.0680
 5055TIP3    H136656   0.099   5.835  16.656 -0.7257  0.3104  0.0534
 5055TIP3    H236657  -0.026   5.891  16.721 -1.8133 -1.9952  0.0233
 5056TIP3   OH236658   5.537   3.550  13.458 -0.3822  0.3404  0.0630
 5056TIP3    H136659   5.505   3.572  13.371  1.1235  2.2991 -0.0645
 5056TIP3    H236660   5.580   3.465  13.447  0.4882  0.9257 -1.3095
 5057TIP3   OH236661   6.368   0.720   4.876 -1.1096  0.1830  0.0127
 5057TIP3    H136662   6.434   0.653   4.858 -0.1415  0.6197  1.7591
 5057TIP3    H236663   6.415   0.787   4.925 -2.9592  0.2495  1.8055
 5058TIP3   OH236664   1.460   4.126  11.834 -0.2388 -0.1904 -0.0023
 5058TIP3    H136665   1.382   4.123  11.779 -0.8305 -1.0296  0.8437
 5058TIP3    H236666   1.443   4.062  11.903  2.2126 -2.1759 -1.1064
 5059TIP3   OH236667   0.433   1.828  14.200  0.2495  0.0013  0.0766
 5059TIP3    H136668   0.431   1.734  14.219  0.9267  0.3036  1.8023
 5059TIP3    H236669   0.521   1.856  14.227 -0.3295  1.3359  0.6781
 5060TIP3   OH236670   4.245   3.492  16.704 -0.1879  0.7471 -0.4192
 5060TIP3    H136671   4.238   3.561  16.639  2.6995  1.7541  0.2277
 5060TIP3    H236672   4.222   3.535  16.787 -0.3679  0.3742 -0.2711
 5061TIP3   OH236673   5.555   4.053  13.065  0.3490 -0.4930 -0.2700
 5061TIP3    H136674   5.632   4.037  13.119  0.8029  0.4057 -0.6307
 5061TIP3    H236675   5.532   3.967  13.030  1.3193 -0.7355 -0.3310
 5062TIP3   OH236676   2.316   4.065  12.412  0.4859  0.1298  0.3296
 5062TIP3    H136677   2.275   4.124  12.350  0.5902  1.1249  1.1805
 5062TIP3    H236678   2.250   4.052  12.480  1.0016  0.4629  0.8981
 5063TIP3   OH236679   4.892   0.603   4.127 -0.0376 -0.2781  0.0714
 5063TIP3    H136680   4.916   0.528   4.181  1.9887 -0.3581 -0.8176
 5063TIP3    H236681   4.943   0.675   4.163 -0.4419  0.1955 -0.2995
 5064TIP3   OH236682   1.530   0.629  13.484  0.6199 -0.7785  0.4968
 5064TIP3    H136683   1.443   0.592  13.498 -0.4069  1.0109 -0.7555
 5064TIP3    H236684   1.514   0.717  13.451  2.8638 -1.0188 -1.5196
 5065TIP3   OH236685   2.839   2.313   5.790 -0.4143 -0.1098  0.1129
 5065TIP3    H136686   2.770   2.246   5.797 -0.7519  0.2676  0.5014
 5065TIP3    H236687   2.873   2.321   5.880 -0.4769  0.3408  0.0974
 5066TIP3   OH236688   4.716   0.992   0.317 -0.9032 -0.0819  0.2638
 5066TIP3    H136689   4.717   0.897   0.323  0.1869 -0.0604  0.6281
 5066TIP3    H236690   4.710   1.022   0.408  0.7775  0.1844  0.3298
 5067TIP3   OH236691   2.896   1.285   2.354 -0.0752 -0.5557 -0.5126
 5067TIP3    H136692   2.947   1.293   2.435 -0.5748 -2.1262  0.0009
 5067TIP3    H236693   2.962   1.269   2.286  0.2330 -1.2495 -0.0698
 5068TIP3   OH236694   2.702   6.530  13.821 -0.1400  0.4734  0.2544
 5068TIP3    H136695   2.750   6.447  13.818 -0.4611  0.3083 -2.0597
 5068TIP3    H236696   2.653   6.526  13.903  0.3839 -1.3255  0.5257
 5069TIP3   OH236697   4.933   3.352   4.566 -0.2160 -0.5088  0.3059
 5069TIP3    H136698   4.940   3.292   4.492 -1.5913  0.0956 -0.3539
 5069TIP3    H236699   4.863   3.316   4.620 -0.3765 -0.0464  0.4169
 5070TIP3   OH236700   5.173   4.215  13.825 -0.0856 -0.4093  0.0721
 5070TIP3    H136701   5.188   4.309  13.821 -0.8865 -0.1722  1.8019
 5070TIP3    H236702   5.255   4.176  13.792  1.2216  0.8838  1.6420
 5071TIP3   OH236703   6.242   6.344  15.388 -1.0243  0.2352  0.4922
 5071TIP3    H136704   6.309   6.325  15.322 -0.9298  1.2877  0.2770
 5071TIP3    H236705   6.289   6.390  15.458 -1.3210  0.0172  0.8433
 5072TIP3   OH236706   5.156   5.633  15.248  0.1091  0.0208 -0.3097
 5072TIP3    H136707   5.170   5.700  15.181 -1.8420  0.1784 -0.6089
 5072TIP3    H236708   5.245   5.605  15.272  0.9329  1.8347 -1.0279
 5073TIP3   OH236709   2.975   4.127  14.241  0.2757  0.5357 -0.0259
 5073TIP3    H136710   2.970   4.093  14.331 -0.1101  2.4585  0.7272
 5073TIP3    H236711   2.915   4.072  14.192  0.8824 -0.9010  0.7482
 5074TIP3   OH236712   5.347   1.349  16.787 -0.6409 -0.2530  0.5170
 5074TIP3    H136713   5.270   1.399  16.813 -1.1880 -0.5852 -0.4076
 5074TIP3    H236714   5.312   1.274  16.738  0.2948 -0.0460 -0.5094
 5075TIP3   OH236715   4.021   6.556   6.193 -0.0836  0.7110  0.0401
 5075TIP3    H136716   4.079   6.505   6.250 -0.0649 -1.9067 -2.1351
 5075TIP3    H236717   3.943   6.502   6.183  0.0311  0.8946 -2.5672
 5076TIP3   OH236718   6.775   1.201  16.573 -0.5278  0.5123 -0.3061
 5076TIP3    H136719   6.843   1.268  16.581  0.7052 -0.9297  2.3021
 5076TIP3    H236720   6.705   1.230  16.632  0.2764 -0.7103  1.3195
 5077TIP3   OH236721   0.082   6.415   1.985 -0.4920 -0.1092 -0.5180
 5077TIP3    H136722   0.090   6.500   1.942  1.0145  1.0792  1.9013
 5077TIP3    H236723   0.021   6.430   2.057  0.4576 -0.7714  0.4737
 5078TIP3   OH236724   5.071   5.014   0.632 -0.2509  0.7144 -0.4158
 5078TIP3    H136725   5.133   4.961   0.581 -0.3895  1.0524 -0.9512
 5078TIP3    H236726   5.087   5.104   0.602  0.4520  1.0717  0.9718
 5079TIP3   OH236727   3.970   0.313  12.566 -0.4027  0.3802 -0.1647
 5079TIP3    H136728   3.974   0.225  12.604  0.3117  0.1385 -0.7834
 5079TIP3    H236729   3.968   0.298  12.471 -1.7899  0.9843 -0.2572
 5080TIP3   OH236730   5.760   0.703   5.907  0.3056  0.1139  1.3100
 5080TIP3    H136731   5.724   0.763   5.842  1.3302 -0.5225  0.1256
 5080TIP3    H236732   5.717   0.619   5.890  0.5702 -0.0518  1.4528
 5081TIP3   OH236733   2.583   2.962  12.936 -0.6192  0.1635  0.2239
 5081TIP3    H136734   2.592   2.932  12.845 -3.5712 -1.9452  0.4810
 5081TIP3    H236735   2.500   3.010  12.937  1.6247  4.5584  0.9344
 5082TIP3   OH236736   5.005   1.022  12.526  0.1102  0.2083  0.5014
 5082TIP3    H136737   4.933   1.075  12.561 -1.4311 -0.8380 -0.9524
 5082TIP3    H236738   5.028   0.962  12.597  1.2758  2.1067  1.8537
 5083TIP3   OH236739   1.127   5.562  16.018 -0.4466  0.3639  0.2048
 5083TIP3    H136740   1.133   5.468  15.999  0.1142 -0.3739  3.4083
 5083TIP3    H236741   1.035   5.576  16.040 -0.1892  0.1163  1.5096
 5084TIP3   OH236742   4.621   2.992   1.212 -0.0508  0.1126 -0.1179
 5084TIP3    H136743   4.674   2.929   1.164 -0.4830 -0.9289  0.7134
 5084TIP3    H236744   4.670   3.008   1.293 -1.2998 -1.4923  1.0388
 5085TIP3   OH236745   1.166   2.723  14.578 -0.0913 -0.7785  0.1183
 5085TIP3    H136746   1.245   2.776  14.575  0.3365 -1.4722 -2.1268
 5085TIP3    H236747   1.172   2.676  14.662  2.4010 -1.5911 -0.4429
 5086TIP3   OH236748   2.355   1.668  12.412 -0.4822  0.1948 -0.3693
 5086TIP3    H136749   2.411   1.742  12.436  0.5043 -0.7077  0.2066
 5086TIP3    H236750   2.399   1.630  12.336 -0.1638 -0.6458  0.2158
 5087TIP3   OH236751   6.408   2.500   4.302  0.0423  0.0391  0.0758
 5087TIP3    H136752   6.501   2.506   4.281 -0.1770 -1.3828 -1.4798
 5087TIP3    H236753   6.403   2.523   4.394  1.8834  0.5036  0.1017
 5088TIP3   OH236754   4.993   0.820   0.083 -0.2805  0.1147 -0.3358
 5088TIP3    H136755   4.916   0.770   0.107  0.9526 -1.4314  0.5812
 5088TIP3    H236756   5.055   0.755   0.051  0.5411  1.3593 -1.4274
 5089TIP3   OH236757   1.720   5.028   2.474 -0.2250  0.3926 -0.4084
 5089TIP3    H136758   1.680   5.116   2.475 -1.4435 -0.1150  1.7403
 5089TIP3    H236759   1.780   5.028   2.548 -0.5759 -0.7207 -0.1038
 5090TIP3   OH236760   2.712   3.349   0.048 -1.0135 -0.4046 -0.0575
 5090TIP3    H136761   2.735   3.439   0.024 -0.0802  0.1346  2.5219
 5090TIP3    H236762   2.741   3.296  -0.026  2.7421  0.9473  0.2608
 5091TIP3   OH236763   5.411   3.013   6.021  0.2589 -0.1814 -0.0826
 5091TIP3    H136764   5.337   2.957   6.045  0.1951  0.0013  0.1538
 5091TIP3    H236765   5.381   3.061   5.945  0.2727 -0.3858 -0.2182
 5092TIP3   OH236766   2.706   1.902  13.096 -0.1437  0.3316  0.1962
 5092TIP3    H136767   2.649   1.920  13.171 -0.2639  0.0695  0.1721
 5092TIP3    H236768   2.678   1.964  13.029 -1.1419 -0.5055 -0.1857
 5093TIP3   OH236769   5.838   3.990  12.948  0.5293 -0.4119 -0.4643
 5093TIP3    H136770   5.788   3.964  13.025 -0.0523  0.7431 -0.4242
 5093TIP3    H236771   5.865   4.080  12.966  0.3641 -0.1094 -1.6119
 5094TIP3   OH236772   6.406   3.675  10.846 -0.0989  0.0771 -0.3298
 5094TIP3    H136773   6.399   3.727  10.927  0.0349 -0.0005 -0.2675
 5094TIP3    H236774   6.317   3.644  10.831 -0.3090  0.8360 -0.7122
 5095TIP3   OH236775   3.526   6.531  15.251 -0.4858  0.5641  0.5434
 5095TIP3    H136776   3.487   6.517  15.164 -0.4469  0.2111  0.5806
 5095TIP3    H236777   3.601   6.588  15.234 -0.3787  0.3572  0.3209
 5096TIP3   OH236778   1.804   1.776  12.633 -0.7567  0.3652  0.6483
 5096TIP3    H136779   1.871   1.739  12.577 -1.7468  2.2138 -1.9805
 5096TIP3    H236780   1.842   1.858  12.667 -1.4164  1.1272 -0.3857
 5097TIP3   OH236781   1.447   2.772   0.879 -0.3147 -0.4585 -0.2290
 5097TIP3    H136782   1.502   2.785   0.956 -2.0155 -0.7063  1.1001
 5097TIP3    H236783   1.479   2.690   0.841  0.8537 -0.0907 -0.0716
 5098TIP3   OH236784   2.725   3.354  15.369 -0.2156 -0.5172 -0.2760
 5098TIP3    H136785   2.638   3.316  15.379 -0.2763 -1.4624 -3.4478
 5098TIP3    H236786   2.780   3.306  15.432 -1.6287 -1.0582  0.5792
 5099TIP3   OH236787   4.712   1.361  15.113  0.5029  0.0750 -0.5403
 5099TIP3    H136788   4.762   1.281  15.126  0.3220 -0.3086 -2.0443
 5099TIP3    H236789   4.703   1.399  15.201  0.9210 -1.3399  0.1303
 5100TIP3   OH236790   4.551   2.311  14.782  0.0845  0.1534  0.1155
 5100TIP3    H136791   4.616   2.358  14.835  1.4145  0.2759 -1.5362
 5100TIP3    H236792   4.568   2.219  14.800  0.8498  0.1790 -0.4356
 5101TIP3   OH236793   3.982   3.946   1.135  0.0950  0.2817 -0.3476
 5101TIP3    H136794   4.006   3.871   1.190  0.7062  1.3485  0.9064
 5101TIP3    H236795   3.942   4.008   1.195 -0.4947  0.9330 -1.3810
 5102TIP3   OH236796   5.352   4.482   0.260 -0.3478 -0.0888  0.6039
 5102TIP3    H136797   5.404   4.506   0.337 -0.9243 -0.9702  1.2837
 5102TIP3    H236798   5.369   4.552   0.197  0.2070  0.5961  1.4908
 5103TIP3   OH236799   5.818   3.282  15.570 -0.3060  0.3208 -0.2541
 5103TIP3    H136800   5.773   3.236  15.641  1.2368 -1.3770 -0.2905
 5103TIP3    H236801   5.909   3.290  15.600 -0.1466  1.7603 -1.0467
 5104TIP3   OH236802   2.555   1.266  11.013  0.7527 -0.2227  0.6659
 5104TIP3    H136803   2.463   1.282  10.996  0.6981 -1.4183 -0.3285
 5104TIP3    H236804   2.580   1.331  11.079  0.0045  2.1800 -1.2759
 5105TIP3   OH236805   2.804   6.108  14.945  0.2862  0.4804  0.9621
 5105TIP3    H136806   2.765   6.086  15.029 -0.9963  1.6543  0.7106
 5105TIP3    H236807   2.887   6.151  14.967  1.1990 -1.4894  1.5231
 5106TIP3   OH236808   5.265   5.565  16.951 -0.2067  0.5010 -0.0846
 5106TIP3    H136809   5.293   5.495  16.892 -0.7187 -0.5757  0.9011
 5106TIP3    H236810   5.248   5.640  16.893  0.5457 -0.1104 -1.1425
 5107TIP3   OH236811   6.184   0.612   4.017  0.1351 -0.0928  0.7574
 5107TIP3    H136812   6.201   0.705   4.034  2.1496  0.0964 -1.6911
 5107TIP3    H236813   6.259   0.567   4.054  0.0828 -0.5511  0.3147
 5108TIP3   OH236814   2.918   6.643   3.474 -0.3033  0.4033 -0.2438
 5108TIP3    H136815   2.868   6.685   3.544 -1.6650  0.3038 -1.1257
 5108TIP3    H236816   3.003   6.623   3.514  0.2473  3.5264  0.3532
 5109TIP3   OH236817   2.971   4.074  15.049  0.2956 -0.0037  0.3858
 5109TIP3    H136818   2.974   4.122  14.967 -0.9927  0.7835  0.7791
 5109TIP3    H236819   2.954   4.140  15.116 -1.1815 -0.9390  0.9888
 5110TIP3   OH236820   1.048   2.850  11.576 -0.3542 -0.1748 -0.4839
 5110TIP3    H136821   1.011   2.886  11.496  0.1446 -1.4808 -1.3406
 5110TIP3    H236822   1.035   2.756  11.569 -1.0416 -0.2678  1.3777
 5111TIP3   OH236823   5.317   5.466  16.170  0.7896 -0.1378 -0.3359
 5111TIP3    H136824   5.314   5.371  16.167 -1.1219 -0.0949 -1.6342
 5111TIP3    H236825   5.389   5.490  16.112  1.3616 -0.7646  0.0995
 5112TIP3   OH236826   0.528   5.083   1.277 -0.3820 -0.3104 -0.0467
 5112TIP3    H136827   0.468   5.020   1.320  0.7715 -1.0811  0.4856
 5112TIP3    H236828   0.552   5.040   1.195 -1.9245  0.7983 -1.1441
 5113TIP3   OH236829   3.115   0.032  11.738  0.6327 -0.4158 -0.1745
 5113TIP3    H136830   3.194  -0.017  11.757  0.1468 -0.2175  3.0706
 5113TIP3    H236831   3.043  -0.028  11.760  0.0338  1.0594  2.4575
 5114TIP3   OH236832   6.202   5.379  14.725 -0.2002 -0.2826  0.3386
 5114TIP3    H136833   6.289   5.389  14.687 -0.5672  0.1721 -0.4080
 5114TIP3    H236834   6.179   5.468  14.754 -0.3180 -0.4486  0.7646
 5115TIP3   OH236835   4.464   5.180   2.985 -0.0721 -0.0192 -0.0134
 5115TIP3    H136836   4.518   5.118   2.937  0.6516  0.3593  0.2987
 5115TIP3    H236837   4.526   5.231   3.037 -0.8165 -0.2540  1.1286
 5116TIP3   OH236838   1.796   2.393   1.977  0.1697  0.0646  0.1735
 5116TIP3    H136839   1.735   2.412   1.906  0.3356 -0.0313  0.0066
 5116TIP3    H236840   1.742   2.345   2.041 -0.6573  2.3496  1.2987
 5117TIP3   OH236841   5.095   0.834   4.128 -0.1655  0.7227  0.4791
 5117TIP3    H136842   5.140   0.753   4.153 -0.1109 -0.2082 -2.3073
 5117TIP3    H236843   5.148   0.904   4.166  2.8672 -0.3830 -1.3630
 5118TIP3   OH236844   6.341   1.252   0.653 -0.4804 -0.1764 -0.1312
 5118TIP3    H136845   6.329   1.346   0.670  2.3868 -0.1131  2.5620
 5118TIP3    H236846   6.422   1.247   0.601 -0.7253 -1.1418 -0.4356
 5119TIP3   OH236847   3.240   1.848  11.915 -0.0742  0.8572  0.1815
 5119TIP3    H136848   3.197   1.821  11.997  0.6526  0.2125  0.3635
 5119TIP3    H236849   3.261   1.940  11.928  0.4792  0.6347  0.9241
 5120TIP3   OH236850   6.069   0.890  15.380  0.3629 -0.8542  0.4995
 5120TIP3    H136851   6.052   0.858  15.469 -0.4981 -1.0922  0.2593
 5120TIP3    H236852   6.043   0.817  15.323 -2.4648  0.5081 -0.1079
 5121TIP3   OH236853   2.896   3.476   5.441 -0.0179 -0.3572 -0.2022
 5121TIP3    H136854   2.953   3.477   5.518  0.6372 -0.3684 -0.6803
 5121TIP3    H236855   2.881   3.383   5.423  1.7681 -0.4544 -1.4772
 5122TIP3   OH236856   6.143   6.455   2.140  0.1587  0.4773 -0.1972
 5122TIP3    H136857   6.146   6.363   2.114  1.4957  0.3945  0.1741
 5122TIP3    H236858   6.051   6.471   2.159  0.2694 -1.7700  3.0870
 5123TIP3   OH236859   5.739   0.960   4.221 -0.1039 -0.7485  0.3056
 5123TIP3    H136860   5.816   0.979   4.167 -0.5417  0.4208  0.0582
 5123TIP3    H236861   5.750   0.869   4.249  0.9149 -0.8682 -0.4609
 5124TIP3   OH236862   2.278   4.426  15.694 -0.0465 -0.2548 -0.1590
 5124TIP3    H136863   2.306   4.445  15.784  0.3633  1.5106 -0.6286
 5124TIP3    H236864   2.238   4.507  15.663 -0.3173 -0.8801 -1.5316
 5125TIP3   OH236865   1.231   0.480  11.712  0.4589 -0.1210  0.4433
 5125TIP3    H136866   1.265   0.405  11.760  0.3688  0.0418  0.7675
 5125TIP3    H236867   1.140   0.456  11.692  0.5359 -0.2441  0.2325
 5126TIP3   OH236868   4.527   4.342   5.975  0.3170 -0.4343 -0.5131
 5126TIP3    H136869   4.589   4.270   5.972  0.4245 -0.3395 -0.5672
 5126TIP3    H236870   4.579   4.418   5.999  0.1516 -0.4316 -0.1511
 5127TIP3   OH236871   0.931   4.117   1.299  0.1646 -0.6568  0.3418
 5127TIP3    H136872   0.991   4.042   1.301  0.6438 -0.2689  0.8992
 5127TIP3    H236873   0.849   4.082   1.334  0.5082 -0.8288  0.9968
 5128TIP3   OH236874   2.281   6.161   4.822 -0.0226 -0.0078 -0.3546
 5128TIP3    H136875   2.227   6.202   4.754  0.0856  0.8764  0.0644
 5128TIP3    H236876   2.271   6.067   4.808 -0.7555  0.1532 -0.9952
 5129TIP3   OH236877   0.114   1.698   5.482 -0.4165  0.1219  0.5893
 5129TIP3    H136878   0.166   1.752   5.541 -1.2538  1.2687  0.3102
 5129TIP3    H236879   0.033   1.747   5.469 -1.1125 -1.0885  0.1220
 5130TIP3   OH236880   1.549   6.658   4.760 -0.1020 -0.2294  0.1257
 5130TIP3    H136881   1.573   6.641   4.669  0.8876  1.9478 -0.0793
 5130TIP3    H236882   1.476   6.719   4.755 -0.1055 -0.1685  0.7834
 5131TIP3   OH236883   5.332   4.861   1.007 -0.4417  0.4307  0.4865
 5131TIP3    H136884   5.250   4.814   0.992 -0.1549  0.0675  0.0421
 5131TIP3    H236885   5.361   4.832   1.093  0.8884 -1.9896 -0.6724
 5132TIP3   OH236886   5.129   3.810  13.047  0.0857  0.2464 -0.2864
 5132TIP3    H136887   5.038   3.814  13.017 -0.2703  0.2223  0.7616
 5132TIP3    H236888   5.123   3.813  13.142  1.1847  0.1614 -0.2049
 5133TIP3   OH236889   4.269   2.496   0.471 -0.8066  0.4936 -0.0842
 5133TIP3    H136890   4.365   2.491   0.467 -0.7005  1.7870  0.5209
 5133TIP3    H236891   4.244   2.423   0.528 -0.1295  0.5893  0.3461
 5134TIP3   OH236892   1.026   4.335   0.129 -0.1726  0.0713  0.0827
 5134TIP3    H136893   1.118   4.333   0.153 -0.4098  0.5445  1.0743
 5134TIP3    H236894   1.020   4.278   0.052  0.8954 -0.1662  0.1629
 5135TIP3   OH236895   1.699   2.457   4.033  0.0451 -0.1088 -0.3915
 5135TIP3    H136896   1.757   2.381   4.027  0.3418  0.1069 -0.2714
 5135TIP3    H236897   1.619   2.423   4.074 -0.0564 -0.4842 -0.8992
 5136TIP3   OH236898   3.477   0.454   2.933  0.6838 -0.3561 -0.0089
 5136TIP3    H136899   3.452   0.370   2.894  1.2864 -0.0771 -1.0229
 5136TIP3    H236900   3.490   0.513   2.859  0.1884  0.6742  0.6909
 5137TIP3   OH236901   5.833   4.471   2.022 -0.2842  0.2099  0.4865
 5137TIP3    H136902   5.739   4.454   2.024 -0.3611  0.4886 -0.4939
 5137TIP3    H236903   5.873   4.389   2.048 -0.7094 -0.9117 -2.1248
 5138TIP3   OH236904   0.477   2.270  16.234 -0.1270 -0.0141  0.1624
 5138TIP3    H136905   0.401   2.216  16.252 -0.7133  0.6226 -0.3324
 5138TIP3    H236906   0.453   2.357  16.265  1.2203 -0.2301  1.9800
 5139TIP3   OH236907   4.422   0.150  15.602 -0.0526  0.1890 -0.4844
 5139TIP3    H136908   4.418   0.245  15.590  0.3966  0.2766  0.0098
 5139TIP3    H236909   4.399   0.136  15.694 -2.2785 -0.3772 -1.0753
 5140TIP3   OH236910   5.911   1.580  12.525 -0.8417 -0.1828  0.5306
 5140TIP3    H136911   5.930   1.650  12.587 -0.3093 -0.1577  0.3395
 5140TIP3    H236912   5.920   1.499  12.575  0.8203 -0.2335  0.2024
 5141TIP3   OH236913   6.173   1.319  14.205 -0.4049 -0.3755  0.0402
 5141TIP3    H136914   6.208   1.257  14.269  0.6305 -0.5976 -0.7144
 5141TIP3    H236915   6.231   1.395  14.210 -1.6656  0.5738  0.9644
 5142TIP3   OH236916   5.890   1.591   0.167 -0.3048 -0.5068  0.2202
 5142TIP3    H136917   5.922   1.611   0.079 -1.3699  1.2105  0.1728
 5142TIP3    H236918   5.838   1.511   0.157  2.0557 -2.0930 -0.0862
 5143TIP3   OH236919   2.270   0.371  11.735  0.5436 -0.2709 -0.4291
 5143TIP3    H136920   2.267   0.415  11.820  1.8867 -2.7028  0.9593
 5143TIP3    H236921   2.362   0.349  11.722  0.1569 -1.1669 -1.8689
 5144TIP3   OH236922   2.079   1.263  12.722  0.2035  0.3495  0.1764
 5144TIP3    H136923   2.048   1.353  12.735 -0.0381  0.1784  0.8327
 5144TIP3    H236924   1.999   1.210  12.718  0.3284  0.2064 -0.6141
 5145TIP3   OH236925   2.077   5.108   3.511  0.2204 -0.4701 -0.2739
 5145TIP3    H136926   2.070   5.168   3.437  0.1708 -0.2766 -0.1128
 5145TIP3    H236927   2.161   5.130   3.552 -1.2052  1.7361  1.7261
 5146TIP3   OH236928   0.423   0.384   2.808 -0.7684 -0.5865 -0.2014
 5146TIP3    H136929   0.410   0.381   2.903 -1.0499  1.8440 -0.0969
 5146TIP3    H236930   0.511   0.421   2.797 -1.2405  0.3708 -0.8632
 5147TIP3   OH236931   0.912   5.360  10.358 -0.6343 -0.0675  0.0399
 5147TIP3    H136932   0.974   5.295  10.390  0.3345  0.6707 -0.2773
 5147TIP3    H236933   0.897   5.418  10.432  0.6537  0.9244 -0.4313
 5148TIP3   OH236934   5.052   4.188  12.431  0.0693 -0.0169 -0.6583
 5148TIP3    H136935   5.120   4.247  12.465 -1.3144  1.5609 -0.5184
 5148TIP3    H236936   5.082   4.165  12.343  1.8008 -1.0866  0.1378
 5149TIP3   OH236937   6.238   2.651   4.879  0.3346 -0.7709 -0.0930
 5149TIP3    H136938   6.293   2.728   4.898 -0.1615 -0.8985  1.9720
 5149TIP3    H236939   6.296   2.576   4.894  0.2237 -0.8559 -0.0870
 5150TIP3   OH236940   4.057   0.848   2.457 -0.0047 -0.4703 -0.7366
 5150TIP3    H136941   3.980   0.821   2.508 -1.0659  2.3866 -0.6482
 5150TIP3    H236942   4.038   0.818   2.368 -0.4162 -1.2483 -0.4019
 5151TIP3   OH236943   6.705   3.271  15.848  0.3567  0.1920 -0.4508
 5151TIP3    H136944   6.641   3.269  15.919 -0.5398  1.1918 -1.2090
 5151TIP3    H236945   6.697   3.185  15.806 -0.5890  0.3605 -0.6276
 5152TIP3   OH236946   2.228   0.500   2.014  0.2230  0.3616  0.0503
 5152TIP3    H136947   2.183   0.430   1.966 -0.7687  0.8269  0.2821
 5152TIP3    H236948   2.288   0.454   2.073  1.3120 -0.2311 -1.4605
 5153TIP3   OH236949   4.343   6.291  11.406 -0.4839  0.7720  0.6833
 5153TIP3    H136950   4.421   6.340  11.432  0.7172 -0.3503 -0.6315
 5153TIP3    H236951   4.362   6.261  11.317 -1.8793 -0.5964  0.8012
 5154TIP3   OH236952   0.211   1.076  14.505  0.3013  0.1686 -0.0527
 5154TIP3    H136953   0.248   1.164  14.517 -2.4347  1.3400  0.7174
 5154TIP3    H236954   0.221   1.034  14.590  1.9258 -0.4743 -0.5155
 5155TIP3   OH236955   2.991   6.059   6.034  0.2692 -0.5525 -0.1291
 5155TIP3    H136956   3.083   6.055   6.061  0.5105 -0.2411 -0.8969
 5155TIP3    H236957   2.991   6.109   5.953 -0.8328  1.3245  0.9497
 5156TIP3   OH236958   6.642   6.114   0.317  0.2010 -0.1622  0.3736
 5156TIP3    H136959   6.556   6.139   0.349  0.4694 -0.5207  1.4063
 5156TIP3    H236960   6.701   6.130   0.391  0.5204 -3.0927  0.8811
 5157TIP3   OH236961   0.663   6.690  15.802 -0.4455  0.3098  0.3128
 5157TIP3    H136962   0.660   6.735  15.886 -0.6631 -0.1676  0.5680
 5157TIP3    H236963   0.665   6.597  15.826 -0.0579  0.1832 -0.2012
 5158TIP3   OH236964   4.077   3.939   1.522 -0.1412 -0.5712 -0.2651
 5158TIP3    H136965   4.143   3.972   1.462 -0.5881 -0.3656 -0.6564
 5158TIP3    H236966   4.040   3.863   1.479 -1.7798  0.6680 -1.1674
 5159TIP3   OH236967   3.066   6.779  16.290 -0.0894  0.1926 -0.3269
 5159TIP3    H136968   2.985   6.824  16.315 -0.2372  1.5632 -2.9266
 5159TIP3    H236969   3.076   6.797  16.196  2.7432 -0.7324 -0.3049
 5160TIP3   OH236970   5.749   3.021  12.922  0.8123  0.2926 -0.4543
 5160TIP3    H136971   5.791   2.938  12.945  1.7943  0.6948 -0.7507
 5160TIP3    H236972   5.725   3.011  12.829  2.9772  1.1329 -1.1630
 5161TIP3   OH236973   4.743   4.780  14.400  0.0093 -0.1376  0.6664
 5161TIP3    H136974   4.775   4.862  14.439 -0.9554  1.0744 -0.9483
 5161TIP3    H236975   4.781   4.779  14.312 -1.6360 -0.3283 -0.0835
 5162TIP3   OH236976   0.123   0.619   2.589  0.2485 -0.0703 -0.1717
 5162TIP3    H136977   0.043   0.668   2.608  1.4383  1.0503  2.3011
 5162TIP3    H236978   0.132   0.557   2.661  2.4735  1.0506  0.6215
 5163TIP3   OH236979   6.830   5.179   5.869 -0.0819  0.0672 -0.7076
 5163TIP3    H136980   6.919   5.148   5.850  0.1753 -1.1576  2.0568
 5163TIP3    H236981   6.831   5.199   5.962 -2.8382 -0.3933 -0.5032
 5164TIP3   OH236982   4.346   5.459   0.021  0.4524 -0.1540  0.2149
 5164TIP3    H136983   4.294   5.406  -0.039 -1.9503  1.9855  0.2336
 5164TIP3    H236984   4.337   5.549  -0.012 -0.0723  0.9561  3.0963
 5165TIP3   OH236985   1.627   4.685  14.162  0.0573  0.3312 -0.4134
 5165TIP3    H136986   1.702   4.641  14.122 -0.4754 -1.3182  0.2919
 5165TIP3    H236987   1.643   4.678  14.257 -1.8699 -1.9081 -0.1419
 5166TIP3   OH236988   5.984   6.159  16.281 -0.0815  0.0872 -0.5144
 5166TIP3    H136989   6.042   6.116  16.219  0.3420  0.5137 -0.4262
 5166TIP3    H236990   5.966   6.244  16.242 -0.2925  0.1253 -0.3335
 5167TIP3   OH236991   6.262   0.571  16.877 -0.1468  0.4137  0.7749
 5167TIP3    H136992   6.342   0.572  16.825 -1.0107 -1.3570 -0.7265
 5167TIP3    H236993   6.291   0.562  16.967  1.3593  0.6162  0.3269
 5168TIP3   OH236994   3.592   6.562   0.754 -0.5423 -0.5283  0.7625
 5168TIP3    H136995   3.673   6.552   0.804 -0.3466  0.0648  0.5732
 5168TIP3    H236996   3.617   6.616   0.679 -1.1420 -0.2278  0.7703
 5169TIP3   OH236997   2.864   1.851  10.821 -0.5807  0.1050  0.3886
 5169TIP3    H136998   2.904   1.795  10.754  0.2557 -1.7815  2.3315
 5169TIP3    H236999   2.808   1.911  10.772  1.9213  0.5489 -2.1902
 5170TIP3   OH237000   3.545   3.642  12.661  0.4880  0.3112 -0.1527
 5170TIP3    H137001   3.548   3.559  12.614 -1.6401  0.6669 -0.9898
 5170TIP3    H237002   3.564   3.617  12.752 -3.4664 -1.7583  0.3254
 5171TIP3   OH237003   5.396   0.564  10.232 -0.3972 -0.3340 -0.0644
 5171TIP3    H137004   5.431   0.559  10.143  0.7648  1.4168  0.2470
 5171TIP3    H237005   5.429   0.485  10.274 -0.4582 -0.8816 -1.0069
 5172TIP3   OH237006   3.296   6.125   1.860  0.0195  0.1083  0.1600
 5172TIP3    H137007   3.377   6.077   1.881 -0.7160 -0.8315  0.9483
 5172TIP3    H237008   3.321   6.217   1.864  1.3124 -0.1841 -0.7068
 5173TIP3   OH237009   5.658   1.110  14.945 -0.3092 -0.0447 -0.0601
 5173TIP3    H137010   5.716   1.131  15.018  0.1268 -0.6052 -0.2358
 5173TIP3    H237011   5.574   1.150  14.968 -0.4020 -0.8354  1.1088
 5174TIP3   OH237012   3.369   2.606  11.211  0.0410  0.5065  0.5142
 5174TIP3    H137013   3.406   2.651  11.135  1.8952  1.5562  1.9776
 5174TIP3    H237014   3.407   2.518  11.208 -1.5129 -0.1822 -0.8568
 5175TIP3   OH237015   2.656   5.499   4.732 -0.1695 -0.3030 -0.1787
 5175TIP3    H137016   2.569   5.465   4.712 -0.6009  0.4810  0.2997
 5175TIP3    H237017   2.684   5.448   4.808 -0.3603 -0.3242 -0.1204
 5176TIP3   OH237018   6.446   5.668  13.633  0.9196 -0.3440 -0.1641
 5176TIP3    H137019   6.440   5.648  13.726 -2.4069  1.1459  0.0548
 5176TIP3    H237020   6.357   5.661  13.600  2.0331 -1.2948 -3.4183
 5177TIP3   OH237021   1.950   5.327   4.232 -0.0627 -0.4935 -0.7057
 5177TIP3    H137022   1.992   5.346   4.316 -1.1475 -2.5082  0.3841
 5177TIP3    H237023   2.020   5.291   4.178  0.4110 -0.2386 -0.2782
 5178TIP3   OH237024   3.944   2.341  13.810  0.1690 -0.3321 -0.0515
 5178TIP3    H137025   3.848   2.339  13.811  0.1476 -1.8231 -1.5587
 5178TIP3    H237026   3.968   2.346  13.902 -1.3484  1.7495  0.2957
 5179TIP3   OH237027   0.710   6.131   4.201 -0.2539  0.7099 -0.0498
 5179TIP3    H137028   0.765   6.209   4.199 -0.9406  1.2082  0.4592
 5179TIP3    H237029   0.661   6.138   4.283 -0.3176 -0.2596  0.0052
 5180TIP3   OH237030   5.362   0.021   1.627  0.2373  0.1054  0.2772
 5180TIP3    H137031   5.338  -0.004   1.716 -0.2704  0.7443  0.3275
 5180TIP3    H237032   5.449  -0.017   1.614 -0.3738 -1.3982  0.4426
 5181TIP3   OH237033   0.564   2.754  15.115 -0.2244 -0.0522 -0.0259
 5181TIP3    H137034   0.470   2.742  15.127 -0.3436  1.6186  1.3005
 5181TIP3    H237035   0.579   2.739  15.022 -1.8663 -0.0441 -0.3276
 5182TIP3   OH237036   6.401   2.735   4.551  0.0715 -0.1813 -0.0120
 5182TIP3    H137037   6.465   2.667   4.569  0.2877  0.0241  0.0026
 5182TIP3    H237038   6.398   2.786   4.632  0.0885 -0.0293 -0.1073
 5183TIP3   OH237039   0.051   2.602  13.117 -0.0276 -0.2661 -0.2294
 5183TIP3    H137040   0.099   2.559  13.188  0.8304  1.3709  0.2264
 5183TIP3    H237041  -0.033   2.626  13.156  0.0249 -0.3115 -0.0866
 5184TIP3   OH237042   6.600   2.301  13.045  0.2063  0.5631 -0.6358
 5184TIP3    H137043   6.580   2.230  13.106  0.5281  1.7596  0.9421
 5184TIP3    H237044   6.695   2.307  13.044  0.2001  0.6747 -1.1320
 5185TIP3   OH237045   4.605   4.015  14.790 -0.5440  0.0450 -0.1348
 5185TIP3    H137046   4.695   4.043  14.779 -0.2691  0.2708  2.2550
 5185TIP3    H237047   4.553   4.085  14.751  0.2757  0.5945 -0.2566
 5186TIP3   OH237048   0.235   0.974  14.771  0.4278 -0.1069 -0.0258
 5186TIP3    H137049   0.275   0.898  14.814 -0.5779  0.1479  1.4501
 5186TIP3    H237050   0.141   0.966  14.790 -0.1104 -0.0618 -2.3831
 5187TIP3   OH237051   3.317   5.245  13.013  0.1255 -0.3834  0.0281
 5187TIP3    H137052   3.282   5.167  12.971  0.4582 -0.2030 -0.5904
 5187TIP3    H237053   3.320   5.223  13.106 -0.8171 -0.7110 -0.0037
 5188TIP3   OH237054   1.064   3.067   2.980  0.5129 -0.4127 -0.1729
 5188TIP3    H137055   1.039   3.158   2.996 -0.0149 -0.5611 -0.1120
 5188TIP3    H237056   0.992   3.016   3.018  0.0378 -0.8132 -1.5569
 5189TIP3   OH237057   3.533   1.687   6.373  0.5571 -0.5447 -0.6157
 5189TIP3    H137058   3.609   1.639   6.404 -0.9046 -1.9645  0.9527
 5189TIP3    H237059   3.530   1.766   6.426  0.4467 -0.9256 -0.0500
 5190TIP3   OH237060   2.797   0.753   0.937 -0.4790 -0.3517 -0.8390
 5190TIP3    H137061   2.735   0.762   0.864  1.5145 -1.6730 -2.8640
 5190TIP3    H237062   2.866   0.816   0.917  0.8942 -1.8530 -1.0789
 5191TIP3   OH237063   4.935   0.800  13.276  0.4035 -0.4878 -0.5765
 5191TIP3    H137064   4.914   0.891  13.298  0.2317 -0.7579  0.4236
 5191TIP3    H237065   5.027   0.802  13.250  0.4635 -0.0627 -0.3469
 5192TIP3   OH237066   4.087   1.850  12.557 -0.1687 -0.5414  0.2615
 5192TIP3    H137067   4.009   1.797  12.539  0.5014 -1.9203  1.1787
 5192TIP3    H237068   4.113   1.884  12.472 -1.2404 -0.8289 -0.2005
 5193TIP3   OH237069   3.865   6.534   5.130  0.3617  0.3361  0.4139
 5193TIP3    H137070   3.846   6.442   5.145 -0.0913  0.2574 -0.5582
 5193TIP3    H237071   3.784   6.571   5.095  1.0183  0.7046 -0.8046
 5194TIP3   OH237072   4.325   3.710  15.651 -0.0552  0.2553  0.5112
 5194TIP3    H137073   4.311   3.703  15.556  1.8663 -1.5745  0.3000
 5194TIP3    H237074   4.264   3.647  15.689  0.6885 -0.6007  0.3111
 5195TIP3   OH237075   0.699   2.360  11.678 -0.4920 -0.2806 -0.0319
 5195TIP3    H137076   0.651   2.309  11.614 -0.5165  0.9001 -0.9860
 5195TIP3    H237077   0.728   2.438  11.631  1.1631 -0.2821  0.8700
 5196TIP3   OH237078   5.435   6.170  11.590 -0.0400 -0.2385 -0.5700
 5196TIP3    H137079   5.356   6.122  11.614 -0.9524  1.4852  0.0070
 5196TIP3    H237080   5.413   6.215  11.508  0.5581 -0.2444 -0.7395
 5197TIP3   OH237081   0.736   6.491   3.273 -0.1338 -0.0585  0.1165
 5197TIP3    H137082   0.736   6.426   3.344  1.5544 -0.4493 -0.1853
 5197TIP3    H237083   0.644   6.514   3.262 -0.6191 -1.2607  1.2742
 5198TIP3   OH237084   0.175   3.721   2.383 -0.2830  0.1044 -0.0285
 5198TIP3    H137085   0.226   3.763   2.314 -0.8152  1.0590  0.1481
 5198TIP3    H237086   0.238   3.662   2.426  0.2911  0.1896 -0.7240
 5199TIP3   OH237087   3.445   0.368  11.936  0.0540 -0.4695 -0.2058
 5199TIP3    H137088   3.502   0.368  11.859 -1.4131  0.9250 -1.3620
 5199TIP3    H237089   3.504   0.358  12.010  1.9464  1.9310 -1.2743
 5200TIP3   OH237090   0.292   5.471   6.316 -0.2015 -0.2685  0.6561
 5200TIP3    H137091   0.345   5.448   6.392 -1.2644 -0.7398  1.2902
 5200TIP3    H237092   0.223   5.528   6.351 -0.9123 -0.7766  0.1269
 5201TIP3   OH237093   1.989   4.981   6.303 -0.2866 -0.1983  0.0909
 5201TIP3    H137094   1.951   5.033   6.374 -0.2324 -0.1552  0.0883
 5201TIP3    H237095   1.933   4.903   6.298 -0.8862  0.2507 -0.4692
 5202TIP3   OH237096   3.796   3.235   3.736  0.5566  0.8267 -0.3147
 5202TIP3    H137097   3.790   3.268   3.826 -0.1498  1.4970 -0.5978
 5202TIP3    H237098   3.716   3.267   3.693 -2.2298 -4.2822  0.3373
 5203TIP3   OH237099   0.654   3.237   5.181 -0.4756 -0.4743  0.2222
 5203TIP3    H137100   0.638   3.261   5.272 -0.8467  1.0112 -0.1968
 5203TIP3    H237101   0.661   3.142   5.181 -0.1521 -0.4731  1.8414
 5204TIP3   OH237102   5.606   4.482   3.207  0.4445 -0.3832  0.3224
 5204TIP3    H137103   5.537   4.524   3.156  0.6112 -0.8193 -0.2718
 5204TIP3    H237104   5.643   4.552   3.261 -0.9000 -0.2717  1.1451
 5205TIP3   OH237105   3.919   3.227  11.718  0.0773  0.0694  0.1760
 5205TIP3    H137106   4.000   3.202  11.674 -0.1808  0.3227 -0.4675
 5205TIP3    H237107   3.931   3.320  11.740 -0.3350  0.3389 -0.6562
 5206TIP3   OH237108   2.034   4.281  10.943  0.3492 -0.4548 -0.3093
 5206TIP3    H137109   1.994   4.225  10.877  1.8431 -0.5136 -1.2053
 5206TIP3    H237110   2.110   4.319  10.900 -0.0662  1.5403  0.5698
 5207TIP3   OH237111   4.211   6.470  12.380  0.3134 -0.3943 -0.0506
 5207TIP3    H137112   4.241   6.489  12.291  0.3341  1.3162  0.2964
 5207TIP3    H237113   4.250   6.385  12.400  0.8544 -0.5033 -1.4270
 5208TIP3   OH237114   0.014   0.220  12.916  0.3634  0.0501  0.0447
 5208TIP3    H137115  -0.069   0.191  12.876  0.1142  0.3832  0.3136
 5208TIP3    H237116  -0.013   0.279  12.986  0.8714  1.5776 -0.9805
 5209TIP3   OH237117   0.640   4.487   5.441 -0.2997  0.4576 -0.1695
 5209TIP3    H137118   0.629   4.404   5.486  1.4706 -0.1065 -0.7050
 5209TIP3    H237119   0.626   4.553   5.509  0.4760 -0.3266  0.7843
 5210TIP3   OH237120   2.786   0.547  15.313 -0.2817  0.4477 -0.1256
 5210TIP3    H137121   2.723   0.592  15.369 -1.1865 -2.5844  1.4750
 5210TIP3    H237122   2.871   0.585  15.339 -0.9019  0.6745  1.7387
 5211TIP3   OH237123   1.770   0.465  16.290  0.0832  0.0092 -0.1864
 5211TIP3    H137124   1.858   0.444  16.260 -1.2175 -2.5671 -2.5994
 5211TIP3    H237125   1.744   0.390  16.344 -0.4694  0.9911  0.9644
 5212TIP3   OH237126   6.398   3.328   3.281 -0.0929  0.1130  0.5039
 5212TIP3    H137127   6.433   3.357   3.197 -0.8541 -0.5227 -0.0510
 5212TIP3    H237128   6.454   3.370   3.347  2.1529 -1.3526 -0.3396
 5213TIP3   OH237129   0.751   5.997  13.773 -1.0882 -0.1685 -0.1080
 5213TIP3    H137130   0.753   6.016  13.679  0.7433  0.2372 -0.0199
 5213TIP3    H237131   0.812   6.060  13.811  1.0323 -2.6717  0.8972
 5214TIP3   OH237132   2.298   3.385  12.889  0.2169 -0.3528  0.2174
 5214TIP3    H137133   2.321   3.366  12.980  0.1208 -2.3057 -0.1115
 5214TIP3    H237134   2.263   3.302  12.856  1.1084  0.0288 -1.8588
 5215TIP3   OH237135   2.598   1.375  10.623  0.0610  0.4000  0.1063
 5215TIP3    H137136   2.533   1.436  10.591 -0.1387  0.1358  0.0003
 5215TIP3    H237137   2.571   1.290  10.587  1.5816  0.5949 -1.6476
 5216TIP3   OH237138   5.219   0.144   2.063  0.6222  0.3853  0.4201
 5216TIP3    H137139   5.196   0.054   2.040  0.2689  0.6743 -0.4169
 5216TIP3    H237140   5.191   0.154   2.154 -1.5004  0.3367 -0.1770
 5217TIP3   OH237141   5.837   4.269   2.745 -0.1985  0.1794  0.0549
 5217TIP3    H137142   5.850   4.192   2.690 -1.6084 -0.1727  0.1755
 5217TIP3    H237143   5.775   4.323   2.697 -2.9962 -1.0332  2.0685
 5218TIP3   OH237144   0.367   1.655  11.254 -0.5585 -0.5619 -0.3471
 5218TIP3    H137145   0.375   1.599  11.331  1.1455  0.6633  0.4208
 5218TIP3    H237146   0.349   1.742  11.289 -3.1310 -0.5203 -1.5234
 5219TIP3   OH237147   3.239   2.205   2.224 -0.3997  0.4510  0.3290
 5219TIP3    H137148   3.198   2.205   2.138 -1.7929  1.0501  0.9486
 5219TIP3    H237149   3.332   2.218   2.208 -0.4474 -0.7609 -1.1363
 5220TIP3   OH237150   1.203   1.213  13.906  0.1061 -0.0269  0.2209
 5220TIP3    H137151   1.222   1.225  13.813  2.9012 -0.1283  0.6979
 5220TIP3    H237152   1.171   1.124  13.913 -0.1885  0.0026 -0.6543
 5221TIP3   OH237153   2.354   0.210  10.705  0.2816 -0.0370  0.4748
 5221TIP3    H137154   2.423   0.143  10.706 -0.9620 -1.3781  0.4199
 5221TIP3    H237155   2.350   0.242  10.795  1.2079  0.3191  0.3990
 5222TIP3   OH237156   5.257   1.717  15.947  0.5660  0.6115 -0.4408
 5222TIP3    H137157   5.220   1.642  15.901  0.5866  1.0111 -1.1249
 5222TIP3    H237158   5.352   1.705  15.941  0.6011  1.3579 -1.7122
 5223TIP3   OH237159   0.628   2.676  10.467  0.2679  1.0264 -0.3424
 5223TIP3    H137160   0.687   2.733  10.516  0.6520  1.2196 -1.0235
 5223TIP3    H237161   0.562   2.735  10.431 -0.3583  0.8129  0.4085
 5224TIP3   OH237162   1.133   5.376   0.623  0.0897 -0.1284  0.2620
 5224TIP3    H137163   1.039   5.355   0.625 -0.6719  2.9395  1.2903
 5224TIP3    H237164   1.149   5.401   0.533  0.0601 -1.0738 -0.0208
 5225TIP3   OH237165   6.060   3.667  12.765  0.0929 -0.1124 -0.0883
 5225TIP3    H137166   6.038   3.758  12.745  0.5116 -0.2914 -1.3991
 5225TIP3    H237167   6.134   3.647  12.708  1.5364 -0.5755  1.8448
 5226TIP3   OH237168   5.215   1.174   1.378 -0.2427  0.2418 -0.0395
 5226TIP3    H137169   5.210   1.105   1.445  2.9638  0.3311  0.4774
 5226TIP3    H237170   5.183   1.253   1.422  1.1611  0.1496  1.2693
 5227TIP3   OH237171   6.363   1.598   0.241 -0.1775  0.8045 -0.2256
 5227TIP3    H137172   6.300   1.528   0.226  0.9390 -0.2178 -0.3235
 5227TIP3    H237173   6.314   1.666   0.288 -1.3335  0.0501 -0.3148
 5228TIP3   OH237174   4.886   0.031  14.844  0.4625  0.6131 -0.2879
 5228TIP3    H137175   4.798   0.057  14.818  0.5051  0.1422 -0.9279
 5228TIP3    H237176   4.907   0.087  14.919 -1.2374 -0.7615  1.2978
 5229TIP3   OH237177   4.975   3.207  10.598 -0.0791  0.2136  0.3816
 5229TIP3    H137178   4.950   3.158  10.676 -0.9267  1.2230  0.7547
 5229TIP3    H237179   5.063   3.240  10.617  0.5362 -1.1956  0.0947
 5230TIP3   OH237180   0.209   5.924   2.259 -0.3531  0.0729 -0.1536
 5230TIP3    H137181   0.207   6.009   2.216  0.2076  1.5733  2.5972
 5230TIP3    H237182   0.300   5.894   2.248  0.0310  0.8786  0.7475
 5231TIP3   OH237183   3.705   5.643   5.495 -0.3803 -0.0901 -0.0511
 5231TIP3    H137184   3.799   5.650   5.508  0.0811 -3.4546 -0.6779
 5231TIP3    H237185   3.686   5.705   5.424  1.7520 -0.7107 -1.2477
 5232TIP3   OH237186   0.421   6.286  14.827  0.1331 -0.1084  0.2496
 5232TIP3    H137187   0.490   6.341  14.863  0.5573 -0.6702  0.3200
 5232TIP3    H237188   0.421   6.304  14.733  0.7077 -0.4560  0.1790
 5233TIP3   OH237189   6.306   1.733   0.007  0.2513 -0.5496 -0.6870
 5233TIP3    H137190   6.338   1.685   0.084  2.1627  0.6778 -0.6395
 5233TIP3    H237191   6.264   1.811   0.043 -0.8919 -1.0678 -0.8447
 5234TIP3   OH237192   0.640   4.396   1.597  0.4167 -0.1485 -0.0757
 5234TIP3    H137193   0.679   4.414   1.511  1.0796  1.9488  0.5845
 5234TIP3    H237194   0.588   4.474   1.615 -1.6334 -1.5700  0.4421
 5235TIP3   OH237195   1.152   5.282  15.985 -0.0904  0.0665 -0.0805
 5235TIP3    H137196   1.188   5.275  16.074  0.7929 -0.8074 -0.4808
 5235TIP3    H237197   1.216   5.236  15.930 -0.7848  0.3190 -1.1263
 5236TIP3   OH237198   4.031   5.411  15.994 -0.3160  0.0562  0.0212
 5236TIP3    H137199   3.987   5.412  15.909  0.5044 -0.9001 -0.4305
 5236TIP3    H237200   4.065   5.322  16.002  1.0948  0.6266  0.5809
 5237TIP3   OH237201   6.296   1.367   4.131  0.5705 -0.6161 -0.4281
 5237TIP3    H137202   6.244   1.447   4.122 -0.0316 -1.0191 -0.5576
 5237TIP3    H237203   6.232   1.297   4.137  1.0806 -1.0138  0.5554
 5238TIP3   OH237204   6.806   0.914   5.441  0.0326 -0.3304  0.6915
 5238TIP3    H137205   6.796   0.883   5.531  0.6667  1.1269  1.2977
 5238TIP3    H237206   6.744   0.986   5.433  0.4442 -0.0204  0.1897
 5239TIP3   OH237207   1.485   3.644   1.936 -0.3913 -0.0991  0.4109
 5239TIP3    H137208   1.523   3.568   1.979 -0.3990 -0.3298  0.0201
 5239TIP3    H237209   1.536   3.718   1.969  0.6512 -0.4370 -0.3721
 5240TIP3   OH237210   3.736   2.066  12.442  0.0963 -0.6995 -0.0529
 5240TIP3    H137211   3.696   1.980  12.459  0.7193 -1.6441 -2.8074
 5240TIP3    H237212   3.818   2.045  12.397  0.6722  1.3665 -0.0671
 5241TIP3   OH237213   4.293   3.645   1.450 -0.2236 -0.3265 -0.4654
 5241TIP3    H137214   4.383   3.677   1.454 -0.2353 -0.3752  0.2422
 5241TIP3    H237215   4.295   3.564   1.501 -0.3568 -1.0741 -1.6125
 5242TIP3   OH237216   0.207   4.882  16.499  0.4244 -0.0152 -0.5617
 5242TIP3    H137217   0.118   4.877  16.533  1.2761  0.6421  2.0345
 5242TIP3    H237218   0.198   4.916  16.411 -1.8663  0.5226 -0.1686
 5243TIP3   OH237219   0.966   2.544   2.815  0.3318  0.8483 -0.1376
 5243TIP3    H137220   1.026   2.485   2.860  0.2292  0.2274 -0.8105
 5243TIP3    H237221   0.904   2.571   2.883 -0.3549 -0.7684 -0.0948
 5244TIP3   OH237222   4.813   0.573  16.627 -0.9631  0.1289 -0.0928
 5244TIP3    H137223   4.737   0.576  16.569 -0.7581  0.5845 -0.3392
 5244TIP3    H237224   4.888   0.566  16.568 -0.8362 -0.7988  0.1598
 5245TIP3   OH237225   5.217   5.923   3.336  0.0661 -0.4223 -0.2740
 5245TIP3    H137226   5.193   6.015   3.319  2.0671  0.1007 -0.4948
 5245TIP3    H237227   5.227   5.918   3.431  0.7896 -0.1739 -0.3314
 5246TIP3   OH237228   5.292   4.909   5.963 -0.4616  0.1752  0.0615
 5246TIP3    H137229   5.253   4.863   5.889  0.2092  0.0615 -0.2316
 5246TIP3    H237230   5.233   4.982   5.980 -1.2191 -0.4425  0.1447
 5247TIP3   OH237231   3.166   4.458   2.313  0.5528  0.3005 -0.0982
 5247TIP3    H137232   3.132   4.523   2.252  2.5201  0.6980 -0.8720
 5247TIP3    H237233   3.244   4.424   2.269 -0.3818 -2.5889  0.2891
 5248TIP3   OH237234   4.222   0.154  13.901 -0.1431  0.1154  0.1928
 5248TIP3    H137235   4.273   0.184  13.825 -0.0245  0.4830  0.4170
 5248TIP3    H237236   4.140   0.203  13.895  0.1352  0.6590  0.6786
 5249TIP3   OH237237   0.226   1.670  11.610  0.0160 -0.2500  0.3578
 5249TIP3    H137238   0.220   1.586  11.565  1.0865 -0.5840  0.7935
 5249TIP3    H237239   0.136   1.700  11.618 -0.2397 -0.2166 -1.8910
 5250TIP3   OH237240   0.380   6.567  12.535 -0.6578 -0.0127 -0.0218
 5250TIP3    H137241   0.460   6.522  12.507 -0.5387 -0.1886  0.5861
 5250TIP3    H237242   0.401   6.660  12.530  1.2159  0.0278  4.4932
 5251TIP3   OH237243   2.164   0.036   5.643  0.3313  0.3427 -0.1943
 5251TIP3    H137244   2.241   0.037   5.586 -0.0524  0.7997 -0.7175
 5251TIP3    H237245   2.185  -0.027   5.711  1.2567  0.6239 -0.2105
 5252TIP3   OH237246   6.460   1.442  10.511 -0.2937  0.1064  0.1179
 5252TIP3    H137247   6.446   1.349  10.491  1.1343  0.1224 -1.2059
 5252TIP3    H237248   6.556   1.451  10.515 -0.4214  1.1242  2.3751
 5253TIP3   OH237249   3.419   0.732   4.706  0.2906  0.0513 -1.0574
 5253TIP3    H137250   3.344   0.673   4.706  0.1668  0.1950 -1.9859
 5253TIP3    H237251   3.402   0.793   4.778 -0.8045  0.4778 -1.6519
 5254TIP3   OH237252   5.951   6.470  16.592  0.2550  0.3479  0.3267
 5254TIP3    H137253   5.862   6.437  16.578  0.1789  0.1155  1.3218
 5254TIP3    H237254   5.956   6.486  16.686  0.8559  1.5661  0.1036
 5255TIP3   OH237255   3.886   5.946  14.412 -0.1211  0.0843  0.1194
 5255TIP3    H137256   3.927   6.000  14.345  1.4406 -2.0486 -0.7904
 5255TIP3    H237257   3.884   6.001  14.490 -0.6777  2.1524 -1.2899
 5256TIP3   OH237258   4.217   4.486   3.738  0.2793  0.5345  0.1989
 5256TIP3    H137259   4.188   4.511   3.826 -0.6364  1.6452 -0.3921
 5256TIP3    H237260   4.254   4.399   3.749 -1.7625 -0.2496  1.3058
 5257TIP3   OH237261   4.347   5.608   1.729 -0.8149  0.6779  0.1477
 5257TIP3    H137262   4.370   5.602   1.637  0.5315  2.3978  0.3180
 5257TIP3    H237263   4.271   5.667   1.730  0.1483  1.9628  0.2184
 5258TIP3   OH237264   5.175   6.459  11.890 -0.4279 -0.2214 -0.4174
 5258TIP3    H137265   5.183   6.524  11.820 -0.7570  3.1863  2.4615
 5258TIP3    H237266   5.086   6.471  11.924  0.3231 -0.3924  1.7708
 5259TIP3   OH237267   2.367   2.555  12.245  0.2030 -0.5306 -0.1218
 5259TIP3    H137268   2.424   2.622  12.283 -0.9446  1.3209 -1.5304
 5259TIP3    H237269   2.422   2.476  12.244  2.6439  1.0608 -1.1053
 5260TIP3   OH237270   2.703   2.921  16.924  0.7395  0.2570 -0.1735
 5260TIP3    H137271   2.732   2.917  17.015  0.1396 -2.4391 -0.0343
 5260TIP3    H237272   2.612   2.952  16.930  0.9122  0.7386  0.0658
 5261TIP3   OH237273   0.703   5.064   4.941 -0.0867 -0.4247  0.7033
 5261TIP3    H137274   0.768   5.048   4.872 -0.8650 -1.1066  0.1112
 5261TIP3    H237275   0.738   5.018   5.017  1.4652  1.4584  1.2150
 5262TIP3   OH237276   2.029   5.382  14.433  0.4678  0.3748 -0.2885
 5262TIP3    H137277   1.999   5.291  14.433 -0.4749  0.6695  0.6292
 5262TIP3    H237278   2.101   5.384  14.495  0.4348  0.2794 -0.2474
 5263TIP3   OH237279   3.892   2.215   4.200  0.1113  0.5680  0.6475
 5263TIP3    H137280   3.901   2.197   4.293  2.0649 -2.1058  0.0940
 5263TIP3    H237281   3.830   2.287   4.194 -0.1188  0.7706  3.9792
 5264TIP3   OH237282   4.364   4.844  15.293 -0.1080 -0.3673  0.4722
 5264TIP3    H137283   4.282   4.892  15.300  0.1733  0.2271 -0.1832
 5264TIP3    H237284   4.384   4.844  15.199  0.2597 -1.1579  0.5410
 5265TIP3   OH237285   3.200   3.288   4.174 -0.3150  0.0211  0.2544
 5265TIP3    H137286   3.241   3.203   4.188 -0.4550 -0.4427 -1.8530
 5265TIP3    H237287   3.273   3.348   4.156 -0.3560 -0.1607 -0.5388
 5266TIP3   OH237288   3.231   3.791   4.896 -0.0599  1.0681 -0.0297
 5266TIP3    H137289   3.161   3.824   4.839 -0.4816  0.7597  0.3090
 5266TIP3    H237290   3.233   3.697   4.880  0.9399  1.2008 -0.7637
 5267TIP3   OH237291   6.349   0.899  10.394  0.4745 -0.5558 -0.4664
 5267TIP3    H137292   6.405   0.824  10.412  0.2798 -0.6068 -0.0525
 5267TIP3    H237293   6.265   0.861  10.368  0.3214 -0.4825 -0.0806
 5268TIP3   OH237294   3.591   5.288   0.637  0.0629  0.6484  1.1081
 5268TIP3    H137295   3.496   5.274   0.645 -0.0511  1.1888  0.7420
 5268TIP3    H237296   3.629   5.201   0.649 -0.5063  0.3635  0.8754
 5269TIP3   OH237297   3.760   4.719  17.164 -0.1550  0.0393  0.0281
 5269TIP3    H137298   3.692   4.664  17.202  0.9205 -0.3123  1.5217
 5269TIP3    H237299   3.840   4.668  17.173  0.5102  0.9326 -0.6255
 5270TIP3   OH237300   0.906   6.469  16.160 -0.0335  0.4406  0.0850
 5270TIP3    H137301   0.925   6.390  16.109 -0.5807 -0.6885  1.5573
 5270TIP3    H237302   0.924   6.541  16.100  0.1635 -0.8037 -1.4156
 5271TIP3   OH237303   4.941   6.197  14.437 -0.2199  0.2004 -0.9743
 5271TIP3    H137304   4.932   6.237  14.351 -0.2106  0.3308 -0.9167
 5271TIP3    H237305   4.910   6.265  14.498  0.7868  0.5219 -0.8031
 5272TIP3   OH237306   3.597   0.542  12.854 -0.3502 -0.1328  0.4303
 5272TIP3    H137307   3.679   0.519  12.811 -1.1964 -0.1238 -1.2764
 5272TIP3    H237308   3.623   0.593  12.931  1.2189  0.1824 -0.2806
 5273TIP3   OH237309   6.663   4.095   1.316  0.0636 -0.1278  0.0886
 5273TIP3    H137310   6.730   4.069   1.254 -0.3817  0.7745 -0.8021
 5273TIP3    H237311   6.598   4.142   1.264 -0.1931  0.8951  1.2566
 5274TIP3   OH237312   6.300   5.285  14.970  0.2371 -0.4901 -0.3004
 5274TIP3    H137313   6.382   5.334  14.959 -1.1569  2.0051 -0.2189
 5274TIP3    H237314   6.251   5.302  14.889 -0.0810 -2.3183 -0.5460
 5275TIP3   OH237315   2.914   4.071  16.260  0.1358  0.3505 -0.5813
 5275TIP3    H137316   2.902   4.083  16.166  1.1517  0.2313 -0.7393
 5275TIP3    H237317   2.826   4.055  16.294 -0.1573 -0.2778 -1.6076
 5276TIP3   OH237318   2.207   4.330   6.191  0.0620  0.0643 -0.3587
 5276TIP3    H137319   2.296   4.295   6.195 -0.5003 -1.3632  1.0973
 5276TIP3    H237320   2.157   4.273   6.250 -1.5693  1.5425 -0.2479
 5277TIP3   OH237321   4.457   6.770  12.223  0.3008 -0.3967 -0.5505
 5277TIP3    H137322   4.508   6.739  12.298 -0.2705 -1.7449 -0.6846
 5277TIP3    H237323   4.522   6.787  12.155  0.9483  1.8853  0.5217
 5278TIP3   OH237324   1.815   5.915   3.452 -0.7733 -0.6415  0.0936
 5278TIP3    H137325   1.746   5.876   3.505 -0.9545 -0.8133 -0.2661
 5278TIP3    H237326   1.896   5.885   3.493 -0.9098 -0.5934  0.4026
 5279TIP3   OH237327   2.475   2.366   3.244  0.0428 -0.6450 -0.0456
 5279TIP3    H137328   2.450   2.395   3.156 -0.4988  2.8195  1.0801
 5279TIP3    H237329   2.406   2.399   3.301  1.3023 -1.1660  1.8855
 5280TIP3   OH237330   3.512   5.071   2.901  0.1742 -0.0283  0.7027
 5280TIP3    H137331   3.433   5.108   2.940 -1.4503 -2.8976  0.3961
 5280TIP3    H237332   3.542   5.007   2.965  1.4851  0.0324  0.1826
 5281TIP3   OH237333   5.168   5.588  14.327 -0.3188 -0.1486  0.5474
 5281TIP3    H137334   5.202   5.670  14.363 -1.2499  1.4185 -1.8212
 5281TIP3    H237335   5.246   5.537  14.306  0.3930  0.9767  0.3392
 5282TIP3   OH237336   3.882   4.541   5.951  0.0025  0.1482  0.0099
 5282TIP3    H137337   3.916   4.490   6.025  1.1262  0.4622 -0.2729
 5282TIP3    H237338   3.788   4.524   5.952  0.3756 -2.3478 -0.3772
 5283TIP3   OH237339   4.466   3.685   5.425 -0.0636 -0.5019 -0.3634
 5283TIP3    H137340   4.493   3.594   5.410  0.7833 -0.1589 -1.0706
 5283TIP3    H237341   4.418   3.683   5.507  0.2474 -1.5345 -0.1887
 5284TIP3   OH237342   6.484   6.285  15.937  0.1610 -0.5282 -0.4383
 5284TIP3    H137343   6.579   6.288  15.923  0.3479 -1.3555  0.5777
 5284TIP3    H237344   6.460   6.195  15.919 -0.2962 -0.5317  0.1898
 5285TIP3   OH237345   6.074   6.659   4.946  0.4125  0.7396  0.1518
 5285TIP3    H137346   6.130   6.668   4.870 -0.9603  0.7948 -0.8940
 5285TIP3    H237347   6.087   6.569   4.975 -0.5953  0.0110 -1.4714
 5286TIP3   OH237348   1.830   2.082  11.051 -0.5103 -0.5609  0.3398
 5286TIP3    H137349   1.809   2.169  11.086 -0.8788 -0.0652 -1.0667
 5286TIP3    H237350   1.753   2.057  11.001  0.0025 -1.2628 -0.1115
 5287TIP3   OH237351   1.042   3.904  16.076 -0.4378 -0.2228 -0.0322
 5287TIP3    H137352   1.016   3.983  16.124 -2.9339 -0.4554 -0.8711
 5287TIP3    H237353   1.128   3.926  16.039 -1.4068  2.4389 -0.9142
 5288TIP3   OH237354   1.759   2.916  12.669 -0.4701 -0.1148 -0.0595
 5288TIP3    H137355   1.710   2.941  12.747 -0.9017  1.0194 -0.6804
 5288TIP3    H237356   1.705   2.849  12.626 -0.4561 -0.3946  0.3562
 5289TIP3   OH237357   2.437   6.622  13.201 -0.0026 -0.0240 -0.0211
 5289TIP3    H137358   2.494   6.569  13.145 -1.0745 -0.2111 -0.9793
 5289TIP3    H237359   2.497   6.679  13.249  1.2116 -2.1877  1.1654
 5290TIP3   OH237360   2.812   1.199  15.503  0.4354  0.4724  0.0065
 5290TIP3    H137361   2.820   1.260  15.430 -0.5066  0.9280  0.2700
 5290TIP3    H237362   2.747   1.135  15.474  0.4140  0.3802  0.2532
 5291TIP3   OH237363   1.513   0.275   5.341 -0.0291  0.2951 -0.1792
 5291TIP3    H137364   1.459   0.243   5.269  0.1894 -3.0955  1.0217
 5291TIP3    H237365   1.601   0.243   5.321  0.2943  0.4383  0.9746
 5292TIP3   OH237366   6.621   1.823  16.708  0.2011 -0.4203 -0.0601
 5292TIP3    H137367   6.648   1.835  16.617 -0.0721 -0.9247 -0.2084
 5292TIP3    H237368   6.571   1.742  16.708  2.1396 -1.7064  0.9321
 5293TIP3   OH237369   5.341   2.099  15.566  0.3097 -0.1962  0.1629
 5293TIP3    H137370   5.345   2.037  15.639  0.5578 -1.4917 -0.9132
 5293TIP3    H237371   5.318   2.183  15.607  1.3399 -0.6847  1.8249
 5294TIP3   OH237372   4.371   6.715  14.924 -0.2886 -0.3336  0.2358
 5294TIP3    H137373   4.325   6.727  15.007  1.8063 -1.7644  1.7262
 5294TIP3    H237374   4.330   6.639  14.883 -1.0417  0.1091  0.1617
 5295TIP3   OH237375   3.952   6.750  12.370  0.2857  0.2885 -0.3555
 5295TIP3    H137376   4.046   6.769  12.366  0.4458 -0.1667  0.8154
 5295TIP3    H237377   3.928   6.728  12.280  1.7526 -1.6571 -0.3307
 5296TIP3   OH237378   4.011   1.193   0.761  0.0677 -0.7332  0.0807
 5296TIP3    H137379   3.938   1.138   0.790 -0.6665 -0.8224 -1.7798
 5296TIP3    H237380   4.087   1.160   0.808 -0.6096 -2.4465  0.0368
 5297TIP3   OH237381   0.046   1.775  12.656  0.4008 -0.6995  0.3037
 5297TIP3    H137382   0.016   1.849  12.710  0.1976 -2.3325  2.5726
 5297TIP3    H237383   0.141   1.772  12.672  0.7475  0.2498 -1.3899
 5298TIP3   OH237384   3.815   2.661   3.473 -0.4055  0.1239  0.1059
 5298TIP3    H137385   3.857   2.608   3.406 -1.2859  0.4543 -0.7315
 5298TIP3    H237386   3.788   2.598   3.540 -0.0101 -0.2789 -0.1049
 5299TIP3   OH237387   5.176   2.360   5.352  0.3012  0.2128  0.0469
 5299TIP3    H137388   5.116   2.424   5.312  0.7961  1.9417  1.9313
 5299TIP3    H237389   5.261   2.379   5.313  0.2999  0.1513  0.0129
 5300TIP3   OH237390   0.405   5.503   1.793  0.2036 -0.0018  0.0204
 5300TIP3    H137391   0.387   5.471   1.705  1.9263  1.3151 -0.8910
 5300TIP3    H237392   0.412   5.425   1.847 -3.8680 -0.7608 -0.2860
 5301TIP3   OH237393   1.167   3.223  14.544 -0.3757  0.4135 -0.0304
 5301TIP3    H137394   1.164   3.231  14.449  0.7837  1.9992  0.0285
 5301TIP3    H237395   1.089   3.172  14.566 -1.5815  1.4361 -1.6922
 5302TIP3   OH237396   3.478   5.169   3.462 -0.5541  0.0676  0.4443
 5302TIP3    H137397   3.452   5.234   3.528 -0.0365 -0.7382  1.4592
 5302TIP3    H237398   3.572   5.181   3.453 -0.6090  0.1088 -0.0943
 5303TIP3   OH237399   5.623   0.101   0.900 -0.5369 -0.2253 -0.9151
 5303TIP3    H137400   5.648   0.041   0.830 -0.2939  0.5197 -1.4805
 5303TIP3    H237401   5.537   0.135   0.873 -0.0209  0.7768 -1.3415
 5304TIP3   OH237402   2.618   1.408   0.190  0.0631  0.4222 -0.5806
 5304TIP3    H137403   2.695   1.355   0.169  0.3066  0.3855  0.3315
 5304TIP3    H237404   2.632   1.434   0.281 -0.9249  0.5621 -0.4620
 5305TIP3   OH237405   1.128   3.124   5.386 -0.6351 -0.1615 -0.0682
 5305TIP3    H137406   1.090   3.073   5.314  3.2509  0.4357 -2.8738
 5305TIP3    H237407   1.183   3.190   5.342  2.7049 -0.2968  3.3954
 5306TIP3   OH237408   5.736   2.362  16.243  0.5940  0.2121 -0.1379
 5306TIP3    H137409   5.815   2.336  16.194  0.0803 -0.2850 -0.7254
 5306TIP3    H237410   5.693   2.426  16.187  0.5338  0.4156  0.1397
 5307TIP3   OH237411   3.921   1.739   0.295 -0.0358 -0.2097  0.5202
 5307TIP3    H137412   4.014   1.724   0.313  0.0529 -1.2184 -0.6443
 5307TIP3    H237413   3.876   1.676   0.351 -0.1259  1.0864  1.9940
 5308TIP3   OH237414   0.282   0.761  16.837  0.5260  0.0710  0.3821
 5308TIP3    H137415   0.204   0.806  16.870 -1.0382 -1.7391 -0.5650
 5308TIP3    H237416   0.341   0.831  16.810 -0.9516  1.5295  0.7365
 5309TIP3   OH237417   5.717   5.061   1.849  0.6528 -0.7545  0.5510
 5309TIP3    H137418   5.667   5.119   1.906  2.0889  2.3492 -1.1033
 5309TIP3    H237419   5.665   4.981   1.845 -2.1101  0.8079  2.0519
 5310TIP3   OH237420   2.717   0.047  11.234  0.3846 -0.0791  0.1747
 5310TIP3    H137421   2.652  -0.023  11.240  0.6309 -0.3771 -0.4704
 5310TIP3    H237422   2.667   0.123  11.203  0.3170 -0.2876 -0.2476
 5311TIP3   OH237423   4.870   4.919   5.110 -0.2197 -0.4882 -0.0374
 5311TIP3    H137424   4.914   4.858   5.170 -0.0264  1.0370  1.4556
 5311TIP3    H237425   4.941   4.959   5.060 -0.0556  0.5163  0.9628
 5312TIP3   OH237426   5.586   5.950   4.894 -0.1146 -0.1763  0.0872
 5312TIP3    H137427   5.618   5.912   4.812  1.1473  2.3601 -0.6921
 5312TIP3    H237428   5.516   5.891   4.922  0.9050 -2.3345 -1.6238
 5313TIP3   OH237429   2.016   4.227  13.590 -0.2227  0.2693  0.0629
 5313TIP3    H137430   2.015   4.311  13.637 -2.4210 -1.0239  2.6117
 5313TIP3    H237431   2.056   4.166  13.652 -0.2978 -0.9414 -1.0391
 5314TIP3   OH237432   4.923   3.324   5.227 -0.8291  0.0128 -0.4170
 5314TIP3    H137433   4.831   3.297   5.231 -0.6239 -0.7324 -0.7030
 5314TIP3    H237434   4.933   3.364   5.140 -1.1310  1.0526  0.0044
 5315TIP3   OH237435   6.514   3.611  16.232 -0.5786 -0.0517  0.2036
 5315TIP3    H137436   6.489   3.544  16.168 -0.1727  1.0861 -1.1946
 5315TIP3    H237437   6.603   3.636  16.207 -0.4308  0.4599  1.1945
 5316TIP3   OH237438   1.908   3.430  15.082  0.0059 -0.2709 -0.0556
 5316TIP3    H137439   1.990   3.382  15.069 -0.2474 -0.4205 -1.1768
 5316TIP3    H237440   1.840   3.363  15.076 -0.1678 -0.3940  2.2881
 5317TIP3   OH237441   5.848   0.288   0.861 -0.4594 -0.1513  0.4868
 5317TIP3    H137442   5.809   0.355   0.917 -0.3113 -0.7704  1.3556
 5317TIP3    H237443   5.801   0.207   0.883 -0.7233 -0.3218 -0.6364
 5318TIP3   OH237444   2.766   3.550   5.200 -0.3321  0.1492  0.4397
 5318TIP3    H137445   2.824   3.572   5.272  1.4864 -0.1523 -0.8573
 5318TIP3    H237446   2.729   3.465   5.223 -0.1801  0.3012  1.2470
 5319TIP3   OH237447   6.166   4.404  11.791 -0.0347  0.8152  0.1952
 5319TIP3    H137448   6.156   4.499  11.796 -0.2354  0.8840 -1.1060
 5319TIP3    H237449   6.077   4.372  11.774 -0.0509  0.3407  1.1203
 5320TIP3   OH237450   1.697   1.128   6.184 -0.6922 -0.0529 -0.1835
 5320TIP3    H137451   1.778   1.117   6.234 -0.6812  0.7086 -0.0232
 5320TIP3    H237452   1.637   1.064   6.223  0.5855 -2.5524 -2.0381
 5321TIP3   OH237453   5.313   1.121  10.959 -0.0474  0.1189  0.0712
 5321TIP3    H137454   5.325   1.137  10.866  0.9137  0.8875  0.3085
 5321TIP3    H237455   5.298   1.208  10.997 -2.4047 -0.3512  0.4022
 5322TIP3   OH237456   3.321   4.638   0.711 -0.0873 -0.4607 -0.7684
 5322TIP3    H137457   3.267   4.712   0.683  0.2930 -0.6219 -1.9950
 5322TIP3    H237458   3.259   4.573   0.743 -0.4972 -0.0402 -0.6991
 5323TIP3   OH237459   1.020   5.908  15.803 -0.8273  0.4619  0.2042
 5323TIP3    H137460   0.992   5.968  15.872  1.5209  4.7631 -2.0982
 5323TIP3    H237461   1.101   5.870  15.837 -2.0025 -1.0779  1.4397
 5324TIP3   OH237462   1.001   5.386  16.244 -0.8867 -0.6789 -0.1665
 5324TIP3    H137463   1.043   5.300  16.255  2.4950  0.7214 -0.9915
 5324TIP3    H237464   1.068   5.449  16.268 -2.6014  1.8318 -1.5164
 5325TIP3   OH237465   0.899   3.030   0.383  0.0990  0.4378 -0.2180
 5325TIP3    H137466   0.862   3.109   0.342  0.2501  1.7585  2.0086
 5325TIP3    H237467   0.864   3.031   0.472  0.0876 -2.0826 -0.1279
 5326TIP3   OH237468   6.234   3.493   2.324 -0.5712 -0.2919  0.0871
 5326TIP3    H137469   6.148   3.505   2.365  0.6049  0.0333  2.6323
 5326TIP3    H237470   6.246   3.398   2.321 -0.8346 -0.3277  0.1239
 5327TIP3   OH237471   4.341   1.979  15.863 -0.3814  0.0261 -0.5051
 5327TIP3    H137472   4.270   1.923  15.831 -0.7885 -1.7453  3.0560
 5327TIP3    H237473   4.421   1.930  15.842 -0.5785 -0.6418  0.2677
 5328TIP3   OH237474   5.976   4.296  13.626 -0.2516 -0.6966 -0.0219
 5328TIP3    H137475   6.022   4.219  13.592 -1.7619 -1.8306  0.4215
 5328TIP3    H237476   5.947   4.270  13.713  0.2364  0.8165  0.6289
 5329TIP3   OH237477   3.072   2.786   1.841 -0.4300  0.4799  0.0719
 5329TIP3    H137478   2.995   2.772   1.896 -1.2146  0.7408 -0.9388
 5329TIP3    H237479   3.123   2.706   1.851 -0.2073  0.7793  1.6963
 5330TIP3   OH237480   2.958   2.657   3.056 -0.3443  0.4869  0.9884
 5330TIP3    H137481   3.024   2.593   3.030 -1.3227 -0.1916  0.0740
 5330TIP3    H237482   2.896   2.608   3.110 -1.2136  0.5785  0.1126
 5331TIP3   OH237483   5.207   0.593  15.183 -0.3373  0.3277 -0.3345
 5331TIP3    H137484   5.177   0.537  15.254  0.8011 -2.1836 -1.7090
 5331TIP3    H237485   5.179   0.548  15.103  3.7811 -0.3782 -1.6211
 5332TIP3   OH237486   6.526   2.508   3.006  0.0725  0.2058 -0.4889
 5332TIP3    H137487   6.543   2.445   3.076 -0.7078 -1.0796 -1.4088
 5332TIP3    H237488   6.609   2.553   2.994  0.2677  0.3611  1.1481
 5333TIP3   OH237489   3.441   0.313   0.194 -0.7045  0.2795  0.1804
 5333TIP3    H137490   3.400   0.318   0.107 -1.8782  0.5550  0.7211
 5333TIP3    H237491   3.395   0.241   0.238  0.3380 -0.2942  0.3579
 5334TIP3   OH237492   1.563   2.310   3.659  0.2134 -0.0586 -0.4091
 5334TIP3    H137493   1.580   2.228   3.705  0.8423  0.3221  0.0530
 5334TIP3    H237494   1.468   2.316   3.655  0.1307  0.0273  1.0975
 5335TIP3   OH237495   0.060   0.244   1.914  0.3226  0.2084 -0.3072
 5335TIP3    H137496   0.014   0.163   1.891 -1.6677  0.9283  0.8541
 5335TIP3    H237497   0.115   0.219   1.988  1.3818 -0.5258 -1.3068
 5336TIP3   OH237498   3.736   4.038   0.412  0.3485  0.7676  0.3156
 5336TIP3    H137499   3.818   4.000   0.443  0.4881  0.6290 -0.2195
 5336TIP3    H237500   3.743   4.038   0.316 -0.8284 -0.4977  0.1898
 5337TIP3   OH237501   6.819   3.533   2.332  0.0443  0.5543  0.1850
 5337TIP3    H137502   6.786   3.574   2.252  1.0824 -0.6784 -0.9262
 5337TIP3    H237503   6.891   3.590   2.359 -0.1025  0.8070  0.0492
 5338TIP3   OH237504   2.281   1.244   2.964 -0.8711  0.2178  0.2777
 5338TIP3    H137505   2.335   1.209   3.034  0.2821 -0.2573 -0.8059
 5338TIP3    H237506   2.276   1.338   2.983 -1.0144  0.0222  1.2639
 5339TIP3   OH237507   0.538   5.771  16.696 -0.2561  0.1825 -0.0559
 5339TIP3    H137508   0.513   5.836  16.762  0.2798 -1.4280  1.7998
 5339TIP3    H237509   0.629   5.751  16.715  0.0868  0.0951 -1.6786
 5340TIP3   OH237510   4.193   3.624  13.416  0.3367 -0.1565  0.5861
 5340TIP3    H137511   4.283   3.643  13.444  0.5486  3.2717 -1.8265
 5340TIP3    H237512   4.202   3.555  13.351  1.2087  0.0341  0.4883
 5341TIP3   OH237513   0.288   2.393  16.021  0.5256 -0.6496 -0.0935
 5341TIP3    H137514   0.360   2.342  16.059  0.7705 -1.0143 -1.0219
 5341TIP3    H237515   0.324   2.482  16.012 -0.5853  0.3466  3.5466
 5342TIP3   OH237516   2.473   0.153  13.971  0.0769  0.0497 -0.3026
 5342TIP3    H137517   2.547   0.214  13.980 -0.3731  0.6479 -0.6111
 5342TIP3    H237518   2.505   0.071  14.009  0.5700  0.5786  0.4501
 5343TIP3   OH237519   6.161   2.602  11.199 -0.1988  0.1456 -0.3896
 5343TIP3    H137520   6.129   2.687  11.167 -2.0662  0.2231  1.4928
 5343TIP3    H237521   6.108   2.538  11.152 -1.2733  0.1795  0.7355
 5344TIP3   OH237522   6.001   0.172  13.141 -0.0457 -0.1687 -0.1552
 5344TIP3    H137523   6.013   0.093  13.193 -0.0949  0.2698  0.5426
 5344TIP3    H237524   6.089   0.204  13.125 -0.0620  0.4015  0.7935
 5345TIP3   OH237525   3.327   1.152   5.022  0.7312 -0.2854 -0.0651
 5345TIP3    H137526   3.334   1.172   5.115 -2.5268 -1.1415  0.4835
 5345TIP3    H237527   3.383   1.076   5.009  0.0010 -1.1553  1.6135
 5346TIP3   OH237528   1.195   3.712   0.348  0.4935 -0.1239  0.2229
 5346TIP3    H137529   1.201   3.807   0.355  0.9381 -0.0942 -0.4505
 5346TIP3    H237530   1.139   3.697   0.271 -1.1441 -0.4148  1.4201
 5347TIP3   OH237531   4.083   6.109   4.540 -0.3449  0.2795 -0.5185
 5347TIP3    H137532   4.053   6.107   4.449 -0.1759  0.9201 -0.5965
 5347TIP3    H237533   4.175   6.085   4.536  0.2193  2.2420 -0.7879
 5348TIP3   OH237534   3.376   3.244  12.927  0.0820 -0.3234  0.1860
 5348TIP3    H137535   3.412   3.157  12.909 -0.9783 -0.8282  0.4435
 5348TIP3    H237536   3.333   3.235  13.012  0.6308  0.6740  0.5815
 5349TIP3   OH237537   2.387   4.772  12.064  0.3116  0.1556  0.5923
 5349TIP3    H137538   2.464   4.782  12.119 -0.4778  2.2550  1.4061
 5349TIP3    H237539   2.317   4.816  12.112 -1.0843 -0.4858 -0.7624
 5350TIP3   OH237540   2.605   0.527  14.670 -0.1261  0.3574 -0.1912
 5350TIP3    H137541   2.631   0.435  14.666 -0.2885  0.0102  3.4605
 5350TIP3    H237542   2.680   0.574  14.633 -0.1695 -1.1812 -2.4230
 5351TIP3   OH237543   6.744   5.344   4.712  0.2029  0.2816 -0.1185
 5351TIP3    H137544   6.658   5.324   4.675 -0.5805  2.7311  0.2500
 5351TIP3    H237545   6.756   5.277   4.780 -0.9622 -0.6614 -0.7818
 5352TIP3   OH237546   2.094   2.669  11.797 -0.5072  0.2168 -0.0308
 5352TIP3    H137547   2.187   2.657  11.783  0.0843  1.1599  2.5308
 5352TIP3    H237548   2.067   2.594  11.850 -0.3872  1.6269  2.1373
 5353TIP3   OH237549   6.146   2.422   5.110  0.4461  0.0501  0.1685
 5353TIP3    H137550   6.146   2.366   5.188  1.9244  1.1013  0.9647
 5353TIP3    H237551   6.239   2.439   5.092  0.2390 -1.0126 -2.4765
 5354TIP3   OH237552   0.110   6.105   5.467  0.3403  0.8334 -0.0860
 5354TIP3    H137553   0.031   6.095   5.520  0.6083  0.4395  0.2399
 5354TIP3    H237554   0.170   6.039   5.500  0.3690  0.2987 -1.1534
 5355TIP3   OH237555   6.332   4.278  11.593  0.5491  0.0411  0.0304
 5355TIP3    H137556   6.396   4.347  11.578 -0.4811  0.5610 -2.5230
 5355TIP3    H237557   6.273   4.314  11.659  1.1002  0.8421  0.0994
 5356TIP3   OH237558   0.311   6.021  11.390 -0.3329 -0.5233 -0.8129
 5356TIP3    H137559   0.367   6.023  11.468 -1.7847  0.2736  0.2457
 5356TIP3    H237560   0.351   6.085  11.331  1.0746 -1.4979 -0.9878
 5357TIP3   OH237561   4.948   6.634   5.396  0.1273  0.0318  0.0361
 5357TIP3    H137562   5.008   6.671   5.462 -1.2020  1.3216  0.5937
 5357TIP3    H237563   4.862   6.669   5.421 -0.9733 -2.2297 -0.3873
 5358TIP3   OH237564   4.853   6.478   4.880  0.2808  0.1241 -0.9716
 5358TIP3    H137565   4.904   6.530   4.942  1.3393 -0.4186 -1.3478
 5358TIP3    H237566   4.778   6.446   4.930  1.3721 -0.7334  0.1830
 5359TIP3   OH237567   6.521   4.918   3.996  0.3986  0.5338  0.3265
 5359TIP3    H137568   6.473   4.867   4.060 -0.7159 -1.2247 -1.7732
 5359TIP3    H237569   6.496   5.009   4.014 -0.5406  0.0114  1.7927
 5360TIP3   OH237570   2.420   5.108   1.670 -0.0628  1.2555  0.3775
 5360TIP3    H137571   2.422   5.019   1.634  0.4912  0.8444  1.3767
 5360TIP3    H237572   2.345   5.109   1.728  0.0910  1.3512  0.5773
 5361TIP3   OH237573   5.059   3.721   4.182  1.2559  0.5148  0.5679
 5361TIP3    H137574   4.980   3.771   4.203  0.9300 -0.3544  1.4912
 5361TIP3    H237575   5.033   3.663   4.110  0.6468 -0.6908  1.7191
 5362TIP3   OH237576   0.906   3.120  13.211 -0.0390  0.5737  0.4690
 5362TIP3    H137577   0.932   3.070  13.288 -2.2871  1.0850  1.6584
 5362TIP3    H237578   0.826   3.166  13.238 -0.0719  1.9466 -1.7113
 5363TIP3   OH237579   0.379   6.080  14.549  0.0613 -0.4792  0.5914
 5363TIP3    H137580   0.305   6.141  14.554  0.0615 -0.5174  1.2321
 5363TIP3    H237581   0.441   6.122  14.490 -0.0064  0.0753  0.9054
 5364TIP3   OH237582   4.581   0.659   5.308  0.5218  0.3053  0.7948
 5364TIP3    H137583   4.585   0.564   5.300  1.3955  0.3375  0.7590
 5364TIP3    H237584   4.532   0.674   5.390 -1.5140 -0.1174 -0.2777
 5365TIP3   OH237585   5.345   2.481   2.453  0.0782  0.5687  0.7309
 5365TIP3    H137586   5.352   2.408   2.391  2.0599  0.4714  1.0030
 5365TIP3    H237587   5.251   2.497   2.461 -0.2826  2.0231 -3.8898
 5366TIP3   OH237588   0.666   0.115  17.088  0.2475 -0.3347  0.4220
 5366TIP3    H137589   0.614   0.181  17.132  1.0738  1.3273 -0.9405
 5366TIP3    H237590   0.742   0.101  17.145  0.1680  0.0744  0.6287
 5367TIP3   OH237591   0.353   4.255  16.589  0.1292  0.5361 -0.1797
 5367TIP3    H137592   0.330   4.203  16.666 -0.8933  0.9858 -0.1660
 5367TIP3    H237593   0.300   4.220  16.518 -1.6413  2.3797  0.1307
 5368TIP3   OH237594   5.312   0.957   2.813  0.0075  0.4147  0.4835
 5368TIP3    H137595   5.321   0.949   2.908 -2.0100  1.2052  0.7924
 5368TIP3    H237596   5.231   1.007   2.800  0.4764  0.7393 -1.6528
 5369TIP3   OH237597   2.794   3.711  16.602 -0.3473  0.3515 -0.4787
 5369TIP3    H137598   2.793   3.729  16.696 -0.1718  0.2216 -0.4512
 5369TIP3    H237599   2.704   3.685  16.581 -0.1958 -0.4416 -0.1837
 5370TIP3   OH237600   3.686   6.492  13.757  0.4590  0.0213  0.0644
 5370TIP3    H137601   3.622   6.422  13.748  1.2442 -0.5565 -1.5358
 5370TIP3    H237602   3.659   6.557  13.692  1.1567  0.0317 -0.2217
 5371TIP3   OH237603   6.038   0.067  14.120  0.6486 -0.7250  0.4578
 5371TIP3    H137604   6.099   0.088  14.050 -1.1055  0.8629 -0.6854
 5371TIP3    H237605   6.056   0.131  14.188  0.8727 -0.8675  0.5349
 5372TIP3   OH237606   6.086   4.186  14.767  0.3463 -0.3188 -0.0058
 5372TIP3    H137607   6.004   4.146  14.739  1.1085 -2.2006  0.3245
 5372TIP3    H237608   6.126   4.217  14.685 -0.2861 -0.1498 -0.2575
 5373TIP3   OH237609   5.262   0.163  15.017 -0.2117  0.8456  0.4398
 5373TIP3    H137610   5.293   0.133  14.931 -1.6770 -1.1197  0.5273
 5373TIP3    H237611   5.296   0.100  15.079  0.1096  1.7623  1.2204
 5374TIP3   OH237612   6.397   4.272  16.544  0.1400 -0.2250  0.8003
 5374TIP3    H137613   6.316   4.317  16.565  0.9356  1.2866  0.8060
 5374TIP3    H237614   6.370   4.192  16.500 -1.3399  0.9243 -0.4939
 5375TIP3   OH237615   6.709   3.296  13.045  0.6003  0.1691 -0.8645
 5375TIP3    H137616   6.756   3.217  13.020  0.5754  0.0986 -0.6902
 5375TIP3    H237617   6.673   3.277  13.131 -1.4753 -0.5473 -1.8241
 5376TIP3   OH237618   0.679   0.409   2.754 -0.2760 -0.5011  0.3528
 5376TIP3    H137619   0.666   0.318   2.726 -2.7059 -0.7882  2.0589
 5376TIP3    H237620   0.773   0.416   2.770  0.0962 -2.4386 -0.6773
 5377TIP3   OH237621   5.953   5.699   0.738 -0.1641 -0.0287 -0.2875
 5377TIP3    H137622   5.886   5.751   0.783 -1.9336  0.4677 -3.2165
 5377TIP3    H237623   5.924   5.608   0.750  0.1183 -0.0175  0.5908
 5378TIP3   OH237624   3.846   6.301   1.978 -0.1886 -0.0230  0.1208
 5378TIP3    H137625   3.796   6.382   1.963  0.1448  0.2313  0.3646
 5378TIP3    H237626   3.857   6.264   1.890 -2.0501 -0.8539  0.1943
 5379TIP3   OH237627   3.150   0.282  12.993  0.1841 -0.2181 -0.0074
 5379TIP3    H137628   3.129   0.359  12.940  0.4974  0.0037  0.1913
 5379TIP3    H237629   3.211   0.232  12.938 -1.7680 -1.5094 -1.1426
 5380TIP3   OH237630   3.411   6.643  15.936  0.4367  0.4457  0.2123
 5380TIP3    H137631   3.503   6.643  15.962  0.9398  0.7330 -1.4209
 5380TIP3    H237632   3.408   6.587  15.858 -0.7903  0.3819  0.2785
 5381TIP3   OH237633   5.770   4.696   0.121 -0.1746  0.1461  1.0780
 5381TIP3    H137634   5.863   4.703   0.138 -0.0685  0.6561  0.3475
 5381TIP3    H237635   5.754   4.754   0.046 -1.0320 -0.1068  1.0435
 5382TIP3   OH237636   4.183   3.101   2.996  0.4520  0.2943 -0.1831
 5382TIP3    H137637   4.181   3.008   3.020  1.9103  0.6008  1.3006
 5382TIP3    H237638   4.091   3.123   2.982 -0.0611 -1.0748  0.7209
 5383TIP3   OH237639   5.349   2.392  15.373 -0.1403  0.2876  0.0349
 5383TIP3    H137640   5.254   2.386  15.364 -0.1992  2.1929 -1.4613
 5383TIP3    H237641   5.367   2.373  15.465 -2.0245  0.3885  0.4558
 5384TIP3   OH237642   3.852   0.801   4.074  0.0248  0.4277  0.2230
 5384TIP3    H137643   3.937   0.786   4.033  0.1827  0.2491  0.6119
 5384TIP3    H237644   3.847   0.896   4.085  1.0916  0.2967  2.1150
 5385TIP3   OH237645   5.756   5.830   4.303 -0.4029  0.1472  0.0772
 5385TIP3    H137646   5.661   5.820   4.304 -0.5644  1.4882 -0.2828
 5385TIP3    H237647   5.788   5.750   4.261 -1.4460  0.0850 -0.6292
 5386TIP3   OH237648   0.856   0.123   4.170 -0.3683  0.6882 -0.2389
 5386TIP3    H137649   0.936   0.176   4.178  0.4548 -0.4840 -0.4284
 5386TIP3    H237650   0.875   0.044   4.221 -3.2515  2.3507  3.9542
 5387TIP3   OH237651   6.795   1.205   3.532  0.2732 -0.3951  0.2739
 5387TIP3    H137652   6.788   1.296   3.503  0.6725 -0.2001  0.7617
 5387TIP3    H237653   6.772   1.207   3.625 -2.0544 -1.1800 -0.2128
 5388TIP3   OH237654   2.806   4.298  12.641 -0.6173 -0.2330 -0.2397
 5388TIP3    H137655   2.782   4.356  12.713  0.9427  0.9310 -0.5942
 5388TIP3    H237656   2.759   4.332  12.565  1.9967  2.1658 -0.9782
 5389TIP3   OH237657   4.906   1.449  10.626  0.6534 -0.2336  0.3991
 5389TIP3    H137658   4.876   1.395  10.699  1.6137 -0.3145  0.7523
 5389TIP3    H237659   4.998   1.469  10.647 -0.0845  2.9879  1.1625
 5390TIP3   OH237660   5.562   3.324   2.840  0.0045  0.0512 -0.8368
 5390TIP3    H137661   5.590   3.293   2.754  1.0203  0.2181 -0.5754
 5390TIP3    H237662   5.602   3.263   2.902 -3.9485 -2.6360 -0.5126
 5391TIP3   OH237663   1.155   2.943  11.210  0.1323  0.2064  0.4851
 5391TIP3    H137664   1.124   2.853  11.207  0.3656  0.0969  1.0849
 5391TIP3    H237665   1.119   2.984  11.132 -2.3011  0.3431  1.5983
 5392TIP3   OH237666   2.787   5.352  12.408  0.1793  1.1319 -0.1892
 5392TIP3    H137667   2.770   5.429  12.463  0.8819  0.8291  0.4795
 5392TIP3    H237668   2.874   5.367  12.372  1.2956 -0.2892  1.6816
 5393TIP3   OH237669   2.847   3.918  16.812 -0.2143  0.1023 -0.1877
 5393TIP3    H137670   2.906   3.967  16.870 -0.5334  1.7725 -1.2221
 5393TIP3    H237671   2.872   3.946  16.724 -0.9601 -1.0096 -0.7675
 5394TIP3   OH237672   2.785   5.472   6.197 -0.2348  0.1529 -0.1506
 5394TIP3    H137673   2.853   5.481   6.264  1.3726  1.5921 -1.8535
 5394TIP3    H237674   2.782   5.557   6.154 -2.6985 -0.0807 -0.6105
 5395TIP3   OH237675   3.637   5.522   1.314 -0.0599  0.0599  0.7071
 5395TIP3    H137676   3.634   5.533   1.409  1.2449  0.5186  0.7161
 5395TIP3    H237677   3.707   5.458   1.299  0.0440  0.3130  0.0488
 5396TIP3   OH237678   6.760   4.898   3.853 -0.1875 -0.2880  0.0864
 5396TIP3    H137679   6.704   4.878   3.928 -1.2147  0.0241 -0.5829
 5396TIP3    H237680   6.706   4.877   3.777 -0.5176  2.7671 -0.6420
 5397TIP3   OH237681   1.234   3.034  15.233 -0.0138 -0.3262  0.0084
 5397TIP3    H137682   1.315   3.015  15.280 -0.2052  1.1775  1.0155
 5397TIP3    H237683   1.258   3.030  15.141  1.0526 -0.5582  0.2891
 5398TIP3   OH237684   0.522   1.713  15.449  1.0099  0.2148 -0.1281
 5398TIP3    H137685   0.532   1.801  15.412 -1.3062  1.2002  1.3583
 5398TIP3    H237686   0.582   1.712  15.524  0.7785  0.6659  0.0657
 5399TIP3   OH237687   3.459   5.601   0.971  0.3877  0.2343 -0.0591
 5399TIP3    H137688   3.552   5.581   0.962  0.2875  0.1420 -0.9910
 5399TIP3    H237689   3.419   5.563   0.893 -0.5226 -0.2809  0.6383
 5400TIP3   OH237690   1.281   0.368  16.161  0.0257  0.7018  0.2094
 5400TIP3    H137691   1.226   0.412  16.225 -1.0936  0.2044 -0.3701
 5400TIP3    H237692   1.358   0.425  16.151  0.6424  0.3669  2.5826
 5401TIP3   OH237693   2.729   0.225  13.999  0.1502  0.2257 -0.0662
 5401TIP3    H137694   2.777   0.142  13.999 -0.8414 -0.3803 -0.9898
 5401TIP3    H237695   2.790   0.287  13.959  1.3150  0.2334  1.6389
 5402TIP3   OH237696   3.922   4.375  16.360  0.1176  0.3415  0.0117
 5402TIP3    H137697   3.892   4.394  16.449 -0.6041 -0.8780  0.0605
 5402TIP3    H237698   3.962   4.288  16.367  1.2457  0.7985 -0.6083
 5403TIP3   OH237699   0.069   5.929   5.113  0.5886  0.3833 -0.1743
 5403TIP3    H137700   0.003   5.998   5.103  0.1077 -0.0667 -0.1166
 5403TIP3    H237701   0.152   5.972   5.088  0.4245  1.2063  0.6478
 5404TIP3   OH237702   4.926   5.971   2.831  0.3163 -0.1598 -0.0572
 5404TIP3    H137703   4.882   5.952   2.748  0.2441  1.2747 -0.3770
 5404TIP3    H237704   4.856   5.968   2.897  0.1024  0.1598 -0.2701
 5405TIP3   OH237705   5.626   2.266   3.370  0.3158  0.1003 -0.4954
 5405TIP3    H137706   5.591   2.219   3.294 -2.1961 -1.1170  1.2718
 5405TIP3    H237707   5.612   2.206   3.443  2.1670  1.4423  1.0666
 5406TIP3   OH237708   6.346   3.404   0.701  0.3476 -0.4764  0.1698
 5406TIP3    H137709   6.435   3.386   0.671  0.5117  1.3626 -0.6185
 5406TIP3    H237710   6.349   3.391   0.796  1.1189 -1.6085  0.0050
 5407TIP3   OH237711   5.854   0.159   4.087 -0.0180  0.2897  0.2757
 5407TIP3    H137712   5.882   0.118   4.005  2.4702  1.7499  0.2890
 5407TIP3    H237713   5.847   0.087   4.149  2.9209 -0.3875 -0.0299
 5408TIP3   OH237714   4.297   6.246  12.205  0.3201  0.0502  0.1567
 5408TIP3    H137715   4.272   6.204  12.123  0.3990 -1.2897  0.7986
 5408TIP3    H237716   4.277   6.181  12.272 -0.2597  1.3306  1.2699
 5409TIP3   OH237717   2.260   3.496  14.054 -0.4230  0.3046 -0.1026
 5409TIP3    H137718   2.311   3.416  14.043  1.2773  1.5756 -2.5997
 5409TIP3    H237719   2.172   3.474  14.026 -1.1611 -1.6651  3.2434
 5410TIP3   OH237720   6.555   6.158  14.800  0.1347 -0.4675  0.2767
 5410TIP3    H137721   6.612   6.150  14.877  0.1114  1.6077  0.5501
 5410TIP3    H237722   6.466   6.156  14.835  0.0785 -0.9965  0.1217
 5411TIP3   OH237723   3.901   1.875  14.375  0.4081 -0.1366 -0.3213
 5411TIP3    H137724   3.815   1.875  14.333  0.3426  0.5313 -0.2015
 5411TIP3    H237725   3.944   1.795  14.344 -0.9635 -1.4759  1.0916
 5412TIP3   OH237726   4.950   3.852   6.076 -0.3533 -0.4597  0.1275
 5412TIP3    H137727   5.000   3.908   6.016 -1.2306 -1.5222 -1.6549
 5412TIP3    H237728   5.016   3.820   6.138  1.1516 -1.3881 -1.8254
 5413TIP3   OH237729   5.798   2.789   5.141 -0.5430 -0.1125  1.0014
 5413TIP3    H137730   5.853   2.726   5.096 -1.5557 -1.8092  2.0346
 5413TIP3    H237731   5.713   2.746   5.149 -0.7416  0.5791  3.4472
 5414TIP3   OH237732   5.634   3.243   3.369  0.5424 -0.1751  0.8218
 5414TIP3    H137733   5.698   3.285   3.427  1.0965 -0.1266  0.1746
 5414TIP3    H237734   5.673   3.247   3.282 -0.8458  0.9317  0.2048
 5415TIP3   OH237735   0.890   4.744   2.521  1.1002  0.3816 -0.1245
 5415TIP3    H137736   0.799   4.764   2.541  1.5371  1.8347  0.5674
 5415TIP3    H237737   0.910   4.666   2.572  0.4624  0.5147  0.3376
 5416TIP3   OH237738   6.352   0.772  13.441 -0.4879  0.1640  0.6406
 5416TIP3    H137739   6.393   0.781  13.527 -1.5943  0.6085  1.1324
 5416TIP3    H237740   6.359   0.858  13.401 -0.3878  0.0767  0.4664
 5417TIP3   OH237741   2.564   4.855  14.564  0.4575 -0.0140  0.0977
 5417TIP3    H137742   2.536   4.764  14.566  1.0260 -0.1918  1.0997
 5417TIP3    H237743   2.659   4.851  14.556  0.4623  0.5033 -0.1979
 5418TIP3   OH237744   6.514   2.729   5.140 -0.3686 -0.4232  0.1317
 5418TIP3    H137745   6.538   2.818   5.167  0.6755 -0.4149 -0.7473
 5418TIP3    H237746   6.469   2.692   5.215  0.4219  0.3745  1.0245
 5419TIP3   OH237747   2.494   2.801  14.804  0.1820  0.0624  0.2777
 5419TIP3    H137748   2.547   2.723  14.791 -1.2560 -0.8763 -0.2345
 5419TIP3    H237749   2.442   2.781  14.883 -1.0110 -0.0067 -0.4998
 5420TIP3   OH237750   2.460   1.187  15.485  0.0541 -0.2550  0.3190
 5420TIP3    H137751   2.397   1.254  15.457  1.8178 -0.0410 -3.7680
 5420TIP3    H237752   2.409   1.106  15.486 -0.8372  0.2700 -0.5801
 5421TIP3   OH237753   4.539   2.483  12.785  0.1733 -0.5691 -0.6792
 5421TIP3    H137754   4.506   2.393  12.787 -0.7882 -0.2057  0.6367
 5421TIP3    H237755   4.482   2.528  12.722  0.1712 -0.6956 -0.7682
 5422TIP3   OH237756   6.438   0.767  12.419 -0.1678  0.0217  0.2170
 5422TIP3    H137757   6.477   0.832  12.360 -2.0217  0.6966 -0.3236
 5422TIP3    H237758   6.441   0.685  12.370  1.1251 -0.0848  0.4422
 5423TIP3   OH237759   2.645   1.454   0.475  0.6809 -0.1452 -0.2680
 5423TIP3    H137760   2.736   1.443   0.505  0.5103  0.5977  0.5406
 5423TIP3    H237761   2.592   1.425   0.549  0.2599  0.5672 -0.2829
 5424TIP3   OH237762   5.473   3.835   3.159  0.0922 -0.5000 -0.1585
 5424TIP3    H137763   5.548   3.862   3.211  1.3703 -0.8223 -1.7349
 5424TIP3    H237764   5.455   3.909   3.101 -1.8832  0.2183  1.2475
 5425TIP3   OH237765   2.736   4.230   2.677 -0.6752  0.5028  0.1044
 5425TIP3    H137766   2.710   4.170   2.747 -1.0258 -1.3750 -1.5660
 5425TIP3    H237767   2.755   4.313   2.723 -2.2705 -0.2163  2.2330
 5426TIP3   OH237768   5.381   4.840   2.146  0.1690  0.4200 -0.1314
 5426TIP3    H137769   5.306   4.893   2.117  0.5817  0.5182 -1.0411
 5426TIP3    H237770   5.374   4.759   2.095  0.9467  0.6249 -0.5813
 5427TIP3   OH237771   3.110   6.030   4.716 -0.5597  0.2893 -0.1513
 5427TIP3    H137772   3.205   6.018   4.712 -0.3623  0.8538  1.9208
 5427TIP3    H237773   3.091   6.094   4.648  0.7461  1.2046  0.3090
 5428TIP3   OH237774   6.289   0.567  12.910  0.3617 -0.3292  0.0326
 5428TIP3    H137775   6.359   0.519  12.865 -0.3226 -0.9634 -0.3919
 5428TIP3    H237776   6.324   0.655  12.923  2.1747 -1.2698  2.0363
 5429TIP3   OH237777   5.177   0.321   5.485  0.4555 -0.4207  0.2274
 5429TIP3    H137778   5.176   0.410   5.450  1.7813 -1.1536 -1.8705
 5429TIP3    H237779   5.258   0.282   5.450 -0.3599 -2.6238  0.6092
 5430TIP3   OH237780   5.839   5.529   3.191 -0.1047  0.0650  0.1738
 5430TIP3    H137781   5.771   5.583   3.150  1.0055  0.7964 -0.7932
 5430TIP3    H237782   5.916   5.586   3.192 -0.1714  0.3625  3.9313
 5431TIP3   OH237783   3.722   6.705   0.490  0.0577  0.2464 -0.2326
 5431TIP3    H137784   3.695   6.628   0.440  1.1657 -0.4710  0.2506
 5431TIP3    H237785   3.655   6.771   0.470 -0.0636 -0.3243 -1.8908
 5432TIP3   OH237786   6.645   0.122  15.007  0.3710 -0.2669 -0.0319
 5432TIP3    H137787   6.721   0.087  15.052  2.1041 -0.3175 -2.7991
 5432TIP3    H237788   6.679   0.155  14.924 -2.6661 -0.6381 -1.5675
 5433TIP3   OH237789   4.631   2.780   6.743 -0.0447 -0.1091  0.1107
 5433TIP3    H137790   4.667   2.705   6.790  0.0448 -1.3641 -1.8730
 5433TIP3    H237791   4.577   2.742   6.674 -0.0789  1.6393 -0.8862
 5434TIP3   OH237792   3.824   1.764   6.659 -0.0853 -0.5241  0.3384
 5434TIP3    H137793   3.910   1.779   6.699 -0.1352 -0.8352  0.5648
 5434TIP3    H237794   3.831   1.802   6.572 -0.1061  0.5548  0.7873
 5435TIP3   OH237795   2.048   3.688   5.656 -0.0954  0.2412  0.2560
 5435TIP3    H137796   1.989   3.696   5.730  0.1223 -2.1530  0.7805
 5435TIP3    H237797   2.123   3.742   5.679 -0.3281  0.0637  1.4819
 5436TIP3   OH237798   2.884   4.614   1.647 -0.1338 -0.2766 -0.3918
 5436TIP3    H137799   2.793   4.641   1.634  0.0804  0.7992  0.1878
 5436TIP3    H237800   2.906   4.646   1.735  0.2412 -2.1720  0.2475
 5437TIP3   OH237801   0.774   3.745  12.724  0.4669 -0.0818  0.1824
 5437TIP3    H137802   0.831   3.692  12.779 -0.9186  0.0210  1.8037
 5437TIP3    H237803   0.715   3.681  12.683  0.2639  0.0016  0.3421
 5438TIP3   OH237804   4.732   6.587   0.176  0.1313  0.3822  0.2998
 5438TIP3    H137805   4.738   6.570   0.270  0.8068  0.5155  0.2886
 5438TIP3    H237806   4.672   6.520   0.143  2.5133 -1.9133  0.2897
 5439TIP3   OH237807   5.390   1.080  12.690 -0.6006  0.1825 -0.4123
 5439TIP3    H137808   5.479   1.115  12.694 -0.1793 -0.8736 -0.0878
 5439TIP3    H237809   5.380   1.051  12.599 -1.0623  1.3954 -0.7612
 5440TIP3   OH237810   5.615   3.733  15.471 -0.2953 -0.0180 -0.6466
 5440TIP3    H137811   5.601   3.823  15.441 -2.3197  0.9552  2.5659
 5440TIP3    H237812   5.528   3.705  15.502  1.0653 -1.5007  2.2033
 5441TIP3   OH237813   0.794   2.829   5.391 -0.7208 -0.0084 -0.5810
 5441TIP3    H137814   0.744   2.748   5.388 -0.6228 -0.0470 -1.7962
 5441TIP3    H237815   0.879   2.805   5.353  1.5218 -0.7637  4.2574
 5442TIP3   OH237816   3.997   2.189   3.471  0.6109  0.2751  0.3805
 5442TIP3    H137817   4.056   2.190   3.546 -1.4646 -2.1262  2.2363
 5442TIP3    H237818   4.048   2.149   3.400  1.9392  0.4975  1.1836
 5443TIP3   OH237819   3.913   0.608  11.985 -0.6411  0.6119  0.7903
 5443TIP3    H137820   3.945   0.538  12.043  0.4714  0.5413  0.1144
 5443TIP3    H237821   3.828   0.631  12.021  0.6124  1.6087  3.3765
 5444TIP3   OH237822   1.494   3.298   4.939 -0.0465 -0.4078  0.1063
 5444TIP3    H137823   1.418   3.254   4.979 -0.7369  0.4889 -0.1928
 5444TIP3    H237824   1.515   3.243   4.863 -1.1455 -0.0505 -0.4853
 5445TIP3   OH237825   6.019   2.635   3.666  0.2932  0.9847  0.0381
 5445TIP3    H137826   6.094   2.620   3.724  0.8450 -0.8883 -1.0440
 5445TIP3    H237827   5.945   2.647   3.725  0.5216 -2.4606  1.2873
 5446TIP3   OH237828   4.813   4.814  11.362  0.5434  0.0190  0.0918
 5446TIP3    H137829   4.837   4.730  11.321  0.9353  1.0896 -2.0143
 5446TIP3    H237830   4.862   4.879  11.312 -0.2655  1.5795  1.2652
 5447TIP3   OH237831   0.568   2.003   2.152  0.0045 -0.1306  0.2544
 5447TIP3    H137832   0.493   1.973   2.101  0.7515  1.8366 -2.1415
 5447TIP3    H237833   0.530   2.037   2.233 -1.4402 -1.0430 -0.0001
 5448TIP3   OH237834   0.020   2.022   2.864 -0.1431  0.3705  0.0233
 5448TIP3    H137835   0.023   2.117   2.853  1.7213  0.5611  1.6192
 5448TIP3    H237836   0.051   2.007   2.953  2.2602 -1.8585 -1.0442
 5449TIP3   OH237837   3.370   5.472  16.003  0.2125  0.2259  0.5610
 5449TIP3    H137838   3.463   5.495  16.001  0.3663 -0.4088  0.2452
 5449TIP3    H237839   3.330   5.527  15.936 -0.0951  2.3691  2.3985
 5450TIP3   OH237840   4.403   1.012   3.400  0.8388 -0.0190 -0.0641
 5450TIP3    H137841   4.450   1.082   3.444  0.1778 -0.7211  1.8595
 5450TIP3    H237842   4.313   1.018   3.433  0.6392 -1.4003 -0.2840
 5451TIP3   OH237843   6.791   5.615  13.078  0.0265  0.1704 -0.0492
 5451TIP3    H137844   6.870   5.663  13.103 -0.2873  0.8644 -0.3612
 5451TIP3    H237845   6.798   5.531  13.123  0.2174  0.8031  1.1436
 5452TIP3   OH237846   5.405   1.491   0.095  0.2427 -0.2833 -0.2051
 5452TIP3    H137847   5.380   1.409   0.137  0.5235 -0.4346 -0.3328
 5452TIP3    H237848   5.501   1.489   0.093  0.2579  0.1765  0.0514
 5453TIP3   OH237849   2.789   5.040   0.437  0.3497 -0.5837 -0.3515
 5453TIP3    H137850   2.746   5.021   0.520  0.4248 -0.5963 -0.3150
 5453TIP3    H237851   2.759   4.970   0.378  1.4999 -1.4836  0.0971
 5454TIP3   OH237852   2.283   2.415  13.178 -0.5584  0.0401 -0.4426
 5454TIP3    H137853   2.306   2.379  13.264 -0.6790  2.2131  0.5639
 5454TIP3    H237854   2.195   2.449  13.189 -1.0728 -0.7699 -1.8361
 5455TIP3   OH237855   6.409   2.892   3.561 -0.4556 -0.0835  0.3597
 5455TIP3    H137856   6.454   2.961   3.511  0.5589 -0.0230  1.3034
 5455TIP3    H237857   6.427   2.812   3.513  2.0263 -0.3027  1.4669
 5456TIP3   OH237858   4.911   3.395  11.777 -0.4498 -0.0218 -0.0297
 5456TIP3    H137859   4.927   3.435  11.692  0.6786  0.4331  0.3881
 5456TIP3    H237860   4.922   3.466  11.840  0.6307 -0.7587  0.6390
 5457TIP3   OH237861   5.573   6.625  11.875  0.5584  0.6250  0.6041
 5457TIP3    H137862   5.632   6.698  11.858  0.0706  0.7598 -0.6329
 5457TIP3    H237863   5.486   6.666  11.884  0.4595  0.3096  1.1680
 5458TIP3   OH237864   6.180   6.066  16.866 -0.4991 -0.1817  0.7678
 5458TIP3    H137865   6.126   6.069  16.945 -1.6020 -1.3687  0.1061
 5458TIP3    H237866   6.199   6.157  16.845 -1.0611  0.1884  1.8094
 5459TIP3   OH237867   3.630   2.270  11.937  0.0818 -0.8037  0.2669
 5459TIP3    H137868   3.692   2.198  11.942  0.7882 -0.1924  0.4748
 5459TIP3    H237869   3.571   2.246  11.866  1.0778 -0.9917 -0.5197
 5460TIP3   OH237870   4.587   2.887   2.642  0.3171 -0.0903  0.3376
 5460TIP3    H137871   4.542   2.886   2.557  2.1689  0.6120 -0.7160
 5460TIP3    H237872   4.547   2.959   2.690 -1.9842 -1.5946  0.8226
 5461TIP3   OH237873   4.762   3.870  11.753  0.7144  0.2738  0.2727
 5461TIP3    H137874   4.781   3.958  11.788  0.9249  0.1010  0.6001
 5461TIP3    H237875   4.799   3.810  11.818  0.3021 -0.0620  0.2004
 5462TIP3   OH237876   0.301   3.731   0.601  0.7337 -0.5467  0.4363
 5462TIP3    H137877   0.256   3.665   0.548 -0.4387 -1.0374  1.9734
 5462TIP3    H237878   0.231   3.788   0.633  1.2616 -0.8312  2.2049
 5463TIP3   OH237879   2.704   0.300   4.168 -0.0942 -0.1390 -0.0291
 5463TIP3    H137880   2.791   0.291   4.204  0.0919 -2.0611 -0.8469
 5463TIP3    H237881   2.718   0.334   4.080 -0.2142  0.1834  0.0768
 5464TIP3   OH237882   4.264   5.429  11.209 -0.4004  0.3420 -0.6062
 5464TIP3    H137883   4.339   5.408  11.153 -0.2310  0.2471 -0.3407
 5464TIP3    H237884   4.205   5.355  11.199 -1.1551  1.0877 -2.0039
 5465TIP3   OH237885   2.700   4.371   1.853  0.6017 -0.4396  0.3580
 5465TIP3    H137886   2.661   4.291   1.887  0.5799 -0.7221 -0.3139
 5465TIP3    H237887   2.770   4.341   1.794  0.2261  0.0079 -0.3371
 5466TIP3   OH237888   3.739   4.572   2.649  0.3584  0.4717 -0.5028
 5466TIP3    H137889   3.670   4.600   2.588 -1.2713 -0.2580  0.9115
 5466TIP3    H237890   3.711   4.604   2.734  1.1411 -0.8669  0.3043
 5467TIP3   OH237891   4.754   4.820   1.045 -0.0425  0.4201 -0.3246
 5467TIP3    H137892   4.816   4.886   1.077  1.2903 -0.7143 -0.4751
 5467TIP3    H237893   4.802   4.738   1.050 -1.9908 -0.7476  0.8745
 5468TIP3   OH237894   3.129   1.119  11.122  0.6799 -0.2688  0.9437
 5468TIP3    H137895   3.151   1.194  11.067  1.1982 -2.5684 -2.2993
 5468TIP3    H237896   3.038   1.099  11.101  1.0296 -1.4752  0.4712
 5469TIP3   OH237897   5.335   2.179  11.464  0.2211 -0.3252 -0.5566
 5469TIP3    H137898   5.345   2.211  11.374 -0.8721  1.6701 -0.0430
 5469TIP3    H237899   5.401   2.228  11.514  1.4070 -2.0390 -0.3472
 5470TIP3   OH237900   3.897   6.758   0.713 -0.0417 -0.2698 -0.0810
 5470TIP3    H137901   3.861   6.721   0.632  2.5842  2.4946 -2.8211
 5470TIP3    H237902   3.853   6.843   0.721  2.3996  1.1985 -0.9992
 5471TIP3   OH237903   6.484   1.206   3.130  0.2598 -0.2714 -0.3340
 5471TIP3    H137904   6.464   1.155   3.052  0.5077 -0.2103 -0.4403
 5471TIP3    H237905   6.404   1.255   3.148  0.4336  0.2656 -0.9781
 5472TIP3   OH237906   3.939   6.080  14.998  0.3880 -0.1221  0.2141
 5472TIP3    H137907   3.872   6.067  15.065  1.1574 -2.2122  0.6736
 5472TIP3    H237908   3.906   6.033  14.922  0.7112 -0.0194  0.0088
 5473TIP3   OH237909   0.805   2.735  14.007 -0.6371  0.1791  0.1644
 5473TIP3    H137910   0.751   2.773  13.939  0.6403  1.3446 -0.2386
 5473TIP3    H237911   0.892   2.729  13.968  0.0800  0.6997  1.6182
 5474TIP3   OH237912   1.570   3.233   5.507  0.3277 -0.0936 -0.0832
 5474TIP3    H137913   1.510   3.307   5.504  1.3117  0.7003 -0.7055
 5474TIP3    H237914   1.590   3.214   5.416  0.4031 -0.8829  0.0847
 5475TIP3   OH237915   6.341   3.197   0.049  0.3839 -0.2446 -0.8423
 5475TIP3    H137916   6.294   3.178   0.130 -0.6386  3.1956 -0.4501
 5475TIP3    H237917   6.428   3.224   0.077  1.0365 -1.8344 -1.2038
 5476TIP3   OH237918   5.394   5.218   3.502 -0.4605  0.1623 -0.0725
 5476TIP3    H137919   5.334   5.158   3.457  0.1517 -2.1421  1.9836
 5476TIP3    H237920   5.480   5.178   3.491 -0.0726  0.4427  1.6710
 5477TIP3   OH237921   2.284   0.125   6.071 -0.5572 -0.3449 -0.3610
 5477TIP3    H137922   2.244   0.048   6.110 -0.7003  0.1160  0.4065
 5477TIP3    H237923   2.370   0.133   6.114  0.4456 -1.3767 -2.0485
 5478TIP3   OH237924   4.841   6.037   2.176 -0.1320 -0.0505 -0.3550
 5478TIP3    H137925   4.751   6.012   2.197  0.5041 -1.4618  0.7906
 5478TIP3    H237926   4.864   6.103   2.242 -0.4955  0.7524 -1.0073
 5479TIP3   OH237927   4.250   6.764  16.109 -0.0484  0.5316  0.1458
 5479TIP3    H137928   4.322   6.828  16.102  0.2675 -0.0005 -4.4995
 5479TIP3    H237929   4.171   6.815  16.089 -0.5904  0.4720  2.0068
 5480TIP3   OH237930   6.835   4.839   4.680 -0.4503  0.3663 -0.3937
 5480TIP3    H137931   6.763   4.902   4.678 -0.7595  0.0843  0.8595
 5480TIP3    H237932   6.811   4.772   4.616 -1.0892  0.4991 -0.2950
 5481TIP3   OH237933   5.715   1.646   1.396  0.3979  0.1543  0.2227
 5481TIP3    H137934   5.740   1.736   1.375  0.0553  0.2820  0.3571
 5481TIP3    H237935   5.651   1.623   1.328 -1.4135  0.8848  1.6307
 5482TIP3   OH237936   6.438   3.017  14.400 -0.0588 -0.0843 -0.4575
 5482TIP3    H137937   6.516   3.064  14.371 -0.4745 -0.0523 -1.5630
 5482TIP3    H237938   6.448   3.011  14.495  0.6184  1.1210 -0.4318
 5483TIP3   OH237939   1.884   4.379   2.348 -0.8847 -0.0859  0.3075
 5483TIP3    H137940   1.811   4.386   2.287 -0.7455 -1.3639 -0.0327
 5483TIP3    H237941   1.931   4.462   2.339 -0.9302 -0.2119 -1.2432
 5484TIP3   OH237942   2.714   3.163  16.527  0.5514 -1.0364  0.6892
 5484TIP3    H137943   2.645   3.154  16.462  0.0847 -1.3300  1.2201
 5484TIP3    H237944   2.731   3.073  16.557 -1.3647 -0.6888  3.1580
 5485TIP3   OH237945   1.991   6.282   1.974 -0.5446 -0.4271 -0.8057
 5485TIP3    H137946   1.902   6.316   1.983 -0.7803 -0.5040 -2.5933
 5485TIP3    H237947   2.016   6.303   1.885  2.7818  3.2231  0.6997
 5486TIP3   OH237948   0.227   1.876  11.023 -0.6621 -0.2365 -0.1947
 5486TIP3    H137949   0.275   1.934  11.082  1.1472 -1.1375 -0.7242
 5486TIP3    H237950   0.253   1.905  10.935 -0.2805 -1.3860 -0.4750
 5487TIP3   OH237951   2.870   3.959   3.150 -0.0461  0.7555 -0.0108
 5487TIP3    H137952   2.812   4.033   3.168 -0.6401  0.0688  1.0208
 5487TIP3    H237953   2.811   3.884   3.139  0.5673  0.3452 -0.5354
 5488TIP3   OH237954   3.781   0.040   4.890 -0.6872 -0.1118 -0.0935
 5488TIP3    H137955   3.692   0.052   4.857 -0.9335 -1.0117  0.2049
 5488TIP3    H237956   3.835   0.098   4.836 -1.4640  0.5066 -0.2174
 5489TIP3   OH237957   3.311   6.176  12.331 -0.4583 -0.4552 -0.0501
 5489TIP3    H137958   3.310   6.169  12.426  2.3295 -0.1865  0.0854
 5489TIP3    H237959   3.242   6.239  12.311 -2.2038 -1.7232  1.5941
 5490TIP3   OH237960   1.691   0.200   3.559  0.5583  0.4862 -0.6135
 5490TIP3    H137961   1.766   0.188   3.617  0.3700 -0.4683 -0.5408
 5490TIP3    H237962   1.635   0.124   3.577 -0.2051  0.9537 -0.9878
 5491TIP3   OH237963   3.247   5.034  16.222 -0.7833 -0.1564 -0.5114
 5491TIP3    H137964   3.313   4.972  16.192  1.0445  1.3185  0.2432
 5491TIP3    H237965   3.166   4.984  16.225  0.6337 -2.5447  0.2573
 5492TIP3   OH237966   6.236   3.761   0.014 -0.1091  0.3942  0.8205
 5492TIP3    H137967   6.325   3.775   0.044  0.4509  1.4870 -1.1588
 5492TIP3    H237968   6.212   3.675   0.050  2.6658 -1.1132 -0.5719
 5493TIP3   OH237969   5.521   1.056   5.539  0.2001  0.2172  0.2517
 5493TIP3    H137970   5.453   1.006   5.496  1.1070 -0.1078 -0.8471
 5493TIP3    H237971   5.551   1.119   5.473 -0.2572  1.5726  1.2948
 5494TIP3   OH237972   0.756   3.731   5.582  0.8713 -0.0834 -0.0975
 5494TIP3    H137973   0.662   3.748   5.573  0.1294 -2.9779  0.8754
 5494TIP3    H237974   0.771   3.731   5.677  0.8893 -3.3891  0.0240
 5495TIP3   OH237975   5.311   1.425  13.913  0.0430  0.2388 -0.1859
 5495TIP3    H137976   5.319   1.331  13.895 -1.8040 -0.1578  0.8061
 5495TIP3    H237977   5.302   1.431  14.008  2.1347  1.6385 -0.0063
 5496TIP3   OH237978   3.915   2.562  14.352 -0.1782 -0.7278  0.0630
 5496TIP3    H137979   3.901   2.611  14.434 -1.5827 -0.1930 -0.4682
 5496TIP3    H237980   4.010   2.568  14.337  0.2094 -1.4125  1.9834
 5497TIP3   OH237981   5.787   0.566  15.404 -0.1696  0.1131  0.0179
 5497TIP3    H137982   5.828   0.553  15.319 -0.4759 -0.5710 -0.0295
 5497TIP3    H237983   5.735   0.487  15.418 -0.3106  0.3269  0.7314
 5498TIP3   OH237984   0.104   3.866   3.930  0.3616 -0.4272 -0.6810
 5498TIP3    H137985   0.110   3.883   3.835  0.5467 -1.1248 -0.8013
 5498TIP3    H237986   0.080   3.950   3.968 -0.2118 -0.2523 -1.4011
 5499TIP3   OH237987   6.561   0.251  13.810  0.0362  0.1351 -0.2714
 5499TIP3    H137988   6.656   0.264  13.808  0.1120 -0.4740 -1.0022
 5499TIP3    H237989   6.546   0.199  13.888  0.3394 -0.0264 -0.3176
 5500TIP3   OH237990   0.978   2.952  12.813 -0.4814  0.2940  0.0103
 5500TIP3    H137991   1.027   2.899  12.750 -1.0539 -1.0485  0.6572
 5500TIP3    H237992   1.008   3.042  12.797  0.6935 -0.2365 -0.9495
 5501TIP3   OH237993   4.216   3.419   5.306 -0.4394 -0.7105  0.0556
 5501TIP3    H137994   4.306   3.412   5.338 -0.2385  0.7945 -0.1320
 5501TIP3    H237995   4.167   3.359   5.362  0.0221  1.2146  2.7166
 5502TIP3   OH237996   5.104   2.316  11.265 -0.0756  0.8414 -0.1285
 5502TIP3    H137997   5.073   2.351  11.349  0.3935  0.9412  0.0058
 5502TIP3    H237998   5.199   2.325  11.269  0.4754 -3.3363  1.2641
 5503TIP3   OH237999   1.412   6.280   6.048 -0.5123 -0.4969 -0.2685
 5503TIP3    H138000   1.341   6.215   6.052  0.2987 -1.3879 -0.0140
 5503TIP3    H238001   1.486   6.232   6.012  0.2246  0.1900  0.3113
 5504TIP3   OH238002   5.072   3.668  15.707 -0.0732 -0.9972 -0.5379
 5504TIP3    H138003   4.978   3.659  15.723 -0.4444 -0.4830 -2.1859
 5504TIP3    H238004   5.113   3.651  15.791 -1.5922 -2.1677  0.0088
 5505TIP3   OH238005   5.537   3.612   3.324  0.2998  0.1107  0.0599
 5505TIP3    H138006   5.597   3.562   3.270 -1.1602 -0.3349 -1.2435
 5505TIP3    H238007   5.521   3.692   3.274  1.3814  1.1897  1.3720
 5506TIP3   OH238008   2.442   0.959  11.131 -0.6797  0.3077  0.3368
 5506TIP3    H138009   2.373   0.985  11.070 -0.3070  0.7901  0.1105
 5506TIP3    H238010   2.523   0.990  11.090 -0.3104 -0.3999  0.5153
 5507TIP3   OH238011   6.612   3.168   0.949 -0.0328  0.0655 -0.5055
 5507TIP3    H138012   6.573   3.090   0.909 -0.1263  0.4458 -1.1677
 5507TIP3    H238013   6.642   3.138   1.035 -2.4363 -0.1063  0.3672
 5508TIP3   OH238014   0.853   5.097  16.919 -0.0211  0.5275 -0.0889
 5508TIP3    H138015   0.943   5.130  16.925  0.2448  0.4040 -2.2960
 5508TIP3    H238016   0.861   5.014  16.872 -1.2701  0.4652 -0.2252
 5509TIP3   OH238017   4.668   4.744  14.053 -0.2231 -0.4930  0.0527
 5509TIP3    H138018   4.671   4.778  14.143 -1.4129 -2.7764  1.0655
 5509TIP3    H238019   4.741   4.682  14.050 -0.4008 -0.6773 -0.4366
 5510TIP3   OH238020   1.719   2.686   4.228  0.2198  0.1141 -0.6076
 5510TIP3    H138021   1.655   2.642   4.172 -0.6233 -0.6116  0.8719
 5510TIP3    H238022   1.798   2.633   4.219  0.1269  0.0538 -1.1528
 5511TIP3   OH238023   3.909   0.480   0.880  0.2907  0.5879 -0.9311
 5511TIP3    H138024   3.982   0.439   0.832  0.2874  1.0244 -1.3158
 5511TIP3    H238025   3.854   0.407   0.906  1.1818  0.1846 -0.0897
 5512TIP3   OH238026   2.106   6.833  13.417  0.3942  0.3467 -0.6227
 5512TIP3    H138027   2.108   6.738  13.424  2.6447  0.3070 -1.1003
 5512TIP3    H238028   2.084   6.864  13.505  0.7306 -0.5938 -0.2005
 5513TIP3   OH238029   5.234   3.436  12.001 -0.2318 -0.5892 -0.0180
 5513TIP3    H138030   5.307   3.487  12.036 -0.6345  0.7212 -1.0097
 5513TIP3    H238031   5.275   3.372  11.943  0.1376  0.2167 -0.6614
 5514TIP3   OH238032   0.155   5.340   0.740 -0.5449 -0.0726  0.4839
 5514TIP3    H138033   0.188   5.313   0.825  0.1111  0.0514  0.2826
 5514TIP3    H238034   0.065   5.367   0.756  0.6113  3.5545  1.9288
 5515TIP3   OH238035   0.347   2.120   4.206  0.4205 -0.4642  0.4765
 5515TIP3    H138036   0.392   2.164   4.278 -0.3892 -0.6797  1.1355
 5515TIP3    H238037   0.399   2.041   4.190 -0.6555 -1.6693  2.4684
 5516TIP3   OH238038   1.136   3.880   1.321 -0.0710 -0.9095  0.5096
 5516TIP3    H138039   1.108   3.811   1.260  0.3190 -1.0659  0.5017
 5516TIP3    H238040   1.201   3.930   1.272  0.5200 -1.2623  0.9155
 5517TIP3   OH238041   1.959   4.960   4.163  0.0799 -0.2128 -0.2602
 5517TIP3    H138042   1.971   4.902   4.088 -2.6596 -1.5728  0.2399
 5517TIP3    H238043   2.001   5.042   4.137 -0.8229 -0.5999 -3.3073
 5518TIP3   OH238044   1.378   4.250   2.625  0.2474  0.3018 -0.4440
 5518TIP3    H138045   1.312   4.319   2.622  0.2232  0.3242  0.3487
 5518TIP3    H238046   1.428   4.269   2.705 -1.3105 -1.9858  1.2196
 5519TIP3   OH238047   2.036   3.252  17.015 -0.2031  0.5765 -0.7841
 5519TIP3    H138048   1.954   3.203  17.024  0.3173 -0.1727 -0.0436
 5519TIP3    H238049   2.103   3.186  17.004  0.8502  0.8875  2.5045
 5520TIP3   OH238050   2.737   6.416   5.268 -1.0648  0.4387  0.3075
 5520TIP3    H138051   2.672   6.375   5.325 -0.8697  2.5500  2.2032
 5520TIP3    H238052   2.687   6.447   5.193 -1.5998 -1.0585  0.0107
 5521TIP3   OH238053   6.073   0.779  11.131  0.5701 -0.3120  0.1539
 5521TIP3    H138054   6.099   0.870  11.119  0.2401 -0.4105 -1.6324
 5521TIP3    H238055   6.128   0.747  11.203  0.9324  1.1842  0.5720
 5522TIP3   OH238056   5.539   3.187   3.863  0.2289  0.2381  0.3170
 5522TIP3    H138057   5.448   3.183   3.892  0.3388 -1.8310  0.5754
 5522TIP3    H238058   5.541   3.135   3.783  1.1686  0.3196  0.2735
 5523TIP3   OH238059   5.867   4.720  12.830 -0.8174  0.2517  0.6243
 5523TIP3    H138060   5.783   4.719  12.785  0.3387 -2.3925 -1.8057
 5523TIP3    H238061   5.869   4.639  12.880  1.0185 -0.8438 -1.0644
 5524TIP3   OH238062   0.150   1.528   3.460  0.0429 -0.2271  0.4379
 5524TIP3    H138063   0.197   1.484   3.390 -0.0154  0.2816  0.0748
 5524TIP3    H238064   0.217   1.548   3.526  0.3741  0.6082 -0.1325
 5525TIP3   OH238065   2.579   5.891   4.366 -0.0031 -0.4311  0.1936
 5525TIP3    H138066   2.664   5.904   4.408 -0.1714  0.3535  0.3027
 5525TIP3    H238067   2.556   5.977   4.331  0.2952 -1.1414 -1.8572
 5526TIP3   OH238068   2.906   4.791   1.855 -0.3733 -0.2634 -0.2497
 5526TIP3    H138069   2.921   4.872   1.903  1.3062 -1.0442  0.6238
 5526TIP3    H238070   2.949   4.805   1.770  0.6620 -0.4935  0.2108
 5527TIP3   OH238071   6.613   1.036   3.412 -0.0794  0.7386  0.1103
 5527TIP3    H138072   6.690   1.077   3.452  0.1664 -0.4419  0.9129
 5527TIP3    H238073   6.582   1.100   3.347  1.2317  1.4773  0.1778
 5528TIP3   OH238074   5.267   0.304   3.104  0.0053 -0.2352  0.2719
 5528TIP3    H138075   5.336   0.365   3.131  0.6350 -0.8851  0.1491
 5528TIP3    H238076   5.190   0.360   3.093  0.4015  0.4415  0.8039
 5529TIP3   OH238077   3.024   3.103  16.456  0.4211 -0.5356 -0.0266
 5529TIP3    H138078   2.948   3.063  16.497  0.6300 -1.7086 -0.7064
 5529TIP3    H238079   3.085   3.030  16.443  0.0563 -0.4441 -3.0916
 5530TIP3   OH238080   2.416   1.682   2.653  0.1489  0.0205  0.2223
 5530TIP3    H138081   2.364   1.664   2.575 -0.3476  0.5112  0.4242
 5530TIP3    H238082   2.474   1.754   2.628  0.3267 -0.1446  0.1627
 5531TIP3   OH238083   3.350   2.543   4.429 -0.0692 -0.0007 -0.0033
 5531TIP3    H138084   3.271   2.492   4.409 -0.6641  0.2652  1.5551
 5531TIP3    H238085   3.409   2.480   4.470 -0.2781  0.2452  0.6877
 5532TIP3   OH238086   5.225   6.219  15.835 -0.5200  0.2133  0.3149
 5532TIP3    H138087   5.280   6.288  15.873 -1.6018  0.9347  0.6187
 5532TIP3    H238088   5.268   6.196  15.753  1.9254 -1.4355  1.9225
 5533TIP3   OH238089   6.278   1.617  15.102  0.8919  0.7257  0.1662
 5533TIP3    H138090   6.244   1.529  15.085  3.0270 -0.5068  1.7359
 5533TIP3    H238091   6.214   1.676  15.062 -0.8485 -1.5095 -0.5541
 5534TIP3   OH238092   4.043   0.471  12.171 -0.0837 -0.0145 -0.0753
 5534TIP3    H138093   4.058   0.519  12.252 -0.6031  0.2525 -0.1334
 5534TIP3    H238094   4.042   0.379  12.198 -0.2193  0.0717  0.2175
 5535TIP3   OH238095   0.332   4.905   1.363  0.0111 -0.0150 -0.2436
 5535TIP3    H138096   0.298   4.942   1.445  1.1632  0.4407  0.0441
 5535TIP3    H238097   0.318   4.810   1.372  0.1935  0.0226  0.5203
 5536TIP3   OH238098   2.980   2.869  12.155  0.1605 -0.1324 -0.2304
 5536TIP3    H138099   3.021   2.918  12.085  0.4917  0.6946  0.5238
 5536TIP3    H238100   2.982   2.778  12.125  1.2885  0.0628 -0.8079
 5537TIP3   OH238101   4.805   0.821   4.382  0.4003 -0.2452  0.0942
 5537TIP3    H138102   4.773   0.901   4.342  0.6447  0.1785  0.7247
 5537TIP3    H238103   4.779   0.751   4.322 -0.9628  0.1604  0.1852
 5538TIP3   OH238104   0.185   5.592   5.880  0.2958  0.0100  0.2556
 5538TIP3    H138105   0.138   5.517   5.844  1.3639 -1.2583  1.3731
 5538TIP3    H238106   0.250   5.553   5.939  1.0622  1.8125  0.6652
 5539TIP3   OH238107   3.838   5.428  11.618 -0.2785 -0.2950  0.1201
 5539TIP3    H138108   3.826   5.452  11.710  0.8369 -2.5971  0.9505
 5539TIP3    H238109   3.750   5.408  11.587 -0.8053  1.5422  0.3269
 5540TIP3   OH238110   1.206   3.810   0.943  0.3657 -0.7253  0.8797
 5540TIP3    H138111   1.268   3.831   1.013 -1.0042 -0.0150  1.9218
 5540TIP3    H238112   1.178   3.721   0.961 -0.6789 -0.2348  1.8256
 5541TIP3   OH238113   2.362   5.020  15.093 -0.1731  0.0715  0.1474
 5541TIP3    H138114   2.341   4.931  15.122 -0.6765 -0.1800 -0.9684
 5541TIP3    H238115   2.424   5.008  15.021 -0.5349  0.6094 -0.2593
 5542TIP3   OH238116   5.179   3.832   4.414 -0.3669 -0.5919 -0.2618
 5542TIP3    H138117   5.175   3.837   4.318  1.6559  0.9232 -0.3584
 5542TIP3    H238118   5.167   3.739   4.434  0.6613 -1.1967 -2.1318
 5543TIP3   OH238119   1.095   3.685   2.529 -1.0893  0.0171  0.2426
 5543TIP3    H138120   1.132   3.773   2.521  0.9632 -0.8764 -0.5565
 5543TIP3    H238121   1.125   3.654   2.615  0.7512 -0.9901 -0.7178
 5544TIP3   OH238122   3.054   0.957   0.133  0.0445  0.8538  0.5737
 5544TIP3    H138123   3.098   0.872   0.130 -0.6392  0.5177 -1.5899
 5544TIP3    H238124   3.125   1.021   0.137  0.6302  0.2289  0.3252
 5545TIP3   OH238125   1.298   1.215   1.156 -0.4131  0.4082 -0.1580
 5545TIP3    H138126   1.270   1.305   1.140  0.3801  0.5597 -0.7578
 5545TIP3    H238127   1.360   1.221   1.229  1.1407  0.6413 -1.4374
 5546TIP3   OH238128   0.809   5.198   5.910  0.2927  0.1764 -0.1967
 5546TIP3    H138129   0.874   5.269   5.911 -0.6733  1.2241 -3.1481
 5546TIP3    H238130   0.772   5.198   5.998 -0.3631  4.0731 -0.3076
 5547TIP3   OH238131   1.657   5.530  11.357 -0.3270 -0.1394  0.0903
 5547TIP3    H138132   1.720   5.564  11.420 -0.0800 -2.2494  1.0628
 5547TIP3    H238133   1.707   5.468  11.303 -0.9278  0.3625 -1.0918
 5548TIP3   OH238134   3.931   0.100   1.721 -0.2300  0.5190  0.3858
 5548TIP3    H138135   4.018   0.138   1.731 -0.0821  0.3134 -0.0911
 5548TIP3    H238136   3.923   0.083   1.627  0.5278 -2.4857  0.7661
 5549TIP3   OH238137   0.341   6.716  10.655  0.3376 -0.6424 -0.3770
 5549TIP3    H138138   0.289   6.759  10.586  1.1482  0.0742 -0.5710
 5549TIP3    H238139   0.432   6.740  10.633  0.6400 -0.8091  0.6701
 5550TIP3   OH238140   1.800   5.713   2.970  0.8139  0.1109  0.0185
 5550TIP3    H138141   1.845   5.784   2.924  1.3836 -0.7696 -0.8206
 5550TIP3    H238142   1.750   5.668   2.902  1.5783 -1.1558  0.2695
 5551TIP3   OH238143   4.966   5.176  16.822  0.2743  0.0395  0.7358
 5551TIP3    H138144   5.006   5.139  16.901  1.2052  2.1578  1.3291
 5551TIP3    H238145   4.928   5.259  16.851 -0.0881  0.4767 -0.8930
 5552TIP3   OH238146   3.780   1.141   3.275  0.6584  0.6389  0.1136
 5552TIP3    H138147   3.790   1.073   3.341  1.3592  1.2012  0.6056
 5552TIP3    H238148   3.799   1.097   3.192 -1.7166 -0.4475  0.0596
 5553TIP3   OH238149   0.532   4.822  14.438 -0.2441 -0.0433  0.4745
 5553TIP3    H138150   0.532   4.915  14.416 -0.7177  0.1930  1.3871
 5553TIP3    H238151   0.442   4.793  14.423 -0.1439 -0.3093  0.3731
 5554TIP3   OH238152   3.243   2.217   4.607 -0.1940 -0.0673  0.0504
 5554TIP3    H138153   3.181   2.235   4.678 -0.4979  0.4665 -0.3399
 5554TIP3    H238154   3.309   2.160   4.646  0.3499  1.2576  1.1209
 5555TIP3   OH238155   2.342   6.705  14.017  0.0204  0.3485  0.3576
 5555TIP3    H138156   2.291   6.758  14.079  1.8269  1.8134  0.6596
 5555TIP3    H238157   2.419   6.678  14.066  0.4343 -0.3233 -0.6309
 5556TIP3   OH238158   5.403   0.515  11.808  0.7049 -0.4780  0.2090
 5556TIP3    H138159   5.384   0.576  11.736  0.8706 -1.7834 -0.9874
 5556TIP3    H238160   5.321   0.467  11.821  0.7731 -0.4688  0.6722
 5557TIP3   OH238161   5.143   0.166  11.152  0.2863 -0.1151 -0.1326
 5557TIP3    H138162   5.219   0.146  11.206  0.2788 -4.7757 -1.4160
 5557TIP3    H238163   5.069   0.134  11.202 -0.1821 -0.6176 -1.1210
 5558TIP3   OH238164   5.831   5.577  13.185 -0.2811  0.5608 -0.0968
 5558TIP3    H138165   5.863   5.488  13.171  1.9031  1.4711 -1.3167
 5558TIP3    H238166   5.855   5.624  13.105 -1.9434  2.1362  0.2613
 5559TIP3   OH238167   4.027   0.626   1.093  0.3802  0.1156 -0.3423
 5559TIP3    H138168   3.939   0.616   1.129  0.7185 -2.4674 -0.0110
 5559TIP3    H238169   4.027   0.570   1.015  2.1676 -1.3590  0.6289
 5560TIP3   OH238170   6.182   4.723  13.064  0.5084  0.1149  0.8054
 5560TIP3    H138171   6.215   4.632  13.065 -1.0172 -0.4562  1.2022
 5560TIP3    H238172   6.261   4.776  13.055  1.3999 -1.2704 -0.0597
 5561TIP3   OH238173   3.875   2.986   4.605 -0.2169  0.1950  0.0026
 5561TIP3    H138174   3.863   3.025   4.518  1.4112  1.1997  0.1950
 5561TIP3    H238175   3.927   2.907   4.589  0.4156  0.5855  0.0785
 5562TIP3   OH238176   4.723   6.361  14.214 -0.2558 -0.1174 -0.8526
 5562TIP3    H138177   4.798   6.418  14.230 -1.7241  1.1175  2.8463
 5562TIP3    H238178   4.687   6.391  14.130  0.7537  2.4331 -0.4717
 5563TIP3   OH238179   4.466   3.378  17.034 -0.1274 -0.8138  0.0677
 5563TIP3    H138180   4.385   3.339  17.001 -1.0459  0.5791  0.5971
 5563TIP3    H238181   4.535   3.338  16.981 -1.3408 -0.5136 -1.8537
 5564TIP3   OH238182   0.648   0.276   4.904 -0.1353 -0.0991  0.0808
 5564TIP3    H138183   0.618   0.323   4.826 -2.6800 -1.2682  0.2506
 5564TIP3    H238184   0.675   0.190   4.872  1.6779  0.3924  0.1618
 5565TIP3   OH238185   1.751   1.812   5.245 -0.4697 -0.4873 -0.0226
 5565TIP3    H138186   1.812   1.857   5.186 -0.5004  1.0738  1.0949
 5565TIP3    H238187   1.787   1.723   5.252  0.8281 -0.0309 -0.5632
 5566TIP3   OH238188   3.370   5.357   4.108 -0.2520  0.0690 -0.7053
 5566TIP3    H138189   3.393   5.386   4.197 -1.2115 -2.6079  0.5322
 5566TIP3    H238190   3.452   5.326   4.071 -0.3922 -2.2946  0.7549
 5567TIP3   OH238191   0.858   5.826  10.517  0.8372  0.0968  0.2215
 5567TIP3    H138192   0.931   5.886  10.511  0.1733  0.9917  0.8715
 5567TIP3    H238193   0.781   5.882  10.523 -0.0384 -0.7974 -1.6910
 5568TIP3   OH238194   4.855   2.975  12.886  0.2805  0.4422 -0.1630
 5568TIP3    H138195   4.898   2.994  12.802  0.5983  1.8775  0.2995
 5568TIP3    H238196   4.870   3.053  12.939 -0.8294 -0.0134  0.8689
 5569TIP3   OH238197   6.820   2.884   2.350 -0.3156 -0.0499 -0.4166
 5569TIP3    H138198   6.829   2.795   2.316  3.7370 -0.3605  0.9662
 5569TIP3    H238199   6.763   2.927   2.287 -0.6877 -3.0274 -2.3342
 5570TIP3   OH238200   4.231   3.441   1.644 -0.3636  0.5282  0.0563
 5570TIP3    H138201   4.229   3.400   1.558 -0.0762  0.3099  0.1525
 5570TIP3    H238202   4.177   3.385   1.700 -0.0666  0.3426  0.1593
 5571TIP3   OH238203   0.901   2.561  10.453 -0.0770  0.2811 -0.2650
 5571TIP3    H138204   0.901   2.632  10.517 -0.7328  0.3858 -0.3792
 5571TIP3    H238205   0.935   2.601  10.373 -1.3019  0.7082 -0.5864
 5572TIP3   OH238206   1.873   2.011   3.907  0.8026 -0.6741 -0.3620
 5572TIP3    H138207   1.829   1.930   3.930 -0.7580 -0.2138 -1.5430
 5572TIP3    H238208   1.884   2.007   3.812 -0.1150  0.8511 -0.5695
 5573TIP3   OH238209   1.526   2.267   4.649  0.5107 -0.0720  0.0833
 5573TIP3    H138210   1.462   2.229   4.708 -0.8433  0.8225 -0.7470
 5573TIP3    H238211   1.594   2.200   4.641 -2.5363 -3.2439 -2.6597
 5574TIP3   OH238212   2.457   2.355  15.216  0.1129 -0.3995  0.2442
 5574TIP3    H138213   2.410   2.323  15.292 -1.3407  1.3216  0.1292
 5574TIP3    H238214   2.542   2.310  15.219 -0.4702 -1.4542  2.0257
 5575TIP3   OH238215   2.250   6.554  15.630  0.0369 -0.2278 -0.1409
 5575TIP3    H138216   2.249   6.620  15.560 -0.0728  1.1698  1.1160
 5575TIP3    H238217   2.164   6.559  15.670 -0.2013 -1.6390 -0.4375
 5576TIP3   OH238218   4.737   3.280  13.989 -0.5584  0.1039 -0.2960
 5576TIP3    H138219   4.788   3.334  14.051 -0.7387 -0.5208  0.4173
 5576TIP3    H238220   4.803   3.243  13.930 -0.1777 -0.5660  0.5218
 5577TIP3   OH238221   6.219   2.427   0.450 -0.0816 -0.6892  0.2109
 5577TIP3    H138222   6.311   2.440   0.427  0.0517  2.0641  1.8666
 5577TIP3    H238223   6.175   2.506   0.420 -1.2391 -0.4210  2.4180
 5578TIP3   OH238224   2.297   2.143   1.295  0.2019 -0.2403  0.2664
 5578TIP3    H138225   2.204   2.156   1.312  0.2057  0.6415 -0.3746
 5578TIP3    H238226   2.303   2.052   1.266 -0.1516 -0.9922  2.3575
 5579TIP3   OH238227   0.683   3.775  12.106  0.5133 -0.3298  0.2256
 5579TIP3    H138228   0.644   3.689  12.090  0.2197 -0.1195 -0.2002
 5579TIP3    H238229   0.775   3.757  12.123  0.3987 -0.7537  0.4074
 5580TIP3   OH238230   6.189   0.576  15.175 -0.4659 -0.7275  0.6855
 5580TIP3    H138231   6.188   0.664  15.137  0.9944 -0.5007  1.1208
 5580TIP3    H238232   6.123   0.528  15.124 -1.3616  0.6261  0.5045
 5581TIP3   OH238233   3.137   0.159  13.331  0.5680 -0.6220  0.3690
 5581TIP3    H138234   3.122   0.223  13.262  2.4063  0.3358  0.7830
 5581TIP3    H238235   3.076   0.184  13.400  1.4249  0.9095  0.6298
 5582TIP3   OH238236   2.557   0.993   4.074 -0.0539 -0.0724  0.0934
 5582TIP3    H138237   2.573   0.902   4.098 -0.5442 -0.2490 -0.2290
 5582TIP3    H238238   2.464   0.995   4.049  0.5799 -0.0599 -2.4856
 5583TIP3   OH238239   0.592   4.761  13.864 -0.2642  0.2210  0.2700
 5583TIP3    H138240   0.557   4.834  13.915  1.3740  0.9821  0.3799
 5583TIP3    H238241   0.530   4.689  13.879 -1.3151  1.2493  1.0553
 5584TIP3   OH238242   4.577   0.524  15.376 -0.7426 -0.0413  0.0376
 5584TIP3    H138243   4.633   0.446  15.379  0.1124  0.5895  0.8011
 5584TIP3    H238244   4.541   0.530  15.465 -1.3374  0.0629 -0.2061
 5585TIP3   OH238245   2.946   2.479   2.549  0.2500  0.0375  0.2014
 5585TIP3    H138246   2.869   2.533   2.532  1.7017  2.8253  1.6935
 5585TIP3    H238247   2.983   2.461   2.463 -1.3016 -0.1605 -0.4460
 5586TIP3   OH238248   4.863   0.665  12.648  0.1844 -0.0030  0.1461
 5586TIP3    H138249   4.956   0.675  12.630  0.1326  0.3616  0.0755
 5586TIP3    H238250   4.860   0.616  12.730  0.4367 -0.1708  0.0564
 5587TIP3   OH238251   4.446   2.665  12.149  0.4866 -0.6442  0.3802
 5587TIP3    H138252   4.473   2.623  12.068 -1.7440  2.2100 -2.0676
 5587TIP3    H238253   4.497   2.746  12.153 -1.8565  0.9669 -0.1960
 5588TIP3   OH238254   1.734   6.258  15.320  0.1008 -0.8660 -0.5805
 5588TIP3    H138255   1.681   6.227  15.394 -1.0858  0.3883 -0.8745
 5588TIP3    H238256   1.816   6.286  15.360 -0.5038 -0.2629  0.2730
 5589TIP3   OH238257   2.471   6.245  14.585  0.0007 -0.3849  0.1182
 5589TIP3    H138258   2.381   6.258  14.555 -0.0814  1.2814  0.9710
 5589TIP3    H238259   2.479   6.301  14.662  1.9428 -0.0862 -0.2556
 5590TIP3   OH238260   5.903   0.444   4.387  0.4819 -0.0389 -0.8315
 5590TIP3    H138261   5.885   0.358   4.427 -1.4310  1.0194  0.8201
 5590TIP3    H238262   5.947   0.424   4.305  0.1257 -2.6020 -0.4833
 5591TIP3   OH238263   0.091   4.560  13.743 -0.0457  0.3379  0.0422
 5591TIP3    H138264   0.037   4.565  13.822 -0.7406 -0.6593 -0.3514
 5591TIP3    H238265   0.175   4.598  13.769  0.2403 -1.2853  1.7182
 5592TIP3   OH238266   1.879   3.990  11.656  0.1349  0.4074  0.4162
 5592TIP3    H138267   1.898   4.047  11.730  0.4285  0.4935  0.2746
 5592TIP3    H238268   1.789   3.961  11.670 -0.7031  2.4132 -0.4822
 5593TIP3   OH238269   1.147   2.848  12.629 -0.4979 -0.4628 -0.0103
 5593TIP3    H138270   1.235   2.824  12.658 -1.1566 -1.0358  1.6071
 5593TIP3    H238271   1.161   2.887  12.542  1.3815 -0.1794  0.3624
 5594TIP3   OH238272   5.521   0.474   2.552 -0.3537 -0.1923  0.3778
 5594TIP3    H138273   5.607   0.502   2.584 -1.0219  1.5199  0.7520
 5594TIP3    H238274   5.489   0.547   2.500 -1.1315 -1.2562 -0.7126
 5595TIP3   OH238275   5.261   3.627   3.367 -0.1401 -0.4545  0.1321
 5595TIP3    H138276   5.231   3.595   3.281 -1.8350  2.1004 -0.3160
 5595TIP3    H238277   5.356   3.633   3.357 -0.0521 -2.4394 -0.7265
 5596TIP3   OH238278   4.311   3.807   6.498 -0.2732 -0.3496 -0.3168
 5596TIP3    H138279   4.270   3.855   6.570  0.2387 -1.4517  0.7298
 5596TIP3    H238280   4.245   3.808   6.428 -0.9527  0.3508  0.3148
 5597TIP3   OH238281   4.981   5.781   5.355 -0.1692  0.3181 -0.3029
 5597TIP3    H138282   4.963   5.874   5.372  1.4911  0.6962 -0.4826
 5597TIP3    H238283   4.962   5.738   5.438  1.0400  1.1286  0.4178
 5598TIP3   OH238284   1.836   2.299  11.685  0.5466  0.5137  0.4659
 5598TIP3    H138285   1.793   2.266  11.606 -1.0129 -1.3388  1.9834
 5598TIP3    H238286   1.925   2.263  11.680 -0.3654 -1.9466  0.8308
 5599TIP3   OH238287   1.689   3.826   2.016 -0.5582 -0.0153  0.2244
 5599TIP3    H138288   1.756   3.894   2.014 -1.2056  0.6540  0.5365
 5599TIP3    H238289   1.670   3.813   2.109  0.8216 -1.9363  0.2912
 5600TIP3   OH238290   0.413   1.748  16.260 -0.3792  0.0143 -0.4729
 5600TIP3    H138291   0.498   1.727  16.298 -0.3999 -0.2585 -0.5773
 5600TIP3    H238292   0.374   1.664  16.239 -0.2993  0.1625 -1.2446
 5601TIP3   OH238293   5.211   3.077   5.837  0.0885  0.1704 -0.1176
 5601TIP3    H138294   5.179   3.024   5.910  1.1259 -0.6596 -0.2453
 5601TIP3    H238295   5.137   3.081   5.776  0.2110 -1.8552 -0.4905
 5602TIP3   OH238296   3.584   2.718  17.074  0.1192 -0.0810 -0.1465
 5602TIP3    H138297   3.498   2.761  17.079 -0.3729 -1.1149  0.6694
 5602TIP3    H238298   3.567   2.637  17.027  0.6260 -0.3381  0.1078
 5603TIP3   OH238299   4.670   4.912  13.224  0.3974  0.4424 -0.6053
 5603TIP3    H138300   4.728   4.856  13.173  0.4413  0.0845 -0.1662
 5603TIP3    H238301   4.713   4.921  13.309 -1.8758 -2.8822  1.1061
 5604TIP3   OH238302   4.363   2.646  12.640 -0.4789 -0.2982 -0.3597
 5604TIP3    H138303   4.279   2.680  12.671 -0.4538  0.0321 -0.6473
 5604TIP3    H238304   4.370   2.678  12.550 -0.8510 -1.7668 -0.9390
 5605TIP3   OH238305   0.856   4.090  14.732  0.5543 -0.0665 -0.0835
 5605TIP3    H138306   0.938   4.063  14.692  0.8396  1.5189 -0.6296
 5605TIP3    H238307   0.875   4.092  14.826 -0.0989 -3.7284  0.2867
 5606TIP3   OH238308   3.187   2.923  13.126  0.0426  0.1390 -0.3439
 5606TIP3    H138309   3.160   2.832  13.136  0.4346 -0.0411 -0.8662
 5606TIP3    H238310   3.190   2.958  13.216 -1.6788  0.1153 -0.2397
 5607TIP3   OH238311   2.006   2.928  14.452 -0.4502 -0.5397  0.3937
 5607TIP3    H138312   2.100   2.941  14.470 -0.5771 -0.4706  1.0328
 5607TIP3    H238313   2.004   2.873  14.374  0.1191  0.5719 -0.4432
 5608TIP3   OH238314   3.824   3.161   3.209 -0.2835 -0.6619  0.1515
 5608TIP3    H138315   3.916   3.160   3.236 -0.5223  0.9224  1.1074
 5608TIP3    H238316   3.792   3.073   3.229  0.9317 -1.1307  0.0975
 5609TIP3   OH238317   0.658   2.180   2.989  0.7465 -0.1024  0.1072
 5609TIP3    H138318   0.593   2.242   3.023 -0.4910 -1.1936 -0.1572
 5609TIP3    H238319   0.655   2.192   2.894  0.7444 -0.3241  0.0788
 5610TIP3   OH238320   0.883   4.034   0.559  0.0507 -0.2500  0.1582
 5610TIP3    H138321   0.860   4.085   0.637 -2.3810 -1.0493  0.0372
 5610TIP3    H238322   0.825   4.066   0.491  0.3205 -1.3586 -0.6275
 5611TIP3   OH238323   6.457   0.425   4.760  0.4392  0.0116 -0.3197
 5611TIP3    H138324   6.520   0.469   4.816 -0.7315  0.0034  1.0681
 5611TIP3    H238325   6.476   0.331   4.772  0.2758  0.0138 -0.0517
 5612TIP3   OH238326   4.089   1.627   5.160  0.6987  0.4506 -0.1051
 5612TIP3    H138327   4.103   1.680   5.238  0.8892 -1.3702  1.1432
 5612TIP3    H238328   3.993   1.621   5.152  0.6509 -1.0684  1.2398
 5613TIP3   OH238329   4.861   2.888  13.362 -0.2933 -0.3420 -0.2198
 5613TIP3    H138330   4.922   2.876  13.435  0.9833  0.2766 -1.1370
 5613TIP3    H238331   4.883   2.974  13.326  0.9937 -1.7022 -2.9777
 5614TIP3   OH238332   1.837   0.436  14.292  0.8757 -0.0190  0.0896
 5614TIP3    H138333   1.818   0.354  14.246  1.0176 -0.0014 -0.0009
 5614TIP3    H238334   1.797   0.504  14.239  1.2490  0.0259 -0.1435
 5615TIP3   OH238335   6.225   0.466   0.302  0.0274  0.2020  0.0134
 5615TIP3    H138336   6.227   0.395   0.238  0.1472  0.8406 -0.7018
 5615TIP3    H238337   6.291   0.528   0.272  2.3011 -0.8695  2.4090
 5616TIP3   OH238338   4.008   2.907   0.682  0.1042 -0.3509  0.1881
 5616TIP3    H138339   4.007   2.971   0.753 -1.1368 -0.3113  0.1735
 5616TIP3    H238340   3.920   2.868   0.685 -0.0745 -0.1340 -1.5247
 5617TIP3   OH238341   4.669   5.595   5.621 -0.2094  0.2982  0.6820
 5617TIP3    H138342   4.729   5.542   5.673 -0.8152 -0.2934  0.7919
 5617TIP3    H238343   4.618   5.644   5.686 -1.2183 -0.7139  0.6892
 5618TIP3   OH238344   1.365   5.966   0.928  0.1579 -0.4102  0.1575
 5618TIP3    H138345   1.421   5.996   0.856  2.0433  1.3523  2.2118
 5618TIP3    H238346   1.318   6.045   0.956  1.3076 -0.4641  2.3869
 5619TIP3   OH238347   1.614   5.218   1.529  0.9378  0.2107  0.2835
 5619TIP3    H138348   1.651   5.305   1.509  0.7880  0.4247  0.9051
 5619TIP3    H238349   1.522   5.235   1.547  1.3094  0.2833  2.5198
 5620TIP3   OH238350   5.681   2.098  11.409 -0.1510 -0.7677  0.2528
 5620TIP3    H138351   5.739   2.089  11.333 -0.9476  0.1782 -0.4780
 5620TIP3    H238352   5.691   2.189  11.436  0.2374 -1.1349  1.3865
 5621TIP3   OH238353   0.656   2.182  12.942 -0.2019  0.2944  0.1355
 5621TIP3    H138354   0.728   2.244  12.952  0.6756 -0.5442 -0.6887
 5621TIP3    H238355   0.608   2.212  12.864  0.6364 -0.4206 -0.6812
 5622TIP3   OH238356   0.376   4.672   0.969 -0.0042 -0.2260  0.0002
 5622TIP3    H138357   0.378   4.747   0.909 -0.5155  1.7101  2.2282
 5622TIP3    H238358   0.377   4.596   0.912  2.0145  1.4092 -2.4032
 5623TIP3   OH238359   2.784   6.222  14.682  0.4121  0.2318 -0.1134
 5623TIP3    H138360   2.771   6.175  14.764  0.2623 -0.6568 -0.6380
 5623TIP3    H238361   2.712   6.285  14.678  0.8556  0.8261  0.7945
 5624TIP3   OH238362   0.954   3.470   4.534 -0.0094  0.2782 -0.4916
 5624TIP3    H138363   0.914   3.452   4.619 -1.6691 -1.0606 -1.4835
 5624TIP3    H238364   0.953   3.565   4.526 -1.9350  0.3441  0.0563
 5625TIP3   OH238365   0.053   3.687   1.063  0.4541  0.3173  0.2524
 5625TIP3    H138366   0.141   3.649   1.068 -0.0702 -1.1582 -0.7736
 5625TIP3    H238367   0.028   3.676   0.971 -0.2384  2.0965  0.1933
 5626TIP3   OH238368   1.961   6.287   4.341 -0.8450  0.2731  0.1635
 5626TIP3    H138369   1.953   6.355   4.274 -1.8753 -1.3360 -1.4272
 5626TIP3    H238370   2.053   6.260   4.336 -0.7865  0.5310 -0.2437
 5627TIP3   OH238371   2.741   3.787  12.826 -0.1643  0.7813 -0.4465
 5627TIP3    H138372   2.714   3.878  12.832  1.6330  1.4262 -1.2936
 5627TIP3    H238373   2.716   3.760  12.737 -3.3481 -0.5561  0.7141
 5628TIP3   OH238374   3.767   1.913  14.605  0.0766  0.0919  0.9821
 5628TIP3    H138375   3.753   1.822  14.579 -0.7983  0.0629  1.4864
 5628TIP3    H238376   3.847   1.940  14.560  0.4233 -0.9715  0.9443
 5629TIP3   OH238377   5.929   5.453  12.035  0.3542 -0.4830  0.1729
 5629TIP3    H138378   5.931   5.359  12.051  3.4235 -0.7049 -0.7801
 5629TIP3    H238379   5.937   5.492  12.123  0.6795 -1.1652  0.4557
 5630TIP3   OH238380   3.510   3.481   5.180 -0.0388 -0.0064  0.3318
 5630TIP3    H138381   3.473   3.485   5.092  4.0952  1.6113 -1.5644
 5630TIP3    H238382   3.527   3.572   5.203  0.8647 -0.5486  1.9470
 5631TIP3   OH238383   6.687   3.744   3.382  0.5846 -0.2057  0.0781
 5631TIP3    H138384   6.749   3.799   3.335 -0.8550  1.2279 -0.2619
 5631TIP3    H238385   6.633   3.806   3.432 -1.6673 -1.1656 -0.9849
 5632TIP3   OH238386   6.147   2.955  11.525  0.6703  0.3481  0.1490
 5632TIP3    H138387   6.156   3.041  11.565 -0.8988  0.4964  0.2578
 5632TIP3    H238388   6.186   2.894  11.588  0.4406  0.8363  0.7658
 5633TIP3   OH238389   0.894   2.458   2.554 -0.3883  0.6797 -0.0588
 5633TIP3    H138390   0.921   2.470   2.645 -0.7538  0.9086  0.0172
 5633TIP3    H238391   0.801   2.439   2.559 -0.2624 -0.0488 -0.3320
 5634TIP3   OH238392   3.538   3.391  13.252  0.0130  0.3586  0.0687
 5634TIP3    H138393   3.449   3.424  13.238 -0.0611  0.0108 -0.2785
 5634TIP3    H238394   3.541   3.308  13.205  1.1020  1.2585 -1.5530
 5635TIP3   OH238395   6.549   6.752   1.963 -0.4368 -0.6384 -0.4771
 5635TIP3    H138396   6.468   6.718   2.002 -0.9366  1.2707  0.2765
 5635TIP3    H238397   6.596   6.791   2.037 -1.7891  3.8598 -1.6213
 5636TIP3   OH238398   5.163   6.516  13.841  0.2774 -0.3167  0.0115
 5636TIP3    H138399   5.097   6.583  13.859 -1.3402 -2.0137  0.7878
 5636TIP3    H238400   5.237   6.539  13.898 -1.0489 -0.2870  1.8117
 5637TIP3   OH238401   6.493   3.241  11.237  0.5367  0.2130 -0.5508
 5637TIP3    H138402   6.549   3.304  11.283 -0.0753  0.2157  0.2054
 5637TIP3    H238403   6.410   3.243  11.285 -0.1549  0.2862 -1.7084
 5638TIP3   OH238404   0.032   0.343  10.919  0.0904  0.5007 -0.0854
 5638TIP3    H138405   0.042   0.303  11.005 -2.0089  0.0936  0.0304
 5638TIP3    H238406  -0.028   0.416  10.933 -1.3669 -0.3733 -1.3785
 5639TIP3   OH238407   0.092   1.007   1.503 -0.3145 -0.4670 -0.1192
 5639TIP3    H138408   0.098   1.086   1.449  1.5341  1.2514  2.3827
 5639TIP3    H238409   0.063   1.039   1.588  0.3052 -2.5283  0.9219
 5640TIP3   OH238410   6.415   3.142  16.929 -0.5637  0.0129  0.6027
 5640TIP3    H138411   6.508   3.130  16.947 -0.2913  0.3659 -0.5298
 5640TIP3    H238412   6.373   3.135  17.015  0.4001 -1.0587  1.0085
 5641TIP3   OH238413   6.407   6.143  16.518  0.0535  0.3327 -0.4713
 5641TIP3    H138414   6.368   6.185  16.594  1.0080  0.5085 -0.0671
 5641TIP3    H238415   6.394   6.206  16.447  0.7651  0.9738 -0.0471
 5642TIP3   OH238416   4.841   3.664   1.114  0.1119  0.0985  0.1235
 5642TIP3    H138417   4.817   3.691   1.025  1.0729  0.8564  0.0737
 5642TIP3    H238418   4.785   3.589   1.132 -1.2606  0.9454 -0.4884
 5643TIP3   OH238419   4.849   0.365  15.579  0.2286  0.3182 -0.3052
 5643TIP3    H138420   4.830   0.405  15.664 -0.5951 -1.7402  0.5424
 5643TIP3    H238421   4.766   0.371  15.532  0.6263  1.2578 -0.9138
 5644TIP3   OH238422   0.895   2.945  12.418  0.3797  0.1884  0.1878
 5644TIP3    H138423   0.914   3.024  12.367  0.2232  0.6173  0.7730
 5644TIP3    H238424   0.974   2.892  12.411  0.4681  0.3735 -0.2549
 5645TIP3   OH238425   0.718   0.401   0.193  0.5060 -0.1620  0.2603
 5645TIP3    H138426   0.788   0.340   0.171  2.8670  1.7338  1.9607
 5645TIP3    H238427   0.655   0.391   0.122  1.1057 -3.9389  0.0658
 5646TIP3   OH238428   0.378   6.494   1.078  0.7665 -0.4909  0.4332
 5646TIP3    H138429   0.382   6.547   1.157  1.4600 -0.0686  0.1192
 5646TIP3    H238430   0.352   6.407   1.109  1.3982 -0.4267  1.1728
 5647TIP3   OH238431   0.252   5.749  16.935 -0.0716  0.6447  0.4491
 5647TIP3    H138432   0.182   5.766  16.872  1.4523 -1.2577 -1.9469
 5647TIP3    H238433   0.309   5.826  16.929 -0.9600  1.3893  1.1046
 5648TIP3   OH238434   4.432   2.334  11.548 -0.8667  0.3151 -0.0146
 5648TIP3    H138435   4.442   2.346  11.643 -0.2107  0.0727 -0.0468
 5648TIP3    H238436   4.466   2.246  11.531  0.7435  1.0345 -0.7168
 5649TIP3   OH238437   3.596   4.130  14.920 -0.1436 -0.2690  0.2790
 5649TIP3    H138438   3.587   4.098  15.009 -1.6848 -0.2450  0.1580
 5649TIP3    H238439   3.554   4.063  14.866 -0.2748  0.2705 -0.3055
 5650TIP3   OH238440   3.222   4.792  17.046 -0.4321  0.0661 -0.4061
 5650TIP3    H138441   3.171   4.872  17.046 -1.1129 -0.3627  0.4634
 5650TIP3    H238442   3.172   4.732  16.990  0.7225  0.6145 -2.1402
 5651TIP3   OH238443   4.537   3.554   4.804  0.0182 -0.5193  0.5274
 5651TIP3    H138444   4.586   3.576   4.725  0.0902 -0.9836  0.4380
 5651TIP3    H238445   4.595   3.579   4.876  0.3722 -1.0192  0.4225
 5652TIP3   OH238446   1.707   1.643   2.310  0.4858 -0.2567 -0.3444
 5652TIP3    H138447   1.779   1.703   2.328 -0.5581  0.8812  0.1927
 5652TIP3    H238448   1.639   1.698   2.271 -0.5139 -1.0770  0.2018
 5653TIP3   OH238449   4.045   0.025  14.585  0.4139 -0.4606 -0.0155
 5653TIP3    H138450   4.115   0.012  14.649 -0.7182  0.7183  1.5586
 5653TIP3    H238451   4.039   0.121  14.576  0.6450 -0.6016 -2.0405
 5654TIP3   OH238452   2.296   0.899   3.412  0.2724  0.1288 -0.3330
 5654TIP3    H138453   2.275   0.864   3.325  0.6307 -2.8551  0.6586
 5654TIP3    H238454   2.358   0.836   3.448  0.2821  1.4015  2.0254
 5655TIP3   OH238455   2.699   4.955   5.205  0.1649 -0.4396 -0.5723
 5655TIP3    H138456   2.689   5.037   5.253 -2.1645 -0.6441 -0.5862
 5655TIP3    H238457   2.717   4.982   5.115 -0.0710  0.0631 -0.4738
 5656TIP3   OH238458   6.521   0.812  16.587 -0.1201  0.0085  0.1580
 5656TIP3    H138459   6.530   0.734  16.532 -0.1689 -1.2298  1.8087
 5656TIP3    H238460   6.610   0.836  16.609 -0.1385 -0.7163  1.1087
 5657TIP3   OH238461   0.861   4.289  16.723  0.0416  0.0326 -0.5754
 5657TIP3    H138462   0.853   4.220  16.789 -0.2394  0.9847  0.4125
 5657TIP3    H238463   0.776   4.289  16.678 -1.2032  1.8112  1.5649
 5658TIP3   OH238464   4.973   0.012  14.403  0.0576  0.1315  0.0333
 5658TIP3    H138465   4.917   0.022  14.479  0.1319 -1.9706  0.4226
 5658TIP3    H238466   5.062   0.012  14.438  0.0832 -1.0612 -0.0167
 5659TIP3   OH238467   6.465   6.751   4.940  0.2305 -0.0822 -0.7262
 5659TIP3    H138468   6.476   6.711   4.854  0.3652 -1.2087 -0.1978
 5659TIP3    H238469   6.471   6.678   5.002 -0.2499  0.6553  0.2179
 5660TIP3   OH238470   2.206   6.335  15.896  0.5622 -0.5010 -0.6909
 5660TIP3    H138471   2.238   6.246  15.912 -0.3026 -0.9726 -1.4489
 5660TIP3    H238472   2.170   6.363  15.981  1.4958 -0.5771 -0.2595
 5661TIP3   OH238473   3.427   5.130  10.822  0.1435  0.1189  0.0721
 5661TIP3    H138474   3.342   5.138  10.780  0.4578  0.3699 -0.5310
 5661TIP3    H238475   3.449   5.037  10.816 -0.5994 -0.1614  1.2782
 5662TIP3   OH238476   3.848   2.675   4.817 -0.0192 -0.6303 -0.0980
 5662TIP3    H138477   3.901   2.737   4.866 -1.9633  1.0045  0.0400
 5662TIP3    H238478   3.871   2.690   4.726  0.9567 -1.1403  0.0498
 5663TIP3   OH238479   3.665   2.478  11.769 -0.4421 -0.7917 -0.0830
 5663TIP3    H138480   3.735   2.432  11.722 -1.1696 -1.6515 -0.3446
 5663TIP3    H238481   3.641   2.419  11.840  0.8464  0.6173  1.6033
 5664TIP3   OH238482   1.396   5.004   6.396  0.3322 -0.0529 -0.0661
 5664TIP3    H138483   1.381   5.086   6.349  0.3381  0.9147  1.5413
 5664TIP3    H238484   1.339   5.010   6.473  0.4150 -1.5224  0.1384
 5665TIP3   OH238485   6.832   5.513  11.884  0.6547 -0.5008  0.1271
 5665TIP3    H138486   6.796   5.576  11.821  0.1289 -1.0427 -0.1260
 5665TIP3    H238487   6.815   5.552  11.969 -0.1521 -0.5401 -0.0068
 5666TIP3   OH238488   5.001   1.144   4.165  0.3858 -0.7174  0.5492
 5666TIP3    H138489   5.084   1.110   4.133  1.4547 -0.7533  3.0534
 5666TIP3    H238490   5.020   1.236   4.187  0.2465 -1.0915  2.4582
 5667TIP3   OH238491   1.750   3.801   4.587  0.1168  0.2216 -0.0206
 5667TIP3    H138492   1.713   3.715   4.569  0.1370 -0.2503  1.9975
 5667TIP3    H238493   1.678   3.862   4.574 -0.9611 -0.5099  2.1263
 5668TIP3   OH238494   0.008   1.950  13.363  0.0256 -1.1802  0.3722
 5668TIP3    H138495  -0.054   1.918  13.297  1.7469 -1.2019 -1.2937
 5668TIP3    H238496   0.022   2.042  13.340 -0.1678 -0.8918  1.3745
 5669TIP3   OH238497   5.068   1.474  14.594 -0.2421 -0.3727  0.3020
 5669TIP3    H138498   5.009   1.548  14.611  1.8029  1.1748  1.1845
 5669TIP3    H238499   5.154   1.505  14.625  0.4844 -3.6230  2.0027
 5670TIP3   OH238500   6.555   5.936   1.525 -0.3777 -0.6498  0.1354
 5670TIP3    H138501   6.486   5.870   1.535  0.6241 -1.8270 -0.3632
 5670TIP3    H238502   6.521   6.014   1.568 -1.6894 -1.4389  0.5793
 5671TIP3   OH238503   2.994   3.322   2.987  0.2618 -0.2985  0.3490
 5671TIP3    H138504   2.934   3.249   3.002 -0.5596  0.4201  0.6217
 5671TIP3    H238505   2.967   3.389   3.049 -0.7334  1.2708 -1.6551
 5672TIP3   OH238506   4.557   0.307  13.699 -0.2958 -0.2312 -0.6168
 5672TIP3    H138507   4.572   0.367  13.772 -0.0579 -0.4837 -0.4564
 5672TIP3    H238508   4.462   0.296  13.696 -0.4926  1.3819 -1.6379
 5673TIP3   OH238509   3.898   3.529  16.368  0.2522 -0.6362  0.5187
 5673TIP3    H138510   3.917   3.616  16.333 -0.5163 -0.2998  0.9118
 5673TIP3    H238511   3.803   3.520  16.358 -0.3172  0.1617  4.0108
 5674TIP3   OH238512   3.907   6.490   5.773  0.0016 -0.1222  0.7645
 5674TIP3    H138513   3.981   6.516   5.828  0.0972  0.1341  0.5170
 5674TIP3    H238514   3.848   6.565   5.776  0.7111  0.5482 -0.7218
 5675TIP3   OH238515   5.711   2.545  14.308  0.0683  0.3606 -0.0237
 5675TIP3    H138516   5.733   2.583  14.223  0.1752  1.7076  0.5861
 5675TIP3    H238517   5.750   2.604  14.372 -2.3600  0.9340  1.0191
 5676TIP3   OH238518   4.114   4.384   3.088 -0.2090 -0.3290  0.1202
 5676TIP3    H138519   4.080   4.299   3.118  0.9681 -0.7223  0.3981
 5676TIP3    H238520   4.115   4.438   3.167 -2.8096  0.6402 -0.4025
 5677TIP3   OH238521   5.872   3.976  17.164 -0.3262  0.3566 -0.4146
 5677TIP3    H138522   5.803   3.963  17.100 -1.0328  1.5025  0.0864
 5677TIP3    H238523   5.829   3.967  17.249  0.3295  0.1535 -0.0928
 5678TIP3   OH238524   0.787   4.877   1.296 -0.4394 -0.0353 -0.3529
 5678TIP3    H138525   0.822   4.824   1.368 -1.7054 -0.8225 -0.2706
 5678TIP3    H238526   0.837   4.851   1.220  0.3752  0.2103  0.0900
 5679TIP3   OH238527   5.317   2.960  15.994 -0.5781  0.6304  0.3477
 5679TIP3    H138528   5.296   3.019  16.067  1.7738  2.2161 -0.1392
 5679TIP3    H238529   5.253   2.982  15.927  0.3064  2.8242  0.1390
 5680TIP3   OH238530   0.532   5.292   0.253  0.3184 -0.2710  0.4384
 5680TIP3    H138531   0.534   5.301   0.158  0.9354  1.5880  0.5855
 5680TIP3    H238532   0.561   5.203   0.270  0.6397 -0.4746 -1.0903
 5681TIP3   OH238533   0.718   5.035   2.972 -0.2975  0.1431 -0.9460
 5681TIP3    H138534   0.798   4.995   2.938 -0.9564  0.6358 -3.2676
 5681TIP3    H238535   0.721   5.125   2.941 -1.9320  0.0601 -1.4667
 5682TIP3   OH238536   1.127   2.774   2.958 -0.0449 -0.4780 -0.0387
 5682TIP3    H138537   1.052   2.760   2.901  0.4109 -0.3348 -0.6858
 5682TIP3    H238538   1.152   2.686   2.986 -0.7323 -0.4919  0.5597
 5683TIP3   OH238539   5.989   1.684   5.466  0.4022 -0.5010 -0.3398
 5683TIP3    H138540   6.032   1.697   5.382  0.7544 -1.3335 -0.2966
 5683TIP3    H238541   6.023   1.754   5.522  2.0443 -1.3854 -0.1780
 5684TIP3   OH238542   6.223   0.710  14.632 -0.0741 -0.1891 -0.5559
 5684TIP3    H138543   6.197   0.779  14.571  0.9745  2.2332  1.5288
 5684TIP3    H238544   6.284   0.656  14.583  1.0642  1.9048 -1.5772
 5685TIP3   OH238545   4.034   4.025  11.583  0.3270 -0.7186  0.1671
 5685TIP3    H138546   3.952   4.021  11.633  0.1517  0.8020  0.0329
 5685TIP3    H238547   4.090   4.084  11.634 -0.0674  1.3775 -1.6901
 5686TIP3   OH238548   3.289   3.941   3.444 -0.8012  0.0968  0.2493
 5686TIP3    H138549   3.232   4.015   3.424  0.3806  1.1472  0.6677
 5686TIP3    H238550   3.249   3.900   3.520 -1.5800  0.1647 -0.1114
 5687TIP3   OH238551   4.569   2.559   2.414 -0.0244  0.3468 -0.4981
 5687TIP3    H138552   4.604   2.473   2.436  0.6633  1.0200  1.1949
 5687TIP3    H238553   4.592   2.615   2.489  0.0182  2.1369 -1.7750
 5688TIP3   OH238554   2.377   4.258  11.602  0.0238 -0.1533 -0.4778
 5688TIP3    H138555   2.321   4.335  11.609 -0.5271 -0.6040  0.2351
 5688TIP3    H238556   2.465   4.293  11.587  0.4824  0.8489  3.3885
 5689TIP3   OH238557   0.800   0.483  13.956 -0.6156 -0.1237  0.2587
 5689TIP3    H138558   0.869   0.496  14.022 -1.3655 -1.2895  1.3241
 5689TIP3    H238559   0.719   0.483  14.006 -1.4783  1.7135 -1.0494
 5690TIP3   OH238560   4.712   3.223  15.776  0.3785  0.3927 -0.4664
 5690TIP3    H138561   4.753   3.142  15.806  1.2443  0.0445 -2.4164
 5690TIP3    H238562   4.708   3.214  15.681 -0.6666  2.1182 -0.6313
 5691TIP3   OH238563   1.910   0.611  15.134  0.0138 -0.3072 -0.1728
 5691TIP3    H138564   1.929   0.606  15.228 -0.9934 -1.1804  0.0118
 5691TIP3    H238565   1.834   0.553  15.123 -1.2383  1.4353 -1.1599
 5692TIP3   OH238566   0.159   4.918  11.202 -0.2359  0.5786  0.1974
 5692TIP3    H138567   0.183   4.839  11.154 -1.6752 -0.2942  0.8453
 5692TIP3    H238568   0.065   4.909  11.218 -0.1592  1.7264  1.5497
 5693TIP3   OH238569   3.586   1.868  10.356 -0.0125 -0.3262 -0.1440
 5693TIP3    H138570   3.661   1.927  10.347  0.6128 -0.8899  1.0336
 5693TIP3    H238571   3.520   1.919  10.401 -0.4245  0.2255 -1.3286
 5694TIP3   OH238572   2.825   5.897   2.032  0.0353 -0.3524 -0.2018
 5694TIP3    H138573   2.844   5.990   2.027 -0.6935 -0.1258  0.7134
 5694TIP3    H238574   2.864   5.869   2.115 -0.5477 -0.6467 -0.0188
 5695TIP3   OH238575   1.531   4.768   6.151  0.5184 -0.1139 -0.1909
 5695TIP3    H138576   1.571   4.776   6.064  1.6552  0.4111  0.3639
 5695TIP3    H238577   1.593   4.715   6.201  0.6676  0.9254  0.7596
 5696TIP3   OH238578   0.257   2.010   4.491  0.3661 -0.3091 -0.3978
 5696TIP3    H138579   0.178   2.028   4.542  0.4854 -0.8584 -0.0115
 5696TIP3    H238580   0.233   2.033   4.401 -0.2300 -0.4520 -0.2813
 5697TIP3   OH238581   3.391   2.246   1.550  0.4305 -0.2066  0.6925
 5697TIP3    H138582   3.446   2.295   1.610 -0.6596  0.6887  0.9839
 5697TIP3    H238583   3.347   2.312   1.497 -0.0150 -0.9131  0.1564
 5698TIP3   OH238584   4.107   1.384   3.800 -0.6488 -0.0244  0.1662
 5698TIP3    H138585   4.192   1.414   3.834 -1.0410  1.5289 -0.1319
 5698TIP3    H238586   4.045   1.405   3.870 -0.9382 -0.1408 -0.0537
 5699TIP3   OH238587   3.319   5.786   6.578  0.3564  0.1993  0.3922
 5699TIP3    H138588   3.412   5.790   6.557 -0.0371  1.8485 -1.3051
 5699TIP3    H238589   3.279   5.739   6.504 -0.6825  3.5319 -1.3538
 5700TIP3   OH238590   0.524   2.177   1.154  0.4273 -0.2814 -0.5989
 5700TIP3    H138591   0.580   2.253   1.140 -1.7262  1.0735 -2.5981
 5700TIP3    H238592   0.495   2.185   1.245 -0.0295  1.5187 -0.8639
 5701TIP3   OH238593   6.521   0.942   5.306  0.5125 -0.2010  0.1006
 5701TIP3    H138594   6.514   0.867   5.364 -0.6118 -1.4939 -1.6218
 5701TIP3    H238595   6.491   1.016   5.359  1.8909 -0.8515  1.9064
 5702TIP3   OH238596   2.944   6.635   1.548  0.4953  0.0234  0.0785
 5702TIP3    H138597   3.009   6.624   1.479  1.3052  1.6811  0.5238
 5702TIP3    H238598   2.995   6.638   1.629  0.1084  2.7075  0.3342
 5703TIP3   OH238599   0.319   5.883   5.796 -0.1516  0.0570  0.1781
 5703TIP3    H138600   0.391   5.873   5.734  0.4601  0.0278  0.8840
 5703TIP3    H238601   0.343   5.828   5.870 -0.7696  0.2677  0.5415
 5704TIP3   OH238602   2.169   6.245  14.504  0.6084  0.2187  0.3581
 5704TIP3    H138603   2.112   6.269  14.431 -0.0618  0.1076  0.8416
 5704TIP3    H238604   2.111   6.206  14.569  1.6752 -3.3586 -0.5939
 5705TIP3   OH238605   0.574   2.126   0.584  0.3315 -0.3643 -0.6342
 5705TIP3    H138606   0.581   2.131   0.679  1.4672  0.9209 -0.7566
 5705TIP3    H238607   0.543   2.037   0.567  2.0859 -1.3312  0.8450
 5706TIP3   OH238608   5.458   4.322   5.275 -0.0869  0.4080  0.4035
 5706TIP3    H138609   5.532   4.267   5.250 -0.2820  0.3913 -0.1528
 5706TIP3    H238610   5.486   4.366   5.355  1.0945  1.5161 -0.5885
 5707TIP3   OH238611   5.117   0.324  17.083 -0.6890  0.3885  0.3132
 5707TIP3    H138612   5.027   0.319  17.113 -0.2734 -2.3050  1.3834
 5707TIP3    H238613   5.112   0.308  16.989 -1.2673 -0.9889  0.5587
 5708TIP3   OH238614   2.424   6.446   4.249 -0.1023 -0.0697 -0.2990
 5708TIP3    H138615   2.488   6.509   4.283  0.4211 -0.8920  0.2741
 5708TIP3    H238616   2.347   6.457   4.305 -0.2001  0.4151 -0.5275
 5709TIP3   OH238617   1.263   2.933   0.731 -0.2764  0.3918  0.5150
 5709TIP3    H138618   1.179   2.898   0.762  0.5251  0.1811  2.6043
 5709TIP3    H238619   1.329   2.883   0.779  1.0699  0.6268 -1.0051
 5710TIP3   OH238620   0.728   3.256  12.523 -0.1146  0.0984 -0.1544
 5710TIP3    H138621   0.709   3.192  12.455  2.9158 -1.3184  0.1839
 5710TIP3    H238622   0.732   3.340  12.477 -0.2421 -0.5142 -1.3138
 5711TIP3   OH238623   5.968   1.567   0.426 -0.1403 -0.0264  0.4636
 5711TIP3    H138624   5.908   1.580   0.352  1.1082  0.4459 -0.4929
 5711TIP3    H238625   5.963   1.649   0.475 -0.8574 -0.2845  0.8410
 5712TIP3   OH238626   6.601   0.948   3.976  0.2685 -0.6587 -0.1287
 5712TIP3    H138627   6.692   0.944   4.007  0.2707  1.5657  0.3243
 5712TIP3    H238628   6.606   0.918   3.885  1.8525  1.3149 -0.7805
 5713TIP3   OH238629   4.992   6.815   4.518 -0.0334  0.0766  0.0420
 5713TIP3    H138630   5.076   6.860   4.528 -0.3652  0.6615  0.2319
 5713TIP3    H238631   4.989   6.753   4.591 -0.0397  0.4970  0.4025
 5714TIP3   OH238632   6.513   1.556   1.747  0.7866  0.0236 -0.5699
 5714TIP3    H138633   6.553   1.631   1.703  1.5814  0.2511  0.4863
 5714TIP3    H238634   6.458   1.515   1.681  2.1563  0.1834 -1.8601
 5715TIP3   OH238635   5.595   5.126  15.787  0.4041 -0.4566  0.8821
 5715TIP3    H138636   5.669   5.097  15.841 -0.9907 -0.1211  3.0775
 5715TIP3    H238637   5.536   5.169  15.848 -1.1875  0.1316 -0.9806
 5716TIP3   OH238638   3.690   4.550   5.607 -0.2421  0.0239  0.5840
 5716TIP3    H138639   3.694   4.536   5.513  0.5067 -1.5495  0.8286
 5716TIP3    H238640   3.756   4.617   5.625  0.7986 -0.8554  0.1701
 5717TIP3   OH238641   1.683   1.575  15.989 -0.0573 -0.6823 -0.0409
 5717TIP3    H138642   1.752   1.608  16.046 -0.3265  0.5000 -0.3812
 5717TIP3    H238643   1.664   1.487  16.023 -1.6067  0.6691  2.9949
 5718TIP3   OH238644   3.575   5.929  16.859 -0.0531 -0.1275  0.2371
 5718TIP3    H138645   3.625   5.979  16.924 -0.6726  0.6235  0.1643
 5718TIP3    H238646   3.487   5.968  16.862 -0.5133 -1.1153  0.0480
 5719TIP3   OH238647   6.271   2.970  13.423 -0.0297  0.3175 -0.5865
 5719TIP3    H138648   6.201   2.935  13.478 -0.9104  0.1524 -1.7681
 5719TIP3    H238649   6.326   3.019  13.483 -0.9229  0.0864  0.4535
 5720TIP3   OH238650   2.710   6.101   5.648  0.3204  0.1672  0.2883
 5720TIP3    H138651   2.735   6.157   5.721  1.8342  1.4109 -1.1033
 5720TIP3    H238652   2.787   6.102   5.590 -0.4609 -1.5685 -0.8481
 5721TIP3   OH238653   3.161   3.272   4.565  0.6651 -0.1102 -0.6412
 5721TIP3    H138654   3.138   3.209   4.634  0.8154  0.7799  0.2502
 5721TIP3    H238655   3.239   3.316   4.599  0.5330  0.5822 -1.2242
 5722TIP3   OH238656   3.198   5.460  11.745  0.5164  0.6305  0.0129
 5722TIP3    H138657   3.132   5.413  11.694  1.7935 -0.0358 -1.0809
 5722TIP3    H238658   3.147   5.511  11.808 -1.1019  1.0937 -1.5861
 5723TIP3   OH238659   1.478   2.732   5.652 -0.2076  0.2200 -0.1223
 5723TIP3    H138660   1.509   2.822   5.653  2.5252 -0.6284  0.1854
 5723TIP3    H238661   1.516   2.694   5.572 -0.7878 -0.8136  0.0679
 5724TIP3   OH238662   1.368   0.944  14.503 -0.0712 -0.7678 -0.1522
 5724TIP3    H138663   1.444   0.885  14.505  1.0647  0.6431  0.8637
 5724TIP3    H238664   1.306   0.906  14.565  0.6294 -0.9476  0.4575
 5725TIP3   OH238665   6.083   0.987  13.635  0.1155  0.4947 -0.1469
 5725TIP3    H138666   6.101   0.999  13.728 -2.4521 -0.0730  0.4990
 5725TIP3    H238667   6.128   1.060  13.592  2.1942  0.1877  1.3799
 5726TIP3   OH238668   4.156   6.058  11.645  0.2391  1.0028 -0.2599
 5726TIP3    H138669   4.189   5.969  11.639  1.7328  1.4833  0.2096
 5726TIP3    H238670   4.061   6.050  11.644  0.2269 -0.8652  2.8865
 5727TIP3   OH238671   4.607   1.347   5.840  0.1429  0.3750 -0.8490
 5727TIP3    H138672   4.581   1.329   5.930  0.0580  0.5604 -0.8347
 5727TIP3    H238673   4.624   1.442   5.839 -0.0089  0.4008 -1.0649
 5728TIP3   OH238674   1.438   0.265  15.828 -0.4422  0.1928 -0.4146
 5728TIP3    H138675   1.507   0.331  15.838 -0.6012  0.3929 -0.6403
 5728TIP3    H238676   1.449   0.231  15.740  0.0232 -0.5218 -0.0848
 5729TIP3   OH238677   5.924   0.702   4.303  0.6675 -0.2825  0.4297
 5729TIP3    H138678   6.017   0.704   4.326  0.3989 -0.1925  1.5865
 5729TIP3    H238679   5.895   0.615   4.330 -0.0647  0.4628  2.1908
 5730TIP3   OH238680   2.952   6.325   4.012 -0.2763 -0.2730 -0.4602
 5730TIP3    H138681   2.937   6.338   4.106  0.1856 -2.6593  0.0115
 5730TIP3    H238682   3.042   6.354   3.998 -0.3040 -0.0236 -0.1473
 5731TIP3   OH238683   3.689   3.301   3.464 -0.0325  0.7298  0.3105
 5731TIP3    H138684   3.626   3.303   3.536 -0.9808 -0.3132 -0.4583
 5731TIP3    H238685   3.639   3.329   3.387  0.4067 -0.1578 -0.3230
 5732TIP3   OH238686   4.130   1.551   2.874  0.2596 -0.3333 -0.9307
 5732TIP3    H138687   4.187   1.545   2.950  1.7429 -0.8634 -2.0539
 5732TIP3    H238688   4.188   1.575   2.802 -0.9719 -0.6228 -2.0566
 5733TIP3   OH238689   4.208   4.309  16.828 -0.0009  1.1489  0.2091
 5733TIP3    H138690   4.228   4.392  16.871  0.6609  0.4168  1.3931
 5733TIP3    H238691   4.180   4.252  16.900  0.9352 -0.0650 -0.3451
 5734TIP3   OH238692   1.174   1.354   2.320 -0.2904 -0.6792  0.4264
 5734TIP3    H138693   1.251   1.299   2.338 -0.2101 -0.6428  0.2072
 5734TIP3    H238694   1.139   1.319   2.239  0.2628  0.1259 -0.1820
 5735TIP3   OH238695   0.722   0.958  15.568 -0.2978 -0.4687  0.2596
 5735TIP3    H138696   0.696   0.886  15.626 -1.8978 -0.6131 -0.6018
 5735TIP3    H238697   0.743   0.915  15.485 -0.4584 -0.0137 -0.0140
 5736TIP3   OH238698   6.426   2.069  16.520 -0.2802  0.1774  0.0576
 5736TIP3    H138699   6.358   2.007  16.546 -0.9450  1.1433  0.6929
 5736TIP3    H238700   6.381   2.154  16.518  0.7324  0.7198 -0.2661
 5737TIP3   OH238701   5.388   5.274  15.972  0.4879 -0.6372 -0.2265
 5737TIP3    H138702   5.308   5.244  15.928  0.5807 -1.9672  0.4605
 5737TIP3    H238703   5.387   5.229  16.056  1.7972 -0.4093 -0.0784
 5738TIP3   OH238704   1.800   1.125  15.534  0.1020 -0.5635 -0.7192
 5738TIP3    H138705   1.770   1.207  15.495 -0.8075 -1.3611 -1.7405
 5738TIP3    H238706   1.870   1.095  15.476 -1.3628 -1.8329 -1.8958
 5739TIP3   OH238707   0.033   2.607   5.317 -0.1447 -0.8563 -0.1936
 5739TIP3    H138708  -0.052   2.563   5.314  0.4447 -2.0562  0.0551
 5739TIP3    H238709   0.026   2.668   5.390 -0.3895 -1.8390  0.6231
 5740TIP3   OH238710   0.657   5.396  13.865  0.0468  0.5998 -0.5532
 5740TIP3    H138711   0.564   5.406  13.887 -0.0315 -1.9056  0.5697
 5740TIP3    H238712   0.695   5.482  13.886 -1.3796  0.6192  2.6775
 5741TIP3   OH238713   2.982   6.272   5.774  0.1513 -0.8864  0.4206
 5741TIP3    H138714   2.993   6.217   5.696  0.6509 -1.2461  0.7326
 5741TIP3    H238715   2.950   6.356   5.741 -0.6420 -1.3745 -0.0625
 5742TIP3   OH238716   6.295   3.618  16.717 -0.1438  0.0202  0.4169
 5742TIP3    H138717   6.229   3.680  16.748 -0.3533 -0.6193  1.2585
 5742TIP3    H238718   6.358   3.612  16.789 -0.3481 -1.0625  0.5206
 5743TIP3   OH238719   2.044   5.925  15.300 -0.4516 -0.0519 -0.7660
 5743TIP3    H138720   2.094   5.880  15.232  0.9541  1.3223 -0.6824
 5743TIP3    H238721   1.957   5.937  15.261  0.1908  0.3089 -2.1651
 5744TIP3   OH238722   0.750   1.560   3.695  0.3814 -0.9822  0.0188
 5744TIP3    H138723   0.771   1.589   3.784  0.7336 -2.5272  0.4655
 5744TIP3    H238724   0.817   1.494   3.675 -0.2009 -1.2642 -1.0696
 5745TIP3   OH238725   6.291   1.731   1.198 -0.2701  0.2813 -0.1195
 5745TIP3    H138726   6.338   1.804   1.237 -0.4545  0.2616  0.1486
 5745TIP3    H238727   6.277   1.670   1.271 -3.3015  1.5873  0.5468
 5746TIP3   OH238728   0.503   0.189   4.363 -0.2941  0.1007  0.7176
 5746TIP3    H138729   0.572   0.193   4.296 -0.6587  0.5333  0.3613
 5746TIP3    H238730   0.422   0.204   4.314 -0.6430 -0.4156  1.1330
 5747TIP3   OH238731   4.488   1.010   5.951 -0.0031 -0.0125  0.0322
 5747TIP3    H138732   4.501   1.018   6.046 -1.2690  1.4390  0.1137
 5747TIP3    H238733   4.468   0.917   5.938  2.7786 -0.8219  0.7924
 5748TIP3   OH238734   5.593   1.144  12.495 -0.7052 -0.2204 -0.4819
 5748TIP3    H138735   5.624   1.226  12.533 -0.1205  0.0154 -1.4205
 5748TIP3    H238736   5.541   1.171  12.419  0.5948 -0.7260 -1.5983
 5749TIP3   OH238737   5.162   0.687  12.051  0.0463  0.2477  0.6587
 5749TIP3    H138738   5.145   0.724  11.965  0.5108 -0.7511  0.1151
 5749TIP3    H238739   5.096   0.618  12.060 -0.6401  0.9954  1.5387
 5750TIP3   OH238740   0.459   1.906  15.702  0.2335  0.1042 -0.5089
 5750TIP3    H138741   0.539   1.853  15.707 -0.0781 -0.3054  0.2917
 5750TIP3    H238742   0.394   1.857  15.751 -0.5437  0.4017 -1.2125
 5751TIP3   OH238743   6.407   0.826  15.632 -0.1559 -0.1968  0.3657
 5751TIP3    H138744   6.462   0.768  15.579  1.3605 -1.0708  2.7080
 5751TIP3    H238745   6.459   0.906  15.642  0.6053 -0.8715  2.2503
 5752TIP3   OH238746   2.415   2.207   2.978  0.4105  0.5741  0.6648
 5752TIP3    H138747   2.363   2.185   3.055 -0.1793 -0.4244  0.0003
 5752TIP3    H238748   2.446   2.123   2.944  0.2588  0.9487 -0.4516
 5753TIP3   OH238749   3.699   0.851   3.644 -0.4855 -0.3334  0.4201
 5753TIP3    H138750   3.786   0.837   3.606 -0.6589  0.7566 -0.4223
 5753TIP3    H238751   3.700   0.798   3.724  1.3765  0.5278  1.0404
 5754TIP3   OH238752   2.640   3.121   5.470  0.2461 -0.1389  0.3333
 5754TIP3    H138753   2.656   3.051   5.534 -0.3855  0.6742  1.4284
 5754TIP3    H238754   2.553   3.100   5.434  0.6134 -0.6118 -0.2994
 5755TIP3   OH238755   4.580   0.366  15.644 -0.2598 -0.1745 -0.0036
 5755TIP3    H138756   4.621   0.287  15.680  0.4377 -0.1636 -0.7435
 5755TIP3    H238757   4.516   0.393  15.710 -1.9471 -2.4762 -0.5583
 5756TIP3   OH238758   6.230   4.082  15.892  0.0262 -0.0526 -0.0048
 5756TIP3    H138759   6.219   3.992  15.863  0.9417  0.1228 -0.9240
 5756TIP3    H238760   6.316   4.083  15.935  0.6789  0.7006 -1.2965
 5757TIP3   OH238761   1.181   2.146   2.720 -0.5048 -0.6468  0.0830
 5757TIP3    H138762   1.259   2.106   2.683 -1.8653 -4.2362  0.7129
 5757TIP3    H238763   1.122   2.158   2.645  0.4408  1.8667 -0.3577
 5758TIP3   OH238764   2.191   2.299   0.417 -0.5552  0.8248 -0.0845
 5758TIP3    H138765   2.192   2.282   0.511  1.9221  1.1572  0.0210
 5758TIP3    H238766   2.229   2.386   0.408  2.6440 -0.5604 -1.5212
 5759TIP3   OH238767   4.694   0.367  16.313  0.0231  0.5376 -0.2530
 5759TIP3    H138768   4.646   0.434  16.362  0.6865  1.2650 -0.5784
 5759TIP3    H238769   4.626   0.320  16.265 -0.3914  1.4615 -0.6008
 5760TIP3   OH238770   6.547   6.486  12.306 -0.4939 -0.5859 -0.1278
 5760TIP3    H138771   6.572   6.425  12.237 -1.1281 -0.8414 -0.1319
 5760TIP3    H238772   6.567   6.440  12.388 -0.5202 -0.6066 -0.1333
 5761TIP3   OH238773   3.948   3.034   4.304 -0.1731  0.1372  0.3070
 5761TIP3    H138774   3.935   3.112   4.250  1.1450  0.1514 -0.0262
 5761TIP3    H238775   3.878   2.975   4.279  1.3939 -0.5893 -2.7729
 5762TIP3   OH238776   1.820   3.892  12.309  0.1888  0.6638 -0.2527
 5762TIP3    H138777   1.867   3.850  12.381  0.6360  0.4885 -0.6396
 5762TIP3    H238778   1.833   3.834  12.235  1.7454  1.9820 -1.0900
 5763TIP3   OH238779   0.019   1.898   4.264 -0.6133 -0.0561  0.0268
 5763TIP3    H138780   0.102   1.888   4.217 -1.2776  1.2944 -1.5308
 5763TIP3    H238781   0.011   1.993   4.279 -2.1797 -0.0780 -0.4790
 5764TIP3   OH238782   2.105   1.985   4.757 -0.3497 -0.5068 -0.5863
 5764TIP3    H138783   2.153   1.912   4.796  0.7625 -0.0778 -1.0850
 5764TIP3    H238784   2.046   2.015   4.826 -0.0284 -1.1727 -0.0080
 5765TIP3   OH238785   4.173   1.166   2.756  0.7838  0.4138 -0.1627
 5765TIP3    H138786   4.148   1.074   2.758  1.3944  0.2128 -1.1105
 5765TIP3    H238787   4.201   1.185   2.846  1.0812 -0.4482 -0.0644
 5766TIP3   OH238788   3.291   2.147  12.150  0.3918 -0.4428 -0.4612
 5766TIP3    H138789   3.265   2.061  12.186  2.2529 -1.0953 -0.5918
 5766TIP3    H238790   3.279   2.138  12.056 -0.7143 -0.0768 -0.3663
 5767TIP3   OH238791   4.838   1.659   1.223  0.0204 -0.4120 -0.2177
 5767TIP3    H138792   4.867   1.722   1.289 -1.1631  0.8659 -0.8645
 5767TIP3    H238793   4.797   1.712   1.155 -1.8378 -1.9221 -0.3836
 5768TIP3   OH238794   6.321   2.364   2.117  0.0805  0.0349  0.3559
 5768TIP3    H138795   6.363   2.412   2.189  0.6432  0.0871  0.0039
 5768TIP3    H238796   6.358   2.403   2.038  0.9480 -1.2983  0.0654
 5769TIP3   OH238797   4.294   4.981   5.543 -0.0582  1.3741 -0.0048
 5769TIP3    H138798   4.355   5.024   5.603  2.0902 -1.8289  0.3399
 5769TIP3    H238799   4.211   4.979   5.590  0.3780  2.9992  0.8958
 5770TIP3   OH238800   2.049   3.119   0.517 -0.1274  1.4192  0.4269
 5770TIP3    H138801   2.139   3.090   0.531 -0.4332  0.9873  1.5610
 5770TIP3    H238802   2.052   3.162   0.431  1.3443  2.1964  0.8196
 5771TIP3   OH238803   3.701   1.409   1.603 -1.0967  0.3014 -0.4145
 5771TIP3    H138804   3.748   1.459   1.537 -1.1940 -0.7768 -1.3208
 5771TIP3    H238805   3.651   1.475   1.652  0.9943  1.4412  0.3206
 5772TIP3   OH238806   6.459   6.388  14.176  0.0711 -0.4357 -0.1431
 5772TIP3    H138807   6.389   6.379  14.240  0.2784  2.5833  0.6413
 5772TIP3    H238808   6.539   6.388  14.228  0.3755  0.2220 -0.5970
 5773TIP3   OH238809   2.782   1.982   4.460 -0.6311 -0.6775 -0.6674
 5773TIP3    H138810   2.817   1.909   4.408  0.3667 -1.6321  1.2274
 5773TIP3    H238811   2.711   2.018   4.407 -0.3057 -2.2032 -2.2247
 5774TIP3   OH238812   0.923   5.034   3.169  0.1714 -0.0691 -0.3246
 5774TIP3    H138813   0.882   5.115   3.140 -1.5317 -0.7188  0.1441
 5774TIP3    H238814   0.928   4.980   3.090  1.7182  0.6291 -0.7300
 5775TIP3   OH238815   4.006   5.571   0.114 -0.5008 -0.1013  0.1624
 5775TIP3    H138816   4.027   5.602   0.202  0.9182 -0.7760  0.1011
 5775TIP3    H238817   3.992   5.477   0.125  0.4958 -0.3369 -0.4256
 5776TIP3   OH238818   5.566   0.857  13.271 -0.0599  0.0939 -0.0659
 5776TIP3    H138819   5.541   0.883  13.182 -1.5328 -1.8625 -0.2930
 5776TIP3    H238820   5.624   0.782  13.259 -0.8168 -0.6236  0.6026
 5777TIP3   OH238821   5.342   5.359   2.571 -0.5733 -0.7731 -0.2674
 5777TIP3    H138822   5.338   5.433   2.509  0.9780 -0.1631  0.3184
 5777TIP3    H238823   5.400   5.389   2.641  2.2745 -3.4334 -1.2579
 5778TIP3   OH238824   4.442   4.508   1.648  0.0874 -0.0271 -0.9476
 5778TIP3    H138825   4.375   4.508   1.716 -1.3011  0.2763 -2.2571
 5778TIP3    H238826   4.431   4.424   1.603  1.5307 -0.5834 -0.3436
 5779TIP3   OH238827   0.088   0.137  14.043  0.2541 -0.2403 -0.1302
 5779TIP3    H138828   0.097   0.228  14.072  1.3892  0.3123 -2.0809
 5779TIP3    H238829   0.058   0.090  14.121  0.0304  1.7219  1.0236
 5780TIP3   OH238830   2.342   6.700   2.399 -0.0846  0.5451 -0.3582
 5780TIP3    H138831   2.301   6.619   2.370  0.9263  0.0447 -0.4199
 5780TIP3    H238832   2.311   6.712   2.489 -0.1990  0.0582 -0.3316
 5781TIP3   OH238833   2.706   1.697   3.160  0.3768 -0.7643  0.0085
 5781TIP3    H138834   2.713   1.696   3.065  0.8034 -1.7716  0.0412
 5781TIP3    H238835   2.611   1.698   3.177  0.2365  1.9164 -0.3928
 5782TIP3   OH238836   2.616   1.702   1.684  0.0112 -0.1258  0.2583
 5782TIP3    H138837   2.683   1.758   1.644  0.7081 -0.7554  0.5157
 5782TIP3    H238838   2.628   1.617   1.642  0.3028 -0.6144  1.3090
 5783TIP3   OH238839   5.245   1.910  16.954 -0.8336 -0.0823  0.4526
 5783TIP3    H138840   5.313   1.947  17.011 -1.3663 -0.2976  1.2428
 5783TIP3    H238841   5.243   1.817  16.977 -0.9791 -0.1924 -0.0011
 5784TIP3   OH238842   2.812   1.221   2.650 -0.0982  0.3998  0.3623
 5784TIP3    H138843   2.802   1.153   2.584 -0.2642 -0.0203  0.8080
 5784TIP3    H238844   2.723   1.255   2.663  0.3038  2.3686 -1.5602
 5785TIP3   OH238845   0.805   2.792   4.229 -0.4007  0.7492  0.3208
 5785TIP3    H138846   0.829   2.853   4.160  1.2688  0.1430  0.3083
 5785TIP3    H238847   0.788   2.709   4.184 -1.3761  0.8598  0.4592
 5786TIP3   OH238848   2.474   0.647  15.463 -0.3633  0.0284  0.6714
 5786TIP3    H138849   2.385   0.683  15.459  0.2039  1.3629 -1.8445
 5786TIP3    H238850   2.479   0.587  15.389  0.6338 -0.6768  1.2776
 5787TIP3   OH238851   3.602   5.059   2.346  0.8339 -0.0394  0.3956
 5787TIP3    H138852   3.603   5.044   2.252 -0.5564 -0.6211  0.4414
 5787TIP3    H238853   3.521   5.017   2.376  0.3783  1.5719  1.5853
 5788TIP3   OH238854   2.219   2.621   1.234 -0.1412  0.3186  0.0807
 5788TIP3    H138855   2.259   2.546   1.188  1.9713  1.9906 -0.9726
 5788TIP3    H238856   2.250   2.613   1.324 -1.5989 -1.1464  0.5015
 5789TIP3   OH238857   6.475   4.740   4.982  0.2564 -0.3218  0.0107
 5789TIP3    H138858   6.544   4.745   5.049  1.8566 -0.9712 -1.5006
 5789TIP3    H238859   6.404   4.692   5.025  0.2538  1.2800  1.9610
 5790TIP3   OH238860   5.121   1.423   0.853 -0.0809  0.9025  0.0571
 5790TIP3    H138861   5.080   1.504   0.881 -1.5261  0.0296  0.5878
 5790TIP3    H238862   5.161   1.444   0.769 -2.0695  1.7208 -0.7646
 5791TIP3   OH238863   5.743   2.770  16.739  0.4820  0.3178  0.1845
 5791TIP3    H138864   5.697   2.793  16.658 -1.7550 -1.2012  0.9264
 5791TIP3    H238865   5.676   2.772  16.807  1.4378 -2.0727  1.3281
 5792TIP3   OH238866   0.459   1.428  16.331 -0.0427  0.0865  0.2998
 5792TIP3    H138867   0.476   1.484  16.407 -1.2546 -0.5259  1.0480
 5792TIP3    H238868   0.376   1.384  16.351  0.7225 -1.7730 -0.3923
 5793TIP3   OH238869   2.687   0.809  14.748 -0.3963  0.0286  0.3277
 5793TIP3    H138870   2.749   0.770  14.686  1.0601  2.0039  0.4562
 5793TIP3    H238871   2.627   0.860  14.692  1.3760  2.4364  0.4648
 5794TIP3   OH238872   5.267   5.262  16.865  0.2027  0.7066 -0.0814
 5794TIP3    H138873   5.344   5.243  16.918 -0.3570  0.6577  0.7409
 5794TIP3    H238874   5.196   5.213  16.907 -0.2411  0.5798 -0.9463
 5795TIP3   OH238875   5.590   6.709   2.066  0.3034  0.2742  0.2028
 5795TIP3    H138876   5.518   6.671   2.115 -0.6435  0.6965 -0.8171
 5795TIP3    H238877   5.646   6.750   2.132 -2.2529  3.0862  0.8273
 5796TIP3   OH238878   3.502   5.797  15.940  0.3627  0.1468 -0.3496
 5796TIP3    H138879   3.561   5.745  15.995  0.5106  1.9373  1.2993
 5796TIP3    H238880   3.550   5.811  15.859  0.4430 -1.9555 -0.7228
 5797TIP3   OH238881   0.139   2.991  12.589  0.1184 -0.1779  0.3831
 5797TIP3    H138882   0.068   2.933  12.561  0.6083 -0.1231 -1.0708
 5797TIP3    H238883   0.212   2.931  12.606  0.5238 -0.0474 -0.7935
 5798TIP3   OH238884   1.132   5.813  11.844  0.0164  0.2699  0.5131
 5798TIP3    H138885   1.101   5.870  11.774  2.7299  1.9487  0.5363
 5798TIP3    H238886   1.182   5.745  11.799 -2.1651 -1.5014  0.5852
 5799TIP3   OH238887   6.144   4.570   2.599  0.1600 -0.1220 -0.5166
 5799TIP3    H138888   6.101   4.656   2.596 -1.9855 -1.1159 -0.4018
 5799TIP3    H238889   6.181   4.565   2.687 -1.8191 -0.2116  0.3648
 5800TIP3   OH238890   1.662   6.797   1.987  0.6176 -0.2180 -0.2475
 5800TIP3    H138891   1.643   6.832   2.073  2.8799 -0.6150  0.4842
 5800TIP3    H238892   1.578   6.798   1.941 -0.5961  0.2056  1.8592
 5801TIP3   OH238893   4.736   4.084   6.936 -0.0710 -0.4117  0.2774
 5801TIP3    H138894   4.649   4.111   6.966 -0.6084 -1.8439  0.0503
 5801TIP3    H238895   4.751   4.138   6.858  0.1133  1.2464  1.3893
 5802TIP3   OH238896   0.886   5.617  10.269  0.5316 -0.0717 -0.1985
 5802TIP3    H138897   0.835   5.642  10.346 -0.0560  0.0760 -0.6247
 5802TIP3    H238898   0.911   5.526  10.285  0.6078  0.0286  0.2659
 5803TIP3   OH238899   1.037   6.083   4.244 -0.1911  0.4640  0.4541
 5803TIP3    H138900   1.126   6.107   4.218 -0.3870 -0.3587 -1.0942
 5803TIP3    H238901   1.044   6.063   4.337  1.5661 -0.8698  0.0977
 5804TIP3   OH238902   3.248   0.097   5.672 -0.0622  0.6407 -0.3304
 5804TIP3    H138903   3.181   0.163   5.691  0.8135  1.1711  1.0430
 5804TIP3    H238904   3.324   0.148   5.644  0.1287  0.0996 -0.8351
 5805TIP3   OH238905   4.006   1.828   2.316  0.0167 -0.1041  0.3583
 5805TIP3    H138906   3.946   1.761   2.283  1.2450 -0.7870 -0.5552
 5805TIP3    H238907   4.064   1.781   2.376  1.3952 -0.0701 -0.8917
 5806TIP3   OH238908   1.078   6.766   0.039  0.1964 -0.0806 -0.2081
 5806TIP3    H138909   1.152   6.771   0.100 -1.4114  1.0327  1.7729
 5806TIP3    H238910   1.053   6.673   0.039 -1.3200  0.2129  2.9043
 5807TIP3   OH238911   2.440   0.909  14.976 -0.6313  0.2646 -0.1520
 5807TIP3    H138912   2.409   0.999  14.976 -2.3191 -0.1400  3.0747
 5807TIP3    H238913   2.365   0.857  14.948  0.0613 -0.2116 -1.1795
 5808TIP3   OH238914   0.978   2.129   3.597 -0.0964 -0.4140 -0.3251
 5808TIP3    H138915   1.030   2.085   3.664 -0.9314 -0.3697  0.3692
 5808TIP3    H238916   0.954   2.060   3.536 -0.8791 -0.8352  0.4271
 5809TIP3   OH238917   3.769   1.836  11.988  0.0385  0.1392  0.2425
 5809TIP3    H138918   3.740   1.746  11.975  0.2591 -0.0106  0.7716
 5809TIP3    H238919   3.719   1.866  12.064 -0.8059  0.8061 -0.5510
 5810TIP3   OH238920   4.425   0.596  12.709  0.3601 -0.2674 -0.0021
 5810TIP3    H138921   4.357   0.633  12.765 -0.2768 -1.2410 -0.0971
 5810TIP3    H238922   4.378   0.565  12.632  0.9346 -0.8299 -0.1354
 5811TIP3   OH238923   1.330   5.310  17.072  0.6938 -0.1000 -0.5657
 5811TIP3    H138924   1.291   5.262  17.144 -0.0808 -0.6161 -1.3144
 5811TIP3    H238925   1.414   5.340  17.106 -0.2162  0.8168  0.9990
 5812TIP3   OH238926   2.588   6.487  14.695 -0.2448 -0.0681  0.2939
 5812TIP3    H138927   2.650   6.513  14.627  2.0200 -1.7702  1.5831
 5812TIP3    H238928   2.609   6.543  14.770  0.0972 -0.9715  0.8914
 5813TIP3   OH238929   5.632   6.528   5.571  0.5767  0.1515  0.1770
 5813TIP3    H138930   5.694   6.464   5.536  1.2723  0.7290  0.3274
 5813TIP3    H238931   5.642   6.523   5.666  2.7619  2.4574  0.1769
 5814TIP3   OH238932   6.086   3.113   0.845 -0.2314 -0.0871  0.2480
 5814TIP3    H138933   6.024   3.126   0.773  0.3831  0.8634 -0.1229
 5814TIP3    H238934   6.038   3.059   0.908 -0.0821 -2.7981 -1.7708
 5815TIP3   OH238935   0.663   1.924  12.150 -0.1459 -0.2417  0.1327
 5815TIP3    H138936   0.719   1.904  12.075  0.3601 -3.3216  1.1876
 5815TIP3    H238937   0.724   1.946  12.221 -0.4095 -0.6298  0.4890
 5816TIP3   OH238938   5.405   4.318   0.620  0.1757 -0.2790  0.1722
 5816TIP3    H138939   5.483   4.373   0.611  0.6232 -1.2304 -3.6971
 5816TIP3    H238940   5.437   4.238   0.660  0.3222  0.6932  2.1215
 5817TIP3   OH238941   0.641   5.183   5.686 -0.3347  0.4682  0.2512
 5817TIP3    H138942   0.715   5.189   5.747  0.2748 -0.2762 -0.3917
 5817TIP3    H238943   0.572   5.138   5.736  0.3758 -0.7055  0.2239
 5818TIP3   OH238944   5.624   5.433   2.237 -0.1048 -0.5613 -0.1163
 5818TIP3    H138945   5.575   5.492   2.294  0.8057  1.7760 -1.5982
 5818TIP3    H238946   5.572   5.429   2.157 -0.1466 -1.8256 -0.0470
 5819TIP3   OH238947   1.338   0.347   4.284 -0.0035  0.6775 -0.0094
 5819TIP3    H138948   1.348   0.441   4.273  0.3547  0.4507 -1.9892
 5819TIP3    H238949   1.350   0.311   4.196  0.8014 -1.3041  0.8505
 5820TIP3   OH238950   6.161   3.500  14.272  0.5771  0.0236  0.2254
 5820TIP3    H138951   6.094   3.454  14.221  0.5711 -1.2804  1.3600
 5820TIP3    H238952   6.185   3.575  14.218 -0.2193 -0.7017 -1.1850
 5821TIP3   OH238953   3.341   1.466   4.990 -0.6044  0.0396  0.4771
 5821TIP3    H138954   3.417   1.524   4.984 -0.8484  0.6116  2.2781
 5821TIP3    H238955   3.372   1.390   5.038 -1.2655  0.4839  1.6350
 5822TIP3   OH238956   1.164   0.094  16.451 -0.3795 -0.4533  0.5539
 5822TIP3    H138957   1.169   0.189  16.440  0.0676 -0.5078  0.2265
 5822TIP3    H238958   1.082   0.069  16.409  0.3014 -0.3978 -0.8691
 5823TIP3   OH238959   5.903   3.195   1.992  0.5355 -0.0431 -0.3466
 5823TIP3    H138960   5.902   3.107   2.030 -2.0175  0.4839  1.0298
 5823TIP3    H238961   5.862   3.184   1.906 -0.9638 -0.0882  0.3278
 5824TIP3   OH238962   3.544   2.007  11.111  0.5353 -0.3193 -0.8152
 5824TIP3    H138963   3.597   1.931  11.087 -0.3735 -1.2675  0.0720
 5824TIP3    H238964   3.535   2.002  11.206  0.7513  1.1257 -0.6843
 5825TIP3   OH238965   0.867   1.935   5.892 -0.1231  0.2691  0.0624
 5825TIP3    H138966   0.913   1.908   5.971 -0.3443 -0.8694 -0.1801
 5825TIP3    H238967   0.800   1.868   5.879 -1.0744  1.2506 -0.2568
 5826TIP3   OH238968   1.522   6.817  11.434 -0.4083  0.0543 -0.2287
 5826TIP3    H138969   1.448   6.809  11.374 -0.5870 -0.1534  0.0176
 5826TIP3    H238970   1.482   6.833  11.520 -0.2499 -1.7145  0.2164
 5827TIP3   OH238971   0.506   0.013  13.036 -0.0381 -0.0787  0.0502
 5827TIP3    H138972   0.507  -0.064  13.093  1.0816 -0.8281 -0.9430
 5827TIP3    H238973   0.500  -0.022  12.947  0.5292  0.9645 -0.4235
 5828TIP3   OH238974   1.741   0.129   0.399  0.3142  0.6317  0.0144
 5828TIP3    H138975   1.656   0.126   0.442 -0.9408  2.2741 -2.1093
 5828TIP3    H238976   1.788   0.052   0.431 -1.9189 -0.2691  1.3184
 5829TIP3   OH238977   3.073   0.865   4.394 -0.2750 -0.7135 -0.2671
 5829TIP3    H138978   2.980   0.842   4.391 -0.6406  0.6934 -0.6757
 5829TIP3    H238979   3.081   0.939   4.334  1.1053 -0.7770 -0.1879
 5830TIP3   OH238980   6.698   2.493   4.669 -0.1551 -0.5273  0.2733
 5830TIP3    H138981   6.717   2.558   4.601  0.5220  0.1957  1.1293
 5830TIP3    H238982   6.609   2.463   4.650  0.1789 -0.6450 -1.1739
 5831TIP3   OH238983   3.271   4.126   4.739 -0.0877  0.3487 -0.5160
 5831TIP3    H138984   3.202   4.145   4.803  0.8629 -0.8118  0.9140
 5831TIP3    H238985   3.337   4.078   4.789  0.7948 -0.4033 -2.3408
 5832TIP3   OH238986   3.831   3.657  14.888 -0.1882  0.6558  0.6054
 5832TIP3    H138987   3.864   3.739  14.926 -0.8173  0.4165  1.6877
 5832TIP3    H238988   3.883   3.646  14.809 -0.5073  2.4232  0.1001
 5833TIP3   OH238989   0.304   0.916  14.322  0.3944 -0.1913 -0.3735
 5833TIP3    H138990   0.261   0.962  14.395  2.2259 -1.8844  1.9485
 5833TIP3    H238991   0.267   0.827  14.325 -1.2845  0.3045 -3.1927
 5834TIP3   OH238992   5.727   4.561   4.382 -0.8620  0.5343  0.7237
 5834TIP3    H138993   5.771   4.624   4.325 -0.5849 -1.6407 -1.6228
 5834TIP3    H238994   5.780   4.559   4.461  0.6252  1.3274 -0.2107
 5835TIP3   OH238995   5.128   5.853   0.997  0.1810 -0.3272  0.0405
 5835TIP3    H138996   5.158   5.845   0.907 -0.0696  1.1257 -0.1980
 5835TIP3    H238997   5.168   5.934   1.028 -1.1283  0.0949  0.6698
 5836TIP3   OH238998   0.657   0.596  15.060  0.2554  0.0562 -0.3126
 5836TIP3    H138999   0.625   0.583  15.149  0.4709  2.3042  0.1660
 5836TIP3    H239000   0.646   0.512  15.017 -3.5091 -0.1168  0.6784
 5837TIP3   OH239001   5.141   0.587   5.459 -0.2823 -0.0824 -0.1808
 5837TIP3    H139002   5.134   0.662   5.517  0.3571  0.2929 -0.5718
 5837TIP3    H239003   5.057   0.542   5.466 -0.9087  1.0322 -0.4440
 5838TIP3   OH239004   6.545   5.255   4.442 -0.3749 -0.1303 -0.4831
 5838TIP3    H139005   6.508   5.342   4.453  0.7276  0.2362  0.4985
 5838TIP3    H239006   6.639   5.269   4.428 -0.0200 -1.1752  0.6156
 5839TIP3   OH239007   1.145   2.111   5.784  0.2357  0.0403 -0.8177
 5839TIP3    H139008   1.173   2.084   5.872 -0.2248  1.9686 -0.0251
 5839TIP3    H239009   1.069   2.056   5.765  1.1310 -1.3055 -0.5771
 5840TIP3   OH239010   3.832   1.831   0.725  0.1021  0.1663 -0.1327
 5840TIP3    H139011   3.890   1.876   0.663  0.1954 -3.4211 -2.9732
 5840TIP3    H239012   3.891   1.786   0.785  0.0857  0.7791  0.3529
 5841TIP3   OH239013   0.064   0.350  14.196 -0.0300  0.1590 -0.5006
 5841TIP3    H139014   0.015   0.345  14.278  0.3765 -1.4922 -0.3260
 5841TIP3    H239015   0.036   0.433  14.156 -1.5345  0.1535  0.4762
 5842TIP3   OH239016   4.738   0.308   0.494 -0.4744  0.1729  0.0887
 5842TIP3    H139017   4.687   0.389   0.499 -2.0689 -0.6895 -1.1812
 5842TIP3    H239018   4.672   0.238   0.487  0.8573 -1.0709 -0.7069
 5843TIP3   OH239019   3.953   2.742  11.413 -0.0990  0.3337  0.1271
 5843TIP3    H139020   3.948   2.817  11.473  2.3713 -0.9427  2.1260
 5843TIP3    H239021   4.035   2.756  11.366 -0.4332 -0.3194 -0.6629
 5844TIP3   OH239022   2.262   2.694   2.623  0.3835  0.6910 -0.7189
 5844TIP3    H139023   2.356   2.695   2.642 -0.1743  0.7220  2.7185
 5844TIP3    H239024   2.256   2.650   2.538  3.4722  0.3880 -0.9229
 5845TIP3   OH239025   6.781   4.592  12.352 -0.1692  0.1016  0.2160
 5845TIP3    H139026   6.801   4.518  12.409  1.6389 -1.3041 -2.0725
 5845TIP3    H239027   6.862   4.609  12.304 -0.6522  3.3099  0.2964
 5846TIP3   OH239028   3.954   0.432   3.446  0.2004  0.4202 -0.2030
 5846TIP3    H139029   4.045   0.428   3.473  0.3226  2.5501 -0.2066
 5846TIP3    H239030   3.954   0.402   3.354  0.8424  0.2573 -0.1504
 5847TIP3   OH239031   2.105   4.323  12.666 -0.4776  0.4377  0.0400
 5847TIP3    H139032   2.075   4.268  12.593 -0.4456  1.7208 -0.9588
 5847TIP3    H239033   2.080   4.273  12.744 -1.7902 -0.3165 -0.8168
 5848TIP3   OH239034   3.024   0.145   6.271  0.1783 -0.1602  0.0287
 5848TIP3    H139035   3.056   0.095   6.345 -0.9528  0.6747  1.1317
 5848TIP3    H239036   2.929   0.133   6.273  0.0702  0.4306 -0.8752
 5849TIP3   OH239037   5.093   0.718   1.060  0.4842  0.4481  0.1613
 5849TIP3    H139038   5.178   0.743   1.096  0.1611 -0.1812  1.4130
 5849TIP3    H239039   5.059   0.798   1.021  1.4946  0.7933 -0.0599
 5850TIP3   OH239040   6.031   1.216  17.019  0.1827 -0.0917 -0.3352
 5850TIP3    H139041   6.051   1.131  16.978 -2.0641 -0.9433  0.1630
 5850TIP3    H239042   5.948   1.201  17.064  0.4406  2.0248  0.9420
 5851TIP3   OH239043   5.381   3.781  14.102 -0.3131 -0.4687 -0.1383
 5851TIP3    H139044   5.340   3.728  14.170 -0.2188  0.9817  1.1190
 5851TIP3    H239045   5.310   3.834  14.067 -0.3609 -1.2122 -1.2068
 5852TIP3   OH239046   1.929   5.557   4.733 -0.1135 -0.3246  0.0644
 5852TIP3    H139047   2.019   5.573   4.760 -0.4256 -0.1956  1.0689
 5852TIP3    H239048   1.892   5.503   4.802 -1.1706  0.6769  0.3299
 5853TIP3   OH239049   2.099   4.050   5.770 -0.6939 -0.5984  0.4462
 5853TIP3    H139050   2.143   3.966   5.753 -0.6135 -0.6422  0.8650
 5853TIP3    H239051   2.025   4.027   5.826 -0.8407 -0.4239  0.3265
 5854TIP3   OH239052   6.300   4.668  12.809  0.3865 -0.3783 -0.0865
 5854TIP3    H139053   6.333   4.699  12.893 -0.7557  1.2368 -0.1922
 5854TIP3    H239054   6.349   4.718  12.744  2.6335 -2.9516 -0.5413
 5855TIP3   OH239055   0.319   0.278  14.758 -0.5617  0.6189 -0.0385
 5855TIP3    H139056   0.229   0.251  14.776 -1.3265  2.6948 -0.5251
 5855TIP3    H239057   0.356   0.206  14.706 -1.5803 -0.7254  1.0206
 5856TIP3   OH239058   0.802   0.795   0.072  0.4139  0.3375 -0.4051
 5856TIP3    H139059   0.803   0.732   0.144  1.4780 -1.3738 -1.8325
 5856TIP3    H239060   0.875   0.854   0.091 -0.1309  0.7278  0.5604
 5857TIP3   OH239061   4.013   5.505  15.135  0.3295 -0.2977 -0.2347
 5857TIP3    H139062   3.928   5.463  15.127  0.3243 -0.6228  1.3843
 5857TIP3    H239063   4.076   5.434  15.124  0.3434 -0.4928  1.0397
 5858TIP3   OH239064   2.830   5.377  11.894 -0.1629 -0.0523  0.3578
 5858TIP3    H139065   2.872   5.352  11.811 -0.2893  2.4491 -0.5480
 5858TIP3    H239066   2.753   5.426  11.868  0.1595  1.3808  1.9425
 5859TIP3   OH239067   2.136   2.909   5.562 -0.4216 -0.0958 -1.1149
 5859TIP3    H139068   2.083   2.833   5.587  2.3279 -1.2249  2.0429
 5859TIP3    H239069   2.187   2.878   5.487  0.1181 -1.2011 -0.3326
 5860TIP3   OH239070   1.296   2.062   5.324  0.0890  0.0126 -0.1611
 5860TIP3    H139071   1.388   2.071   5.349  0.0003 -0.2484  0.2614
 5860TIP3    H239072   1.298   2.007   5.245  0.1903 -1.3985  0.7858
 5861TIP3   OH239073   6.536   2.367  10.491 -0.0488 -0.5319 -0.0232
 5861TIP3    H139074   6.564   2.300  10.554  0.6898 -0.7984 -0.6149
 5861TIP3    H239075   6.603   2.364  10.422  0.0719  0.9115  0.0047
 5862TIP3   OH239076   3.626   1.015  10.943 -0.1178  0.3873  0.0536
 5862TIP3    H139077   3.611   0.964  10.863  1.8905 -0.3988  0.1100
 5862TIP3    H239078   3.551   1.074  10.948 -2.5904 -2.4528 -0.0661
 5863TIP3   OH239079   2.950   5.983   5.271 -0.0283  0.3444 -0.3160
 5863TIP3    H139080   3.003   5.909   5.299  2.0135  1.0164 -2.1176
 5863TIP3    H239081   2.875   5.944   5.227 -0.4622 -0.6246  1.1964
 5864TIP3   OH239082   5.296   1.572   3.959 -0.2768 -0.2508  0.3085
 5864TIP3    H139083   5.338   1.510   3.900 -0.4515  0.2767 -0.3814
 5864TIP3    H239084   5.366   1.603   4.016 -0.0382 -0.4858  0.1451
 5865TIP3   OH239085   3.193   2.755  11.365  0.6127 -0.1086  0.3174
 5865TIP3    H139086   3.243   2.699  11.307 -0.0899 -0.0397 -0.3794
 5865TIP3    H239087   3.123   2.790  11.309  0.4104  0.6055  1.0049
 5866TIP3   OH239088   2.045   1.856   5.403 -0.2257  0.4093  0.2770
 5866TIP3    H139089   2.098   1.778   5.418  0.3837  0.6691 -0.4549
 5866TIP3    H239090   2.064   1.913   5.478 -0.9217 -0.2630  0.9798
 5867TIP3   OH239091   0.653   3.399   3.624  0.6265  0.1852  0.3868
 5867TIP3    H139092   0.645   3.454   3.547  1.1618 -1.1041 -0.6266
 5867TIP3    H239093   0.747   3.394   3.641  0.6140 -0.7062  0.2370
 5868TIP3   OH239094   3.720   3.105   5.473 -0.1256 -0.3348  0.3250
 5868TIP3    H139095   3.697   3.143   5.388  0.4385  3.2163  1.5681
 5868TIP3    H239096   3.638   3.106   5.523  0.2693  1.5613  1.0583
 5869TIP3   OH239097   3.619   0.433  15.067  0.1661  0.2587 -0.0752
 5869TIP3    H139098   3.681   0.490  15.112 -1.3533  0.9287  1.2609
 5869TIP3    H239099   3.565   0.396  15.136 -1.8547  0.8329 -1.2545
 5870TIP3   OH239100   4.844   2.426   2.728  0.4062  0.1992  0.3797
 5870TIP3    H139101   4.799   2.501   2.690  0.2823  0.2371  0.5953
 5870TIP3    H239102   4.893   2.462   2.802 -0.2599 -0.0365  0.9617
 5871TIP3   OH239103   5.950   0.071  12.378 -0.2349 -0.1847 -0.0091
 5871TIP3    H139104   5.895   0.057  12.455 -1.0413  0.7358 -0.3952
 5871TIP3    H239105   5.898   0.129  12.322 -0.2934 -1.9203 -1.8828
 5872TIP3   OH239106   1.432   0.681  14.163 -0.6484  0.1353  0.0484
 5872TIP3    H139107   1.367   0.611  14.165 -1.5885  0.9818  0.1710
 5872TIP3    H239108   1.381   0.761  14.176  0.5478  0.7398  1.2756
 5873TIP3   OH239109   3.939   4.952  16.728 -0.1015  0.2862 -0.2731
 5873TIP3    H139110   3.939   4.913  16.815  1.1711  2.2483  0.6962
 5873TIP3    H239111   4.007   4.905  16.680  2.0405  1.7449  1.1592
 5874TIP3   OH239112   2.583   3.576   4.992  0.1727  0.5526 -0.3528
 5874TIP3    H139113   2.538   3.499   5.026 -0.0779 -0.0972 -2.0790
 5874TIP3    H239114   2.657   3.589   5.052 -0.6549 -0.0667  0.8570
 5875TIP3   OH239115   4.514   6.440   3.717 -0.1599 -0.0310  0.2087
 5875TIP3    H139116   4.459   6.481   3.651  0.8001 -0.4818 -0.9075
 5875TIP3    H239117   4.562   6.512   3.757  0.8631  0.0793 -1.1269
 5876TIP3   OH239118   4.401   1.669   2.279 -0.0369 -0.2710 -0.5646
 5876TIP3    H139119   4.496   1.675   2.271  0.0103 -1.2965 -0.9482
 5876TIP3    H239120   4.380   1.720   2.357  0.9915 -1.2490  0.3780
 5877TIP3   OH239121   6.384   2.795   0.694  0.2755 -0.3406  0.3548
 5877TIP3    H139122   6.417   2.849   0.622  0.8952 -1.0304  0.1226
 5877TIP3    H239123   6.290   2.788   0.677  0.3296 -0.0407 -0.0773
 5878TIP3   OH239124   5.448   3.810   5.549 -0.0169 -0.0978 -0.5001
 5878TIP3    H139125   5.515   3.853   5.496 -0.0777  0.3622 -0.1999
 5878TIP3    H239126   5.489   3.730   5.580  0.1114 -0.2340 -1.0167
 5879TIP3   OH239127   6.752   5.930   3.155 -0.1994 -0.6466 -0.3460
 5879TIP3    H139128   6.756   5.895   3.066 -0.5268 -0.8000 -0.3008
 5879TIP3    H239129   6.769   6.024   3.145  1.3166 -0.8990 -0.4015
 5880TIP3   OH239130   2.447   4.607   0.506  0.0634  0.5550  0.4401
 5880TIP3    H139131   2.408   4.541   0.448  1.4250  0.1101 -0.0242
 5880TIP3    H239132   2.425   4.578   0.594 -1.2820  0.7449  0.1772
 5881TIP3   OH239133   1.376   5.276   6.321  0.3385 -0.0867  0.1837
 5881TIP3    H139134   1.332   5.360   6.333  1.3346  0.5627 -0.5011
 5881TIP3    H239135   1.373   5.261   6.226  0.5809 -0.5915  0.2509
 5882TIP3   OH239136   1.614   5.163  14.015  0.3259  0.1545  0.1651
 5882TIP3    H139137   1.589   5.073  14.033 -1.4971  0.3712 -1.0154
 5882TIP3    H239138   1.604   5.172  13.920  2.8000  0.9567 -0.0876
 5883TIP3   OH239139   6.178   2.402  15.645 -0.0133 -0.2063  0.6492
 5883TIP3    H139140   6.272   2.413  15.632  0.0585 -1.0382  0.3943
 5883TIP3    H239141   6.171   2.332  15.709 -0.4506  0.8053  1.7433
 5884TIP3   OH239142   6.135   0.646   1.842 -0.1331 -0.1607  0.2896
 5884TIP3    H139143   6.085   0.573   1.806 -0.6456  0.5212 -0.4196
 5884TIP3    H239144   6.107   0.653   1.933 -0.6726 -0.3418  0.1388
 5885TIP3   OH239145   3.081   2.207  10.832 -0.1529  0.0019 -0.4312
 5885TIP3    H139146   3.135   2.182  10.757 -1.1430 -1.9637 -0.5367
 5885TIP3    H239147   2.997   2.231  10.794 -0.6347 -0.9319  0.0175
 5886TIP3   OH239148   3.195   3.351  16.541  0.0018 -0.3791 -0.0234
 5886TIP3    H139149   3.186   3.446  16.551  2.7015  0.1038 -1.2614
 5886TIP3    H239150   3.194   3.317  16.630 -1.1510  0.7512  0.4336
 5887TIP3   OH239151   3.446   6.667   1.047  0.0207 -0.1161 -0.5988
 5887TIP3    H139152   3.533   6.701   1.025  0.5593 -2.4187 -2.4451
 5887TIP3    H239153   3.387   6.706   0.982  0.2008 -0.6698 -1.1104
 5888TIP3   OH239154   0.429   1.458   2.399 -0.1544  0.3397  0.3596
 5888TIP3    H139155   0.490   1.452   2.326  0.5757 -0.3151  1.0166
 5888TIP3    H239156   0.344   1.432   2.361 -0.1531  1.6979 -0.6605
 5889TIP3   OH239157   5.140   0.800   5.651 -0.3934  0.6015 -0.4125
 5889TIP3    H139158   5.046   0.815   5.649 -0.5206  0.1179  0.9276
 5889TIP3    H239159   5.167   0.828   5.739  0.0536 -2.7448  0.6318
 5890TIP3   OH239160   6.123   5.571  12.216  0.4131 -0.1192 -0.4367
 5890TIP3    H139161   6.144   5.499  12.157  0.9445  0.3383 -0.8199
 5890TIP3    H239162   6.171   5.551  12.296  0.3823 -0.3037 -0.4637
 5891TIP3   OH239163   4.567   6.747  16.676 -0.4278 -0.1533  0.6690
 5891TIP3    H139164   4.629   6.675  16.676 -1.9889 -1.5573  0.8273
 5891TIP3    H239165   4.484   6.708  16.705 -2.1447  0.9011 -2.3131
 5892TIP3   OH239166   0.473   6.829  12.463  0.2292 -0.2190  0.3541
 5892TIP3    H139167   0.523   6.910  12.460  0.3761 -0.2880  0.8493
 5892TIP3    H239168   0.427   6.826  12.379  1.7200 -0.5797 -0.4891
 5893TIP3   OH239169   2.328   6.439   2.013  0.1727 -0.1868  0.4378
 5893TIP3    H139170   2.273   6.463   2.087 -1.6909 -0.1184 -0.8971
 5893TIP3    H239171   2.400   6.389   2.052 -0.8036 -0.2451  2.2695
 5894TIP3   OH239172   6.435   3.514   4.128  0.9440  0.0390 -0.7438
 5894TIP3    H139173   6.353   3.468   4.111  1.0655 -0.4740  0.0073
 5894TIP3    H239174   6.490   3.496   4.052 -0.1250  1.5584 -1.9507
 5895TIP3   OH239175   0.731   3.808   5.848 -0.2250 -0.4079  0.0034
 5895TIP3    H139176   0.659   3.866   5.874 -0.5656 -0.2199 -1.2794
 5895TIP3    H239177   0.779   3.791   5.929 -0.7216  0.8376  0.5822
 5896TIP3   OH239178   4.192   4.060  11.052 -0.1805  0.4659 -0.6175
 5896TIP3    H139179   4.183   4.116  10.975  2.1775  1.8117 -0.0112
 5896TIP3    H239180   4.250   3.990  11.023 -0.6251  0.0483 -0.5049
 5897TIP3   OH239181   3.165   3.952   4.543  0.3920 -0.0329 -0.2251
 5897TIP3    H139182   3.157   3.863   4.576  1.8829  0.1018  0.6233
 5897TIP3    H239183   3.187   4.004   4.620 -1.0228  1.1902 -0.6034
 5898TIP3   OH239184   6.731   4.044  17.097  0.6565 -0.3273  0.0725
 5898TIP3    H139185   6.738   4.135  17.125  0.5289  0.1070 -1.2318
 5898TIP3    H239186   6.756   4.046  17.004 -3.4400 -0.8746 -1.2468
 5899TIP3   OH239187   4.194   0.965   4.196 -1.0019 -0.2746  0.4732
 5899TIP3    H139188   4.245   1.029   4.145 -0.6779 -0.6458  0.3192
 5899TIP3    H239189   4.189   1.003   4.284 -4.1280  1.8622 -0.4400
 5900TIP3   OH239190   1.049   2.215  14.897  0.6116  0.2478 -0.0713
 5900TIP3    H139191   1.082   2.138  14.943  1.7451  1.2926  0.9359
 5900TIP3    H239192   0.976   2.245  14.951  1.5411  1.1040  0.7587
 5901TIP3   OH239193   0.341   0.573   5.500  0.3341  0.3709 -0.4657
 5901TIP3    H139194   0.276   0.523   5.450  1.9302 -1.2531 -1.0034
 5901TIP3    H239195   0.319   0.665   5.483 -1.8923 -0.1044 -0.4964
 5902TIP3   OH239196   3.266   0.902  12.010  0.8048 -0.4420 -0.2888
 5902TIP3    H139197   3.198   0.895  12.077  1.5565 -2.3798  0.3673
 5902TIP3    H239198   3.219   0.903  11.927 -0.0971  0.9187  0.2056
 5903TIP3   OH239199   6.582   2.745   3.345 -0.0115  0.2602  0.0959
 5903TIP3    H139200   6.669   2.776   3.319 -0.2025  1.5933  0.9316
 5903TIP3    H239201   6.597   2.692   3.423 -0.0901  2.0036  1.3403
 5904TIP3   OH239202   0.587   1.974   1.423  0.1819  0.1822  0.2898
 5904TIP3    H139203   0.644   1.910   1.382  0.2548 -0.8519  1.9091
 5904TIP3    H239204   0.625   1.988   1.510  0.1248  2.3802  0.0106
 5905TIP3   OH239205   3.804   4.919   0.481 -0.3942  0.9173  0.0928
 5905TIP3    H139206   3.868   4.856   0.447 -2.8473 -1.3701 -0.6250
 5905TIP3    H239207   3.787   4.891   0.571 -2.1587 -0.1416 -0.5082
 5906TIP3   OH239208   1.361   0.813   5.486  0.6021  0.3148  0.5583
 5906TIP3    H139209   1.284   0.800   5.431  1.6827 -1.2604 -0.6711
 5906TIP3    H239210   1.336   0.780   5.572  0.3254 -1.6670 -0.2172
 5907TIP3   OH239211   3.559   5.042  16.388  0.2845 -0.0486  0.1242
 5907TIP3    H139212   3.654   5.032  16.386  0.3232 -1.1717 -4.6497
 5907TIP3    H239213   3.526   4.952  16.385 -0.8972  0.3486  0.8166
 5908TIP3   OH239214   4.722   3.423   1.368  0.2820  0.2893  0.6137
 5908TIP3    H139215   4.771   3.351   1.406  1.0040  0.1595 -0.5411
 5908TIP3    H239216   4.780   3.499   1.376  0.0900  0.4471  0.5301
 5909TIP3   OH239217   0.294   2.016  13.734 -0.2545 -0.1567  0.1514
 5909TIP3    H139218   0.214   1.966  13.718 -0.4834  0.2157  0.1255
 5909TIP3    H239219   0.296   2.027  13.829  0.6946 -1.6902  0.3357
 5910TIP3   OH239220   5.775   6.786   2.248 -0.2457 -0.6067  0.1813
 5910TIP3    H139221   5.851   6.840   2.225 -1.8946  1.4178 -0.8734
 5910TIP3    H239222   5.771   6.791   2.344  1.0834 -0.9738  0.2789
 5911TIP3   OH239223   5.005   2.563   3.928  0.0671 -0.5161  0.1003
 5911TIP3    H139224   5.038   2.481   3.893  2.3620 -0.6573  2.3435
 5911TIP3    H239225   5.072   2.628   3.906 -1.0709  0.5237 -0.4612
 5912TIP3   OH239226   1.493   2.240   1.485  0.8083  0.1517  0.5724
 5912TIP3    H139227   1.526   2.186   1.557  0.5622 -0.5252  0.1816
 5912TIP3    H239228   1.473   2.324   1.526 -0.9002 -0.7366  1.6521
 5913TIP3   OH239229   3.220   2.227  11.363 -0.1529 -0.7082 -0.4220
 5913TIP3    H139230   3.247   2.271  11.282 -1.5529  0.5270 -0.2702
 5913TIP3    H239231   3.125   2.239  11.366 -0.1601 -0.9820  1.2596
 5914TIP3   OH239232   6.545   0.380   5.522  0.3660 -0.2069  0.1264
 5914TIP3    H139233   6.608   0.428   5.468  0.7091  1.4292  1.8616
 5914TIP3    H239234   6.485   0.340   5.459  1.8040  0.0480 -1.5022
 5915TIP3   OH239235   5.142   0.704   4.697 -0.0676  0.7468  0.2445
 5915TIP3    H139236   5.147   0.730   4.790 -4.0597 -0.7531  1.0966
 5915TIP3    H239237   5.090   0.773   4.657 -0.8528 -0.0637 -0.1575
 5916TIP3   OH239238   5.534   5.554   3.468 -0.7319  0.3248  0.2226
 5916TIP3    H139239   5.549   5.463   3.492  1.0595  0.7747  1.0253
 5916TIP3    H239240   5.449   5.554   3.424 -1.7559 -1.3932  2.0156
 5917TIP3   OH239241   3.853   0.574  16.240  0.3918  0.3350 -0.3999
 5917TIP3    H139242   3.906   0.500  16.211 -0.9827 -1.2639  0.9581
 5917TIP3    H239243   3.781   0.579  16.177  0.4740  0.5244 -0.4807
 5918TIP3   OH239244   0.783   2.963  16.466 -0.2359 -0.1029  0.4021
 5918TIP3    H139245   0.721   3.034  16.484 -0.7689 -0.3842 -0.3272
 5918TIP3    H239246   0.868   2.999  16.494 -0.3635  1.1328 -0.6910
 5919TIP3   OH239247   2.894   4.106  11.270  0.5041  0.6713 -0.2518
 5919TIP3    H139248   2.836   4.095  11.194  1.0620 -1.6795 -0.4235
 5919TIP3    H239249   2.943   4.023  11.275  2.5002  1.8316  1.0156
 5920TIP3   OH239250   3.871   0.879   4.681  0.0740  0.1133 -0.3643
 5920TIP3    H139251   3.798   0.817   4.673  0.2918 -0.5396  1.9493
 5920TIP3    H239252   3.917   0.872   4.597 -1.6704 -0.5277 -1.3353
 5921TIP3   OH239253   4.178   2.628   2.837 -0.5748  0.2826  0.2621
 5921TIP3    H139254   4.193   2.711   2.793  0.2153  0.5743  1.0380
 5921TIP3    H239255   4.113   2.648   2.905 -0.3969  0.2736  0.4379
 5922TIP3   OH239256   3.983   0.826   0.211 -0.6218 -1.0231 -0.2310
 5922TIP3    H139257   3.947   0.909   0.242  0.7564 -0.6985  0.5828
 5922TIP3    H239258   3.982   0.833   0.116  1.5575  0.9297 -0.1937
 5923TIP3   OH239259   3.960   0.722  15.898 -0.4099  0.2613 -0.3289
 5923TIP3    H139260   3.883   0.732  15.954 -1.2949 -0.0299 -1.4345
 5923TIP3    H239261   3.995   0.636  15.919 -2.2363 -0.9620 -1.9182
 5924TIP3   OH239262   4.020   6.805  11.609 -0.1367  0.1609  0.7073
 5924TIP3    H139263   4.017   6.895  11.576  0.3402 -0.9535 -2.8333
 5924TIP3    H239264   4.113   6.783  11.609 -0.3036 -0.5403  0.9364
 5925TIP3   OH239265   5.197   2.330  15.968  0.0790 -0.3765  0.0871
 5925TIP3    H139266   5.266   2.274  16.004  0.0626  0.2510  1.1385
 5925TIP3    H239267   5.132   2.336  16.039 -1.2316 -1.2279 -0.9960
 5926TIP3   OH239268   4.858   3.519  10.468  0.2843  0.2978  0.4252
 5926TIP3    H139269   4.921   3.507  10.397 -0.3381  2.0190 -0.5010
 5926TIP3    H239270   4.843   3.614  10.470 -2.4555 -0.0432  0.3977
 5927TIP3   OH239271   5.000   5.978  16.163 -0.5332  0.4660 -0.0504
 5927TIP3    H139272   4.929   5.999  16.103 -1.7954  1.2433  1.6258
 5927TIP3    H239273   5.039   6.063  16.185 -2.3201  0.6962  2.7802
 5928TIP3   OH239274   2.807   6.379   2.547 -0.1370 -0.2216  0.2392
 5928TIP3    H139275   2.812   6.315   2.476 -2.0466 -1.9309  1.5209
 5928TIP3    H239276   2.846   6.335   2.622  1.6886  1.4938  0.3729
 5929TIP3   OH239277   1.390   4.608   5.890 -0.7195  0.0643  0.1027
 5929TIP3    H139278   1.318   4.668   5.906  0.3198  1.1310  0.9179
 5929TIP3    H239279   1.466   4.651   5.929  0.5055 -0.6869 -1.3911
 5930TIP3   OH239280   6.605   4.230  12.437 -0.1858  0.1821 -0.0214
 5930TIP3    H139281   6.571   4.222  12.348 -1.0255 -2.6978  0.4576
 5930TIP3    H239282   6.697   4.205  12.430 -0.2332  0.0298 -0.1031
 5931TIP3   OH239283   1.336   4.197   1.579  0.0131 -0.2678  0.6015
 5931TIP3    H139284   1.320   4.105   1.600 -1.5744  0.0865  1.0271
 5931TIP3    H239285   1.258   4.225   1.532  0.8283  0.6653 -0.2461
 5932TIP3   OH239286   2.175   5.284   0.632 -0.4081 -0.1056  0.1013
 5932TIP3    H139287   2.181   5.355   0.696  0.9690 -0.1710  0.0768
 5932TIP3    H239288   2.215   5.319   0.552 -0.9118 -0.4714 -0.3191
 5933TIP3   OH239289   0.426   6.083   1.356 -0.3967  0.3701 -0.1793
 5933TIP3    H139290   0.342   6.120   1.386 -0.7937  0.7011 -1.6165
 5933TIP3    H239291   0.410   5.988   1.353  0.2779  0.0956  2.4543
 5934TIP3   OH239292   1.407   4.859   5.017  0.1268 -0.3962 -0.2890
 5934TIP3    H139293   1.388   4.867   5.110  0.1986 -1.3193 -0.1868
 5934TIP3    H239294   1.322   4.842   4.976  0.1277 -0.2082 -0.3742
 5935TIP3   OH239295   5.677   3.910  11.106  0.3528  0.1909 -0.1136
 5935TIP3    H139296   5.582   3.903  11.095  0.3148  0.2040  0.2052
 5935TIP3    H239297   5.690   3.985  11.163  0.5919  0.5898 -0.6838
 5936TIP3   OH239298   0.847   4.123   2.085  0.0120 -0.0145 -0.1769
 5936TIP3    H139299   0.874   4.077   2.164  0.7994  1.1226  0.2590
 5936TIP3    H239300   0.844   4.056   2.017 -0.6596 -1.0015  0.8117
 5937TIP3   OH239301   1.323   5.533   5.417 -0.3462 -0.3614  0.1198
 5937TIP3    H139302   1.278   5.466   5.468 -0.0720 -2.1275 -1.8496
 5937TIP3    H239303   1.414   5.528   5.446 -0.0744 -1.7679 -0.9019
 5938TIP3   OH239304   1.533   1.548   1.201 -0.4789  0.2451 -0.8054
 5938TIP3    H139305   1.597   1.508   1.260 -1.9132 -1.7724 -0.5266
 5938TIP3    H239306   1.577   1.550   1.116  0.0655 -0.8329 -0.5652
 5939TIP3   OH239307   3.682   5.285  12.424  0.1691 -0.2688  0.3130
 5939TIP3    H139308   3.696   5.283  12.330  0.5807 -0.5335  0.3789
 5939TIP3    H239309   3.758   5.240  12.461 -0.3441 -0.8095  0.7331
 5940TIP3   OH239310   3.614   6.212   6.262  0.0080  0.3050 -0.2137
 5940TIP3    H139311   3.592   6.129   6.304 -3.3328 -0.1193 -2.4089
 5940TIP3    H239312   3.614   6.276   6.333  3.3378 -1.4936  1.6522
 5941TIP3   OH239313   6.655   6.362   4.636 -0.3234 -0.1383  0.2460
 5941TIP3    H139314   6.643   6.399   4.549  0.5641 -1.1916 -0.3582
 5941TIP3    H239315   6.577   6.387   4.685 -1.7601 -1.1570 -1.4441
 5942TIP3   OH239316   3.951   6.831  15.322  0.1783  0.0515  0.0404
 5942TIP3    H139317   4.002   6.767  15.373  1.8208  0.6810 -0.7354
 5942TIP3    H239318   4.017   6.893  15.290 -1.2291  1.4570 -0.2189
 5943TIP3   OH239319   0.085   4.755  17.120  0.1546  0.4657 -0.1014
 5943TIP3    H139320   0.032   4.727  17.195  0.0346  0.0827 -0.3282
 5943TIP3    H239321   0.049   4.708  17.045 -0.4001  1.6369 -0.5903
 5944TIP3   OH239322   1.944   0.684   2.151 -0.1032 -0.1570 -0.0832
 5944TIP3    H139323   1.867   0.738   2.132 -0.3462 -0.4500  0.0576
 5944TIP3    H239324   2.004   0.703   2.079  0.8387  2.1391  1.1788
 5945TIP3   OH239325   1.908   3.749   6.510 -0.1767 -0.2751 -0.1969
 5945TIP3    H139326   1.923   3.842   6.492  0.3741 -0.4279 -0.5484
 5945TIP3    H239327   1.829   3.748   6.564 -1.8916  0.2125 -2.5379
 5946TIP3   OH239328   5.040   0.009   2.265 -0.3535  0.3070 -0.4649
 5946TIP3    H139329   4.997   0.070   2.324  0.2535  0.2203  0.0752
 5946TIP3    H239330   4.985  -0.070   2.268 -0.2277  0.2391  0.1196
 5947TIP3   OH239331   0.059   5.306  16.304  0.1289  0.4625 -0.3812
 5947TIP3    H139332   0.056   5.308  16.208  1.2408  0.9781 -0.4323
 5947TIP3    H239333  -0.025   5.269  16.331  0.4066 -1.1788 -1.6035
 5948TIP3   OH239334   6.485   0.732   3.503 -0.5597  0.4795  0.3508
 5948TIP3    H139335   6.519   0.646   3.477 -2.6196  0.4583 -2.8838
 5948TIP3    H239336   6.563   0.785   3.519  0.7748 -1.6251  1.1406
 5949TIP3   OH239337   5.540   4.002  10.836  0.6517  0.2069  0.1521
 5949TIP3    H139338   5.456   3.988  10.793  0.9179 -0.6767 -0.1049
 5949TIP3    H239339   5.519   4.055  10.913 -0.3008 -0.8338  0.6346
 5950TIP3   OH239340   1.292   3.693  16.057 -0.1980  0.4906  0.2009
 5950TIP3    H139341   1.223   3.651  16.108  0.0625 -1.4074 -0.9288
 5950TIP3    H239342   1.355   3.623  16.039  0.6076  1.5217 -1.1770
 5951TIP3   OH239343   0.989   3.265   2.113 -0.0519 -0.5455  0.2545
 5951TIP3    H139344   0.969   3.299   2.200 -3.4447 -2.4372  0.4024
 5951TIP3    H239345   1.058   3.322   2.080 -1.0172  2.3880  2.8177
 5952TIP3   OH239346   2.414   6.828   5.160  0.5780 -0.2317  0.3577
 5952TIP3    H139347   2.401   6.901   5.220  1.3183 -0.0078  0.2585
 5952TIP3    H239348   2.333   6.777   5.165  0.0477  0.6081  0.4016
 5953TIP3   OH239349   6.604   0.913  14.503 -0.3791  0.2060 -0.1347
 5953TIP3    H139350   6.601   1.009  14.500  1.4438  0.3440  0.6736
 5953TIP3    H239351   6.686   0.891  14.459 -0.2453 -0.9029  0.6339
 5954TIP3   OH239352   1.626   2.889   1.053  0.0137 -0.0153  0.0703
 5954TIP3    H139353   1.645   2.965   0.998  0.7878 -1.5442 -1.9127
 5954TIP3    H239354   1.705   2.878   1.106 -0.0697  0.5157  0.3071
 5955TIP3   OH239355   3.387   4.523   4.411  0.0690 -0.5785 -0.4100
 5955TIP3    H139356   3.358   4.434   4.430 -2.2803  0.2038  0.0979
 5955TIP3    H239357   3.322   4.578   4.454  2.4146  1.4371  0.7921
 5956TIP3   OH239358   4.403   5.846   3.655 -0.1604 -0.1916  0.0289
 5956TIP3    H139359   4.464   5.785   3.614 -0.0094  0.7506 -1.1835
 5956TIP3    H239360   4.411   5.927   3.605 -1.0562  0.5422  1.0081
 5957TIP3   OH239361   2.985   5.541  14.410 -0.0124 -0.0084  0.3916
 5957TIP3    H139362   2.961   5.452  14.435  0.7364 -0.7322 -1.3285
 5957TIP3    H239363   3.079   5.545  14.424 -0.2313  0.9819  1.7442
 5958TIP3   OH239364   0.026   4.083   4.734 -0.4411 -0.1129  0.1004
 5958TIP3    H139365  -0.065   4.062   4.756 -0.5126  1.7450  1.9204
 5958TIP3    H239366   0.054   4.143   4.803  2.5240 -1.3719  0.1429
 5959TIP3   OH239367   1.520   3.257  16.183  0.2027 -0.4280  0.0969
 5959TIP3    H139368   1.502   3.326  16.248 -2.7128 -1.0942  0.0881
 5959TIP3    H239369   1.562   3.188  16.234 -0.8934 -0.4268  1.0371
 5960TIP3   OH239370   0.116   4.211   4.251  0.4237 -0.0362  0.5799
 5960TIP3    H139371   0.202   4.175   4.275  1.1313  0.5357 -0.9689
 5960TIP3    H239372   0.065   4.205   4.331  2.2182  0.4899  1.8362
 5961TIP3   OH239373   0.570   2.901   3.750  0.6155  0.2535 -0.1391
 5961TIP3    H139374   0.550   2.844   3.824  0.6145  0.2922 -0.1102
 5961TIP3    H239375   0.504   2.969   3.752  0.4737  0.1239 -0.3128
 5962TIP3   OH239376   1.127   3.833  13.484  0.6493  0.0277  0.4368
 5962TIP3    H139377   1.165   3.887  13.414  0.4419  0.7712  0.8891
 5962TIP3    H239378   1.107   3.895  13.554 -0.9176 -0.4226  0.4219
 5963TIP3   OH239379   2.979   4.265   0.867  0.3827 -0.3076 -0.2941
 5963TIP3    H139380   2.895   4.247   0.825 -0.1487 -0.7648  0.9126
 5963TIP3    H239381   3.044   4.254   0.797 -0.2266 -3.3629 -0.5207
 5964TIP3   OH239382   1.893   4.551   3.735 -0.1728  0.2829 -0.1786
 5964TIP3    H139383   1.973   4.544   3.787  0.2655  2.3648 -0.4692
 5964TIP3    H239384   1.914   4.509   3.652 -0.1420 -1.0955  0.4954
 5965TIP3   OH239385   1.536   5.715   1.673 -0.1176  0.1903  0.2130
 5965TIP3    H139386   1.487   5.782   1.627 -1.0153  0.7494  1.8897
 5965TIP3    H239387   1.620   5.755   1.694  0.0978  0.1042 -0.4851
 5966TIP3   OH239388   5.486   0.913  11.810  0.5528 -0.5491  0.4917
 5966TIP3    H139389   5.469   0.899  11.903 -2.4367  0.4891  0.2336
 5966TIP3    H239390   5.435   0.845  11.766  0.1474  0.2964 -0.3855
 5967TIP3   OH239391   2.157   5.944  16.447 -0.0546  0.1110 -0.0767
 5967TIP3    H139392   2.124   5.999  16.518 -1.2491 -0.2082 -0.3702
 5967TIP3    H239393   2.087   5.944  16.382  0.8204 -0.0137 -1.0396
 5968TIP3   OH239394   2.656   3.619   5.552 -0.1374 -0.2099  0.0624
 5968TIP3    H139395   2.749   3.599   5.548  0.6431  2.8220  0.3151
 5968TIP3    H239396   2.613   3.542   5.515  2.4153 -1.8287  0.2066
 5969TIP3   OH239397   3.083   3.572   0.906 -0.4013 -0.0051 -0.5768
 5969TIP3    H139398   3.085   3.612   0.819 -1.1093 -1.0688 -1.1038
 5969TIP3    H239399   3.151   3.505   0.904 -0.7606 -0.3785 -0.4932
 5970TIP3   OH239400   0.638   1.790  16.043 -0.1765  0.2717 -1.1960
 5970TIP3    H139401   0.673   1.844  15.972 -0.5990  0.8146 -1.0025
 5970TIP3    H239402   0.547   1.773  16.018  0.3519 -1.5852 -1.9588
 5971TIP3   OH239403   1.687   0.561  11.756 -0.0102  0.3166  0.1796
 5971TIP3    H139404   1.759   0.556  11.693 -0.0080  0.6193  0.1558
 5971TIP3    H239405   1.685   0.474  11.797 -0.6033 -0.1986 -0.8844
 5972TIP3   OH239406   4.174   4.464  13.896  0.1274  0.2102 -0.8779
 5972TIP3    H139407   4.219   4.418  13.967  0.8565 -2.8882 -3.1377
 5972TIP3    H239408   4.227   4.543  13.881  2.1017 -0.9513 -0.3658
 5973TIP3   OH239409   6.767   0.601  13.811  0.6269  0.4342  0.0258
 5973TIP3    H139410   6.817   0.682  13.820  3.2364 -1.1459  0.5547
 5973TIP3    H239411   6.769   0.582  13.718  1.0920  0.3387  0.0538
 5974TIP3   OH239412   1.927   5.748  13.303 -0.0973  0.5500  0.1596
 5974TIP3    H139413   1.975   5.804  13.242  1.4097  3.6388  3.8010
 5974TIP3    H239414   1.987   5.675  13.319 -0.4138 -0.1890 -1.7036
 5975TIP3   OH239415   1.545   1.346   5.351  0.4046 -0.4257  0.1317
 5975TIP3    H139416   1.549   1.390   5.436  0.3934  1.0775 -0.6023
 5975TIP3    H239417   1.618   1.285   5.352  0.2125 -0.6566  1.3345
 5976TIP3   OH239418   2.560   3.625   4.592  0.2718 -0.0860 -0.3000
 5976TIP3    H139419   2.491   3.608   4.656  0.6685  0.0373  0.1587
 5976TIP3    H239420   2.534   3.707   4.550 -0.2236 -0.3995 -0.6159
 5977TIP3   OH239421   3.431   3.099   4.819  0.2996  0.2446  0.2819
 5977TIP3    H139422   3.489   3.173   4.799  0.1010  0.0262 -1.2299
 5977TIP3    H239423   3.485   3.022   4.803  1.1977 -0.0707  3.8527
 5978TIP3   OH239424   1.666   1.727  14.295 -0.8187 -0.1103  0.2355
 5978TIP3    H139425   1.647   1.821  14.296 -0.3615 -0.0076 -0.0148
 5978TIP3    H239426   1.582   1.685  14.312 -1.7566  0.2623 -2.8608
 5979TIP3   OH239427   3.163   3.227   6.426  0.1878  0.0356  0.4900
 5979TIP3    H139428   3.232   3.233   6.491  0.6486 -0.4253  0.0587
 5979TIP3    H239429   3.155   3.315   6.390  1.1330 -0.0769 -0.0315
 5980TIP3   OH239430   3.321   6.417  11.763 -0.4872 -0.3948 -0.1426
 5980TIP3    H139431   3.304   6.494  11.710  3.8960  0.9278 -0.0130
 5980TIP3    H239432   3.319   6.344  11.701  0.0324  0.5165 -1.2690
 5981TIP3   OH239433   5.595   4.871  17.068  0.1125 -0.1882  0.2023
 5981TIP3    H139434   5.585   4.868  16.973  1.7265  0.2721 -0.0187
 5981TIP3    H239435   5.580   4.962  17.091 -1.4113 -0.5134  0.5555
 5982TIP3   OH239436   3.026   4.862  13.920 -0.4262  0.0281  0.3043
 5982TIP3    H139437   3.073   4.945  13.930  0.2706 -0.0781 -1.6621
 5982TIP3    H239438   3.090   4.803  13.880 -0.7757 -1.6346  2.0200
 5983TIP3   OH239439   0.420   2.467  13.581  0.4587 -0.2738  0.1573
 5983TIP3    H139440   0.360   2.517  13.635  1.1147 -1.2180  1.8232
 5983TIP3    H239441   0.387   2.377  13.585  1.7794 -0.7549  0.8470
 5984TIP3   OH239442   6.460   6.584  14.439 -0.8143  0.1961  0.2441
 5984TIP3    H139443   6.523   6.647  14.475 -0.4718  0.2771 -0.4853
 5984TIP3    H239444   6.435   6.621  14.354 -0.4764 -0.7416 -0.2680
 5985TIP3   OH239445   6.545   0.137  10.547 -0.8180  0.0197  0.1297
 5985TIP3    H139446   6.601   0.059  10.543  1.0716  1.3511 -2.1239
 5985TIP3    H239447   6.585   0.192  10.615  0.5873  0.8509 -1.2930
 5986TIP3   OH239448   1.558   3.985  15.636 -0.0286 -0.0213 -0.2912
 5986TIP3    H139449   1.596   3.927  15.703 -0.5747 -1.8798 -1.4977
 5986TIP3    H239450   1.626   3.992  15.569 -0.9649 -1.7030 -1.5012
 5987TIP3   OH239451   4.331   6.103  11.066  0.0652 -0.3583 -0.5000
 5987TIP3    H139452   4.283   6.071  11.143  1.0526 -2.8994 -0.8203
 5987TIP3    H239453   4.272   6.085  10.993 -0.7339  1.7485 -0.4348
 5988TIP3   OH239454   6.052   5.466  13.863  0.6342 -1.0066  0.1843
 5988TIP3    H139455   6.075   5.398  13.799 -0.0767 -1.5060  0.4505
 5988TIP3    H239456   6.002   5.530  13.813  1.3820 -0.6200 -0.0867
 5989TIP3   OH239457   6.453   1.101   2.102 -0.2343  0.3624 -0.2039
 5989TIP3    H139458   6.437   1.189   2.137 -0.2547  0.1495  0.3411
 5989TIP3    H239459   6.387   1.089   2.034 -0.7467  0.4727  0.2638
 5990TIP3   OH239460   1.401   4.909   0.036  0.0112  0.4379  0.2154
 5990TIP3    H139461   1.496   4.922   0.035 -0.0806  1.2349 -1.4384
 5990TIP3    H239462   1.371   4.947  -0.046 -1.4462 -2.0948 -0.5405
 5991TIP3   OH239463   1.030   3.613  13.622 -0.2121 -0.2627  0.2270
 5991TIP3    H139464   0.936   3.633  13.624 -0.4111 -1.1835  1.1116
 5991TIP3    H239465   1.068   3.684  13.571 -1.3928  0.1189 -0.1674
 5992TIP3   OH239466   5.626   5.713   3.100  0.5100  0.2870  0.6233
 5992TIP3    H139467   5.537   5.716   3.136 -0.5574  2.3563 -1.8667
 5992TIP3    H239468   5.676   5.774   3.155  0.4811 -0.9669  2.1056
 5993TIP3   OH239469   5.275   4.544   1.647  0.3480 -0.2531  0.1734
 5993TIP3    H139470   5.306   4.577   1.563 -1.0229  1.5693  0.3108
 5993TIP3    H239471   5.180   4.545   1.640  0.2189 -0.9703  1.4225
 5994TIP3   OH239472   5.069   1.255  16.674  0.7281  0.1755  0.3685
 5994TIP3    H139473   5.030   1.238  16.589  1.6280 -0.6552  0.1012
 5994TIP3    H239474   5.146   1.199  16.677  0.6037  0.0270  1.8123
 5995TIP3   OH239475   1.907   4.352  15.174 -0.0570  0.1851  0.1450
 5995TIP3    H139476   1.985   4.385  15.218  1.0114 -0.5436 -1.1084
 5995TIP3    H239477   1.854   4.429  15.156  1.2440  0.9508 -0.5796
 5996TIP3   OH239478   1.698   0.610  14.130  0.0953  0.1465 -0.2255
 5996TIP3    H139479   1.696   0.535  14.071 -0.1225  1.2853 -1.7131
 5996TIP3    H239480   1.607   0.625  14.154  0.2556 -0.8181  1.1182
 5997TIP3   OH239481   0.289   4.503  12.908  0.1819  0.0553  0.2423
 5997TIP3    H139482   0.258   4.546  12.828  0.1111  0.9454  0.7369
 5997TIP3    H239483   0.297   4.410  12.884 -3.0212 -0.2998  0.1011
 5998TIP3   OH239484   5.216   0.864  12.907 -0.4479 -0.6356 -0.3144
 5998TIP3    H139485   5.195   0.939  12.852 -1.1724 -0.2693  0.4402
 5998TIP3    H239486   5.216   0.789  12.847  0.6559  0.0006 -1.1454
 5999TIP3   OH239487   1.291   0.929  15.626 -0.0307  0.0607 -0.2835
 5999TIP3    H139488   1.373   0.880  15.632  0.0679  0.1994 -0.4744
 5999TIP3    H239489   1.267   0.924  15.533 -1.1926 -1.5170  0.0647
 6000TIP3   OH239490   0.552   2.038  14.677  0.8383  0.0694 -0.0023
 6000TIP3    H139491   0.573   1.981  14.603  1.6794  1.9042 -1.2350
 6000TIP3    H239492   0.470   2.081  14.652  0.2691 -0.4573  0.8719
 6001TIP3   OH239493   6.507   4.875  10.862 -0.0737 -0.0897  0.2620
 6001TIP3    H139494   6.482   4.837  10.778 -0.1128 -0.5453  0.4819
 6001TIP3    H239495   6.484   4.809  10.927  1.7991 -0.6110  0.4734
 6002TIP3   OH239496   0.914   3.160  11.264  0.5123  0.0980  0.4930
 6002TIP3    H139497   0.984   3.165  11.329  0.1130  0.0596  0.9304
 6002TIP3    H239498   0.944   3.215  11.192  0.9505  0.1581  0.7187
 6003TIP3   OH239499   0.945   0.312   0.631 -0.3486 -0.2744 -0.2276
 6003TIP3    H139500   0.855   0.310   0.662 -0.5317 -0.7201 -0.7650
 6003TIP3    H239501   0.938   0.308   0.536  0.2135  0.7508 -0.3224
 6004TIP3   OH239502   3.838   3.401  13.701 -0.2190  0.1436 -0.5221
 6004TIP3    H139503   3.821   3.426  13.610  0.7027  0.6792 -0.5582
 6004TIP3    H239504   3.919   3.446  13.723 -0.4154 -0.0105  0.5591
 6005TIP3   OH239505   5.549   1.319  14.067  1.0683 -0.8183  0.2332
 6005TIP3    H139506   5.636   1.357  14.056  0.8620 -0.3686  0.1029
 6005TIP3    H239507   5.505   1.336  13.984  0.5636 -0.2522  0.6091
 6006TIP3   OH239508   5.708   4.881  10.879 -0.0425 -0.2583  0.0535
 6006TIP3    H139509   5.678   4.949  10.818  0.8721  0.0582 -0.0472
 6006TIP3    H239510   5.794   4.854  10.846 -0.4211 -1.5457  0.0321
 6007TIP3   OH239511   2.095   4.812   2.041  0.0365 -0.1189 -0.5403
 6007TIP3    H139512   2.027   4.880   2.048  0.6540  0.5244 -0.6830
 6007TIP3    H239513   2.131   4.805   2.130  1.6368  1.5170 -0.9888
 6008TIP3   OH239514   2.413   6.695   3.008 -0.2710 -0.5315 -0.1869
 6008TIP3    H139515   2.474   6.748   3.059  0.1343 -1.2830  0.1261
 6008TIP3    H239516   2.334   6.749   3.001 -0.0264 -0.0706  0.4980
 6009TIP3   OH239517   6.394   1.468  11.473 -0.2714  0.1922  0.1718
 6009TIP3    H139518   6.420   1.511  11.554  0.3315 -0.0309  0.0995
 6009TIP3    H239519   6.439   1.517  11.404  0.9112 -0.9030  0.1276
 6010TIP3   OH239520   0.768   2.812   4.607  0.1024  0.0601 -0.1051
 6010TIP3    H139521   0.675   2.789   4.611  0.4336 -1.8814 -1.9061
 6010TIP3    H239522   0.799   2.801   4.697 -1.6770  2.4133  0.9341
 6011TIP3   OH239523   0.011   0.365  14.950 -0.1553 -0.6572  0.2594
 6011TIP3    H139524  -0.080   0.380  14.975 -0.1762 -0.5176  0.1046
 6011TIP3    H239525   0.006   0.301  14.878 -0.4380  2.0821 -2.3802
 6012TIP3   OH239526   1.257   4.351   5.627  0.2552  0.2715  0.4982
 6012TIP3    H139527   1.188   4.408   5.591  0.7714  1.8798  1.9018
 6012TIP3    H239528   1.212   4.297   5.692  0.0817  0.4341  0.5148
 6013TIP3   OH239529   6.695   2.263   3.586  0.0538 -0.1680  0.4640
 6013TIP3    H139530   6.645   2.317   3.648 -1.1277  0.0854 -0.6579
 6013TIP3    H239531   6.700   2.177   3.628 -0.0908  0.1816  1.2287
 6014TIP3   OH239532   0.276   4.776   2.447  0.4721 -0.1034 -0.5270
 6014TIP3    H139533   0.184   4.764   2.422  0.0921  0.4820  0.4960
 6014TIP3    H239534   0.293   4.869   2.430  0.4888  0.0758  0.4149
 6015TIP3   OH239535   5.367   1.212  16.027 -0.5253  0.0442 -0.0826
 6015TIP3    H139536   5.342   1.132  15.982  0.0736 -0.1951 -0.0035
 6015TIP3    H239537   5.420   1.261  15.963  0.7995 -0.5522  0.5112
 6016TIP3   OH239538   0.196   1.242  15.325  0.1017  0.2784  0.9526
 6016TIP3    H139539   0.197   1.156  15.282 -0.5275  1.0266 -0.6121
 6016TIP3    H239540   0.275   1.285  15.293 -1.4162  1.6192 -1.1652
 6017TIP3   OH239541   0.005   5.961  16.991 -0.0560 -0.3131  0.2535
 6017TIP3    H139542   0.018   5.911  16.911 -1.5016  0.6279 -0.6143
 6017TIP3    H239543  -0.086   5.947  17.014 -0.1326  0.8608  0.7252
 6018TIP3   OH239544   1.874   4.010   0.607  0.4866 -0.3464 -0.3403
 6018TIP3    H139545   1.947   4.053   0.563 -0.2341  1.6100  0.2482
 6018TIP3    H239546   1.867   3.924   0.565  2.3679 -0.1277 -1.1846
 6019TIP3   OH239547   3.343   2.603   1.537 -0.0420  0.8602 -0.0365
 6019TIP3    H139548   3.275   2.548   1.497  0.3852  0.4477 -0.1969
 6019TIP3    H239549   3.425   2.571   1.500  0.5343 -0.5188  2.2328
 6020TIP3   OH239550   4.567   6.382   1.892 -0.4217  0.0305  0.2002
 6020TIP3    H139551   4.627   6.311   1.915  0.4057  0.5797 -0.2196
 6020TIP3    H239552   4.489   6.365   1.944 -0.4756 -1.5293 -0.3523
 6021TIP3   OH239553   4.271   4.648   5.930 -0.1813  0.1898  0.6034
 6021TIP3    H139554   4.199   4.606   5.881  0.4681 -1.3332  0.9020
 6021TIP3    H239555   4.255   4.624   6.021  0.8202 -0.3537  0.6482
 6022TIP3   OH239556   0.340   4.180  17.115  0.3806  0.0906  0.6874
 6022TIP3    H139557   0.347   4.135  17.031 -0.9683 -0.5164  0.8781
 6022TIP3    H239558   0.333   4.273  17.092 -1.2608 -0.1631  0.0222
 6023TIP3   OH239559   5.512   5.655   1.468 -0.5773 -0.1552 -0.5315
 6023TIP3    H139560   5.572   5.582   1.454  1.9525  1.7713 -0.5734
 6023TIP3    H239561   5.562   5.733   1.442 -2.0402  1.8805  2.1597
 6024TIP3   OH239562   4.237   1.735  12.986 -0.3667  0.5813 -0.0039
 6024TIP3    H139563   4.292   1.694  12.919 -0.1481 -0.1007  0.5905
 6024TIP3    H239564   4.291   1.737  13.064 -0.8658  0.7512  0.3410
 6025TIP3   OH239565   3.285   4.157  15.146 -0.3959  1.1218 -0.1371
 6025TIP3    H139566   3.193   4.141  15.169 -0.0933  0.4881  0.6677
 6025TIP3    H239567   3.296   4.113  15.062  0.3080 -2.8576  1.7869
 6026TIP3   OH239568   4.405   0.437   3.817 -0.2837  0.3310 -0.0391
 6026TIP3    H139569   4.324   0.396   3.847  0.7731 -0.5791  1.7303
 6026TIP3    H239570   4.461   0.440   3.895  1.5698  0.4580 -1.3083
 6027TIP3   OH239571   5.862   0.592  16.690  0.6634  0.2003 -0.2396
 6027TIP3    H139572   5.919   0.515  16.686 -0.0860 -0.4383  0.6892
 6027TIP3    H239573   5.846   0.605  16.783 -0.6478  0.4039 -0.4727
 6028TIP3   OH239574   6.762   1.417  12.163 -0.1167  0.1372 -0.5228
 6028TIP3    H139575   6.770   1.460  12.248 -0.7807  0.9416 -0.8537
 6028TIP3    H239576   6.852   1.404  12.134  0.1055  0.3497  0.0580
 6029TIP3   OH239577   5.489   1.377   2.017  0.0011 -0.0776 -0.6380
 6029TIP3    H139578   5.538   1.397   2.097 -2.3449  0.5575  0.7379
 6029TIP3    H239579   5.551   1.393   1.946  2.5742 -1.8441  1.0350
 6030TIP3   OH239580   0.701   1.879   0.770  0.2609 -0.5442 -0.0444
 6030TIP3    H139581   0.771   1.906   0.709 -0.0288  0.0713 -0.1135
 6030TIP3    H239582   0.743   1.816   0.829  1.4496  1.3192  1.2050
 6031TIP3   OH239583   2.883   3.689   0.511  0.0133  0.0326 -0.3242
 6031TIP3    H139584   2.975   3.682   0.536 -0.4614 -1.4973  1.1403
 6031TIP3    H239585   2.834   3.667   0.590 -1.6590  1.4626 -0.8780
 6032TIP3   OH239586   5.093   5.984   2.400 -0.4715  0.7671 -0.2192
 6032TIP3    H139587   5.028   6.053   2.411 -0.9992  0.4077 -0.9620
 6032TIP3    H239588   5.175   6.030   2.380  0.3785  1.4191  3.9513
 6033TIP3   OH239589   6.706   1.491   0.310 -0.0190  0.0556  0.2414
 6033TIP3    H139590   6.739   1.423   0.369  1.1496 -0.5089 -1.0034
 6033TIP3    H239591   6.625   1.521   0.350  0.5059 -0.6284  1.8835
 6034TIP3   OH239592   5.214   2.997  15.626  0.2350 -0.7414 -0.6734
 6034TIP3    H139593   5.297   3.044  15.621  0.2703 -0.2249  2.6122
 6034TIP3    H239594   5.239   2.907  15.645  0.0644 -0.6118  0.1883
 6035TIP3   OH239595   6.765   1.549   2.444  0.2532  0.0329 -0.1408
 6035TIP3    H139596   6.692   1.581   2.497  0.7580 -1.4370  1.5318
 6035TIP3    H239597   6.836   1.534   2.507  1.5653  0.1118 -1.5264
 6036TIP3   OH239598   1.359   5.142   5.124  0.0271  0.2462  0.4572
 6036TIP3    H139599   1.427   5.076   5.113 -1.7635 -1.5244 -0.6996
 6036TIP3    H239600   1.328   5.131   5.214  1.4207  1.3267  1.1270
 6037TIP3   OH239601   5.229   6.103  11.373 -0.3511 -0.0339 -0.2063
 6037TIP3    H139602   5.208   6.082  11.282 -1.5787  2.8044 -0.6869
 6037TIP3    H239603   5.161   6.059  11.424 -0.2517 -0.8029 -0.7111
 6038TIP3   OH239604   2.262   3.199   4.508  0.2531 -0.2016  0.0541
 6038TIP3    H139605   2.283   3.147   4.430 -0.4969  2.0420 -1.7360
 6038TIP3    H239606   2.167   3.198   4.514  0.2075  1.0973 -0.1438
 6039TIP3   OH239607   6.768   4.062  13.882 -0.3896 -0.1418  0.5835
 6039TIP3    H139608   6.816   4.000  13.937  1.8695  1.2472  0.3012
 6039TIP3    H239609   6.764   4.020  13.796 -0.0717 -0.4620  0.7238
 6040TIP3   OH239610   5.323   5.624   4.640  0.0277 -0.4889 -0.4762
 6040TIP3    H139611   5.352   5.537   4.667  2.2254  0.2072 -0.3859
 6040TIP3    H239612   5.256   5.648   4.704  0.7463 -1.3502  0.6339
 6041TIP3   OH239613   4.080   6.430  14.587 -0.3431  0.0349 -0.0298
 6041TIP3    H139614   4.072   6.335  14.589 -0.4471  0.0190 -0.9293
 6041TIP3    H239615   4.095   6.452  14.495 -0.9774  0.9382  0.0638
 6042TIP3   OH239616   0.954   5.768  14.239 -0.0039  0.1731  0.1720
 6042TIP3    H139617   1.049   5.774  14.248  0.0980 -0.9230  0.0447
 6042TIP3    H239618   0.939   5.679  14.207 -0.9517  0.9610 -1.7506
 6043TIP3   OH239619   6.818   5.730  16.406 -0.2366  0.2301  0.4310
 6043TIP3    H139620   6.813   5.691  16.319  1.4260  0.4441  0.2060
 6043TIP3    H239621   6.767   5.810  16.399  0.0375  0.3420 -0.4059
 6044TIP3   OH239622   3.043   4.320   0.081 -0.0341 -0.4306 -0.5309
 6044TIP3    H139623   3.062   4.414   0.072 -1.4366  0.0539  1.0676
 6044TIP3    H239624   3.083   4.281   0.003  1.1446  1.3898 -0.9265
 6045TIP3   OH239625   0.989   4.977  15.744 -0.3224 -0.1764  0.0173
 6045TIP3    H139626   0.929   5.031  15.693 -0.5136 -0.7361 -0.3689
 6045TIP3    H239627   1.041   5.039  15.795 -0.5125  0.3659 -0.4427
 6046TIP3   OH239628   5.318   5.518   3.032  0.1805  0.2636  0.0342
 6046TIP3    H139629   5.403   5.478   3.021 -1.6376 -3.5522 -1.7684
 6046TIP3    H239630   5.284   5.529   2.943 -1.5754  0.8456  0.7240
 6047TIP3   OH239631   5.653   3.972   2.370  0.6814 -0.7801  0.0406
 6047TIP3    H139632   5.684   3.906   2.433  1.5746  0.2553  0.7294
 6047TIP3    H239633   5.718   4.042   2.377 -1.0050  0.8095  0.3728
 6048TIP3   OH239634   6.151   6.267  13.604  0.1340 -0.1919  0.0494
 6048TIP3    H139635   6.153   6.243  13.511 -4.4623 -2.2330  0.1955
 6048TIP3    H239636   6.192   6.194  13.649  0.5017 -0.1889 -0.2811
 6049TIP3   OH239637   3.670   0.519   5.105  0.2488 -0.6402 -0.5776
 6049TIP3    H139638   3.680   0.425   5.085  0.0889 -0.7241 -0.2731
 6049TIP3    H239639   3.731   0.563   5.046  0.0044 -0.9067 -1.0319
 6050TIP3   OH239640   5.524   2.766  15.055 -0.2356 -0.1714 -0.3739
 6050TIP3    H139641   5.598   2.718  15.093 -1.3777 -1.8595 -0.1777
 6050TIP3    H239642   5.486   2.813  15.129  0.3101  0.2846 -0.3733
 6051TIP3   OH239643   1.097   3.773  12.995 -0.1860  0.0521 -0.0128
 6051TIP3    H139644   1.080   3.864  12.970  0.4282  0.6219  1.4683
 6051TIP3    H239645   1.192   3.763  12.985 -0.4928 -1.2400 -2.5235
 6052TIP3   OH239646   1.688   1.025  13.688 -0.0152  0.2569 -0.0397
 6052TIP3    H139647   1.603   1.068  13.686 -0.3309 -0.3788 -0.4179
 6052TIP3    H239648   1.688   0.974  13.769 -0.5952 -0.9225 -0.7519
 6053TIP3   OH239649   2.077   2.901  13.243  0.5652  0.1798 -0.3784
 6053TIP3    H139650   2.070   2.964  13.171  0.3827  0.0818 -0.4479
 6053TIP3    H239651   1.987   2.873  13.259  0.2700  2.0297  1.5579
 6054TIP3   OH239652   6.033   1.699  13.182  0.0236  0.0025 -0.1972
 6054TIP3    H139653   6.046   1.743  13.266 -2.7245  0.7979 -0.0803
 6054TIP3    H239654   5.971   1.628  13.201  1.2366 -1.3798 -1.1507
 6055TIP3   OH239655   0.289   3.144   2.368  0.1433 -0.6914  0.2874
 6055TIP3    H139656   0.258   3.134   2.278  0.6474  0.1969 -0.0019
 6055TIP3    H239657   0.347   3.220   2.364 -0.7835  0.1264  1.6045
 6056TIP3   OH239658   5.840   0.834   6.449  0.2469  0.4468 -0.1990
 6056TIP3    H139659   5.895   0.909   6.470  1.2719  0.4759 -2.5922
 6056TIP3    H239660   5.895   0.779   6.393 -0.8073 -1.6290  0.6931
 6057TIP3   OH239661   1.864   0.721  14.460 -0.4317 -0.1385 -0.0071
 6057TIP3    H139662   1.841   0.809  14.490 -0.1088  0.5434 -1.6397
 6057TIP3    H239663   1.801   0.663  14.503 -3.1996  1.2931 -1.8129
 6058TIP3   OH239664   3.268   5.229  11.558 -0.1159 -0.1891  0.0465
 6058TIP3    H139665   3.263   5.268  11.645 -1.6294 -0.8161  0.2794
 6058TIP3    H239666   3.285   5.302  11.499  0.2069  0.3466  0.8028
 6059TIP3   OH239667   4.730   4.206   2.703 -0.2244  0.2231 -0.6722
 6059TIP3    H139668   4.720   4.281   2.644 -0.2572  0.3723 -0.4803
 6059TIP3    H239669   4.807   4.227   2.756 -0.9413  0.6991  0.2153
 6060TIP3   OH239670   2.386   0.740   6.364  0.3606 -0.0245 -0.2311
 6060TIP3    H139671   2.417   0.656   6.330 -0.9973 -0.1472 -1.2520
 6060TIP3    H239672   2.428   0.749   6.450 -1.7511 -3.2211  1.3397
 6061TIP3   OH239673   5.590   1.062  16.145  0.1012 -0.1815  0.0595
 6061TIP3    H139674   5.494   1.067  16.145 -0.2055 -1.5525  4.4926
 6061TIP3    H239675   5.615   1.098  16.230  3.2330 -2.8187  0.4301
 6062TIP3   OH239676   5.720   1.623  13.441 -0.0966  0.3289  0.2630
 6062TIP3    H139677   5.648   1.622  13.504 -0.6365  2.3317 -0.2640
 6062TIP3    H239678   5.678   1.629  13.355  0.6588  1.2953 -0.0655
 6063TIP3   OH239679   3.998   2.933   6.080 -0.3378 -0.4549 -0.4686
 6063TIP3    H139680   3.935   2.866   6.053 -1.0392 -0.1386  0.3622
 6063TIP3    H239681   3.977   2.950   6.172  1.1872 -0.6089 -0.0598
 6064TIP3   OH239682   0.562   5.824   5.679 -0.1516 -0.4937  0.1068
 6064TIP3    H139683   0.619   5.853   5.609 -2.0970 -0.2323 -1.4635
 6064TIP3    H239684   0.604   5.746   5.714  1.3045 -0.1256 -0.7630
 6065TIP3   OH239685   3.838   2.434   0.310 -0.3562 -0.2337 -0.2003
 6065TIP3    H139686   3.777   2.454   0.239  0.1275 -0.7944 -0.7832
 6065TIP3    H239687   3.911   2.494   0.296  1.4366 -2.6674 -2.3781
 6066TIP3   OH239688   4.317   5.650  12.172  0.4616  0.4476 -0.0359
 6066TIP3    H139689   4.295   5.560  12.146  0.6414  0.3020  0.3153
 6066TIP3    H239690   4.249   5.673  12.236  0.1015  0.7548 -0.5257
 6067TIP3   OH239691   4.800   3.867   4.206  0.4440  0.2506 -0.2683
 6067TIP3    H139692   4.788   3.932   4.275  1.2238  0.6857 -0.5395
 6067TIP3    H239693   4.745   3.793   4.234 -1.3336  1.4263 -0.5212
 6068TIP3   OH239694   0.822   1.505   1.744  0.0293 -0.2006  0.5385
 6068TIP3    H139695   0.866   1.567   1.687  1.0955  0.1719  1.7216
 6068TIP3    H239696   0.758   1.558   1.792 -1.0928 -0.5710 -0.5127
 6069TIP3   OH239697   2.147   2.820   1.659  0.4103 -0.1544 -0.8235
 6069TIP3    H139698   2.208   2.765   1.708 -0.5422 -0.7932 -0.3258
 6069TIP3    H239699   2.159   2.908   1.695  0.0358 -0.5376  0.2629
 6070TIP3   OH239700   2.109   2.304  10.856 -0.3148  0.3313  0.4287
 6070TIP3    H139701   2.018   2.318  10.828 -1.1681 -0.3033  2.6832
 6070TIP3    H239702   2.125   2.373  10.920  0.9217  0.6279 -0.1854
 6071TIP3   OH239703   2.974   4.532   3.210 -0.1302  0.0089 -0.4952
 6071TIP3    H139704   2.915   4.478   3.158 -2.1287  0.4612  1.1716
 6071TIP3    H239705   2.981   4.614   3.162  0.2664 -0.5438 -1.3959
 6072TIP3   OH239706   4.341   4.387  14.143 -0.0081  0.2666  0.1083
 6072TIP3    H139707   4.349   4.292  14.146  0.5494  0.2531 -1.1600
 6072TIP3    H239708   4.267   4.407  14.200 -1.6979 -1.1277 -1.4968
 6073TIP3   OH239709   3.175   3.780  13.839  0.0114  0.1139 -0.3246
 6073TIP3    H139710   3.179   3.686  13.822 -1.9523 -0.2754  1.0198
 6073TIP3    H239711   3.088   3.794  13.877  0.2737  2.4727 -0.4298
 6074TIP3   OH239712   2.618   3.446   4.406  0.1603  0.0465 -0.1792
 6074TIP3    H139713   2.635   3.539   4.388  1.4887  0.1823  1.5352
 6074TIP3    H239714   2.554   3.446   4.477 -0.7187 -0.3886 -0.9541
 6075TIP3   OH239715   2.515   3.459   2.753  0.0934 -0.3263 -0.2622
 6075TIP3    H139716   2.604   3.460   2.719 -0.4307 -2.1885 -1.8835
 6075TIP3    H239717   2.509   3.537   2.808  2.7959 -0.3183  0.1470
 6076TIP3   OH239718   5.683   1.888   5.170 -0.0319 -0.1419 -0.2088
 6076TIP3    H139719   5.607   1.942   5.191  1.8329  2.4447  0.4714
 6076TIP3    H239720   5.674   1.870   5.076 -0.2616  2.3693 -0.7549
 6077TIP3   OH239721   2.602   4.331  15.340 -0.3054  0.4654 -0.1137
 6077TIP3    H139722   2.582   4.421  15.314  0.5914  1.0457  1.1441
 6077TIP3    H239723   2.567   4.323  15.429 -1.6537 -0.9025 -0.7234
 6078TIP3   OH239724   4.804   5.294   1.691  0.0420 -0.6380  0.1048
 6078TIP3    H139725   4.753   5.217   1.716  0.3088 -0.1862  2.1911
 6078TIP3    H239726   4.879   5.259   1.643  0.3891 -1.7449  1.4120
 6079TIP3   OH239727   4.110   3.450   2.031 -0.1730 -0.3642 -0.3535
 6079TIP3    H139728   4.198   3.431   2.064 -0.0696 -1.6852 -1.3347
 6079TIP3    H239729   4.110   3.415   1.942 -0.8519  2.0005 -1.3470
 6080TIP3   OH239730   3.728   0.934  12.076 -0.2703 -0.1552 -0.5045
 6080TIP3    H139731   3.702   0.999  12.141  0.4486  0.8478 -1.1868
 6080TIP3    H239732   3.646   0.909  12.032 -0.4352  1.1413 -0.9870
 6081TIP3   OH239733   4.093   3.522  13.662 -0.5850 -0.1968 -0.6373
 6081TIP3    H139734   4.093   3.584  13.589 -3.1454  1.9372  1.0210
 6081TIP3    H239735   4.163   3.552  13.720 -1.8011  1.2131  0.1473
 6082TIP3   OH239736   3.418   1.607   4.366 -0.0213  0.2230  0.6871
 6082TIP3    H139737   3.479   1.671   4.402 -0.0593 -0.0911  1.3316
 6082TIP3    H239738   3.471   1.551   4.309  0.2401  0.1066  1.0467
 6083TIP3   OH239739   1.159   5.640  12.661  0.0697  0.0719  0.0057
 6083TIP3    H139740   1.127   5.723  12.697  0.9001  0.4503 -0.0957
 6083TIP3    H239741   1.214   5.603  12.730  0.7512  0.2486 -0.4319
 6084TIP3   OH239742   0.599   3.510   3.378 -0.4951  0.9162  0.1709
 6084TIP3    H139743   0.517   3.536   3.336 -1.0708  0.0052  0.6971
 6084TIP3    H239744   0.609   3.418   3.358  1.5011  1.4482 -1.6190
 6085TIP3   OH239745   6.121   1.665   1.820  0.1116  0.1168  0.1853
 6085TIP3    H139746   6.200   1.692   1.774 -0.3831  0.3793 -0.5389
 6085TIP3    H239747   6.106   1.735   1.885 -0.0750  0.5946 -0.3591
 6086TIP3   OH239748   2.757   4.883  14.039 -0.2697 -0.1038  0.5966
 6086TIP3    H139749   2.839   4.879  13.991  0.0030 -0.6632  1.1021
 6086TIP3    H239750   2.711   4.803  14.015 -1.5523  1.0888 -1.2115
 6087TIP3   OH239751   2.177   6.034   5.534 -0.3366 -0.0763  0.2334
 6087TIP3    H139752   2.172   6.123   5.567 -1.7007 -0.7180  1.9537
 6087TIP3    H239753   2.271   6.017   5.524  0.0541  0.9256  1.7738
 6088TIP3   OH239754   1.596   5.357   3.087 -0.7969 -0.3579  0.3819
 6088TIP3    H139755   1.559   5.353   3.175 -1.5625 -1.0890  0.0406
 6088TIP3    H239756   1.526   5.393   3.033  0.0751  1.2525  0.2603
 6089TIP3   OH239757   4.182   3.190  15.958  0.3189 -0.0358 -0.0871
 6089TIP3    H139758   4.127   3.267  15.943 -0.1233 -0.7053 -2.2551
 6089TIP3    H239759   4.239   3.215  16.030 -3.0879  0.5501  2.6792
 6090TIP3   OH239760   2.209   4.412   4.241  0.2477 -0.8871 -0.4114
 6090TIP3    H139761   2.264   4.406   4.163  0.8600 -1.3509  0.0357
 6090TIP3    H239762   2.127   4.369   4.217  0.3656 -0.8642 -0.8521
 6091TIP3   OH239763   3.082   1.692   5.309  0.0385 -0.3648 -0.3119
 6091TIP3    H139764   2.986   1.691   5.309  0.0160 -2.1440 -0.9000
 6091TIP3    H239765   3.105   1.694   5.216  0.5501 -0.7554 -0.1980
 6092TIP3   OH239766   6.036   0.741  11.598  0.0581 -0.0419 -0.3543
 6092TIP3    H139767   5.960   0.707  11.645  0.1299 -1.7051 -1.3424
 6092TIP3    H239768   6.008   0.826  11.565 -0.9035 -0.0450  0.4039
 6093TIP3   OH239769   1.567   3.979   5.194  0.6539 -0.4902 -0.3741
 6093TIP3    H139770   1.652   3.949   5.160  0.5952 -2.0256  0.7110
 6093TIP3    H239771   1.581   4.071   5.216  2.1048 -0.7703 -0.0184
 6094TIP3   OH239772   3.924   4.996  15.538 -0.2275  0.4386 -0.0969
 6094TIP3    H139773   3.902   5.089  15.526 -0.4451  0.2969 -0.8091
 6094TIP3    H239774   3.852   4.949  15.498 -1.5167 -0.0946  2.6376
 6095TIP3   OH239775   4.145   4.041  13.299 -0.6943  0.4199  0.1878
 6095TIP3    H139776   4.212   4.014  13.361  0.5744 -0.2266 -1.4031
 6095TIP3    H239777   4.100   3.961  13.274 -1.7693  0.7846  0.8652
 6096TIP3   OH239778   1.568   1.552  11.064  0.8012 -0.5189  0.1473
 6096TIP3    H139779   1.536   1.499  11.136  0.5143  0.1949  0.5504
 6096TIP3    H239780   1.529   1.513  10.986 -0.9203  0.1997  0.5996
 6097TIP3   OH239781   5.481   4.703   0.106 -0.7264 -0.4109 -1.5463
 6097TIP3    H139782   5.500   4.757   0.029  0.0214  2.5560  0.5857
 6097TIP3    H239783   5.566   4.670   0.134 -0.5973  0.8414 -0.4093
 6098TIP3   OH239784   0.084   1.948   3.135  0.4021  0.5479 -0.1961
 6098TIP3    H139785   0.084   1.954   3.230  3.2115 -0.5693 -0.0460
 6098TIP3    H239786   0.041   1.864   3.116 -1.7073  1.5300 -0.0937
 6099TIP3   OH239787   6.607   5.895  16.583 -0.6780  0.4877 -0.3560
 6099TIP3    H139788   6.628   5.924  16.495  1.9077 -1.0606 -0.3621
 6099TIP3    H239789   6.550   5.964  16.619  1.5520  3.2754 -1.7933
 6100TIP3   OH239790   6.513   1.882  14.956 -0.3306 -0.2797  0.0614
 6100TIP3    H139791   6.515   1.867  15.050  0.0449 -0.9006 -0.0369
 6100TIP3    H239792   6.462   1.962  14.945  0.7874  0.5776  0.8750
 6101TIP3   OH239793   5.649   3.431  11.098  0.4099  1.1417  0.0276
 6101TIP3    H139794   5.680   3.442  11.008  0.5969  2.8365  0.2602
 6101TIP3    H239795   5.554   3.436  11.092  0.3066 -0.6766 -0.2809
 6102TIP3   OH239796   4.435   6.224  13.530  0.4251 -0.3552  0.0665
 6102TIP3    H139797   4.387   6.142  13.543  1.2309 -0.4605  2.9427
 6102TIP3    H239798   4.388   6.289  13.582  1.7066  0.1843  0.6128
 6103TIP3   OH239799   6.812   0.599   6.167  0.9799 -0.2109  0.3352
 6103TIP3    H139800   6.729   0.645   6.180 -1.1121 -3.6176  0.1698
 6103TIP3    H239801   6.856   0.605   6.252 -1.3760 -1.7019  1.7623
 6104TIP3   OH239802   3.246   6.089   5.175 -0.3332  0.1992 -0.2203
 6104TIP3    H139803   3.262   6.179   5.203 -2.3764  1.0644 -1.5643
 6104TIP3    H239804   3.306   6.076   5.101 -0.8445  0.8789 -0.7622
 6105TIP3   OH239805   3.831   2.083  11.923  0.4089  0.0730  0.1942
 6105TIP3    H139806   3.908   2.119  11.968  0.9217 -0.2273 -0.4294
 6105TIP3    H239807   3.832   1.990  11.945  0.9844 -0.1906 -0.8585
 6106TIP3   OH239808   6.661   1.903   1.337  0.2919 -0.2962  0.1543
 6106TIP3    H139809   6.701   1.954   1.267 -1.5968 -0.0715 -0.8428
 6106TIP3    H239810   6.593   1.961   1.373 -2.5108 -2.2174 -1.5699
 6107TIP3   OH239811   5.175   3.846   3.003  0.4064  0.3671  0.9918
 6107TIP3    H139812   5.090   3.802   3.003  0.4370  0.3026  0.5746
 6107TIP3    H239813   5.203   3.843   2.912 -0.0045  2.0577  0.7806
 6108TIP3   OH239814   3.259   1.117   1.111  0.2752  0.3975 -0.8347
 6108TIP3    H139815   3.325   1.180   1.141  1.5657 -1.4419  0.3460
 6108TIP3    H239816   3.275   1.038   1.162 -1.7162 -0.7212 -1.8081
 6109TIP3   OH239817   3.369   4.212   0.966 -0.2921  0.4853 -0.5924
 6109TIP3    H139818   3.380   4.274   0.894  1.4191  0.8392 -0.0726
 6109TIP3    H239819   3.381   4.126   0.926  0.8746  0.6898 -0.7256
 6110TIP3   OH239820   0.624   4.079   5.924  0.6342 -0.3456 -0.0859
 6110TIP3    H139821   0.571   4.093   6.002  0.8451 -2.7237  0.5653
 6110TIP3    H239822   0.561   4.077   5.852  0.1733 -0.3850  0.3108
 6111TIP3   OH239823   4.409   5.802   6.046 -0.2572  0.0281  0.1864
 6111TIP3    H139824   4.391   5.894   6.062  1.0326  0.3149  0.0519
 6111TIP3    H239825   4.499   5.800   6.013  0.2627 -1.4006  1.5913
 6112TIP3   OH239826   0.390   1.667   2.838 -0.4836  0.2534 -0.4016
 6112TIP3    H139827   0.325   1.716   2.787 -1.0527 -0.9862 -0.9023
 6112TIP3    H239828   0.474   1.692   2.800 -0.8652 -0.2291 -1.6044
 6113TIP3   OH239829   3.639   5.553   0.616  0.1716 -0.0228  0.1755
 6113TIP3    H139830   3.717   5.559   0.560  0.8494 -1.0254  0.9710
 6113TIP3    H239831   3.647   5.468   0.659  0.9980  1.6433  3.6893
 6114TIP3   OH239832   4.352   2.908   2.435  0.2534  0.6391  0.1918
 6114TIP3    H139833   4.375   2.998   2.412 -0.7952  0.3489 -2.4306
 6114TIP3    H239834   4.386   2.856   2.361  0.6007 -1.1047  1.5196
 6115TIP3   OH239835   2.731   3.265   0.323 -1.0361  0.2201  0.3097
 6115TIP3    H139836   2.784   3.186   0.314  0.7028  1.2689  0.7810
 6115TIP3    H239837   2.740   3.309   0.238  1.3321  1.7985  1.2603
 6116TIP3   OH239838   5.889   4.979  16.865 -0.3481 -0.3263 -0.4983
 6116TIP3    H139839   5.873   4.885  16.872  1.2537 -0.4940  2.3516
 6116TIP3    H239840   5.883   5.011  16.955 -1.3480  2.4327 -1.4460
 6117TIP3   OH239841   6.710   4.441   6.415  0.4982  0.5758 -0.0066
 6117TIP3    H139842   6.750   4.430   6.501 -0.0164 -0.3284  0.1269
 6117TIP3    H239843   6.628   4.391   6.420 -0.7819  2.5327 -0.1828
 6118TIP3   OH239844   3.287   3.064   1.750  0.3547  0.0335 -0.4741
 6118TIP3    H139845   3.279   2.978   1.708  0.7374  0.2986 -1.0970
 6118TIP3    H239846   3.257   3.126   1.684 -0.7783  0.3215  0.2905
 6119TIP3   OH239847   4.406   0.136  16.730 -0.6856 -0.5349 -0.0344
 6119TIP3    H139848   4.471   0.202  16.753  0.5651 -1.7393 -0.0019
 6119TIP3    H239849   4.454   0.053  16.732 -1.5682 -1.2060 -2.5541
 6120TIP3   OH239850   2.008   6.304   0.651 -0.5372 -0.1078 -0.0107
 6120TIP3    H139851   2.029   6.228   0.706  1.1655  2.4717  3.2155
 6120TIP3    H239852   1.921   6.331   0.680 -1.1990 -0.7792 -1.2521
 6121TIP3   OH239853   2.541   4.109  14.534 -0.1381 -0.4141  0.1556
 6121TIP3    H139854   2.461   4.123  14.483 -0.2405 -1.4661  0.0079
 6121TIP3    H239855   2.594   4.051  14.480  0.2048 -0.6972  0.7870
 6122TIP3   OH239856   1.724   2.658   2.822 -0.2054 -0.4153 -0.1992
 6122TIP3    H139857   1.812   2.624   2.839 -0.2688  0.4369  2.1815
 6122TIP3    H239858   1.738   2.750   2.802 -0.3650 -0.8857 -2.7962
 6123TIP3   OH239859   5.276   0.521   1.649  0.9408 -0.2026 -0.1001
 6123TIP3    H139860   5.285   0.428   1.627  1.8969 -0.4230  1.0914
 6123TIP3    H239861   5.338   0.566   1.592  1.8473 -0.5228  0.6096
 6124TIP3   OH239862   6.049   1.529  15.821  0.4305  0.0174  0.1191
 6124TIP3    H139863   6.048   1.450  15.876  1.1394 -0.0829 -0.0085
 6124TIP3    H239864   6.056   1.495  15.731  1.7315  0.2486  0.1238
 6125TIP3   OH239865   4.850   6.799   0.056 -0.2406 -0.5753  0.0144
 6125TIP3    H139866   4.783   6.865   0.074  1.0135  0.7049  0.2183
 6125TIP3    H239867   4.804   6.716   0.058 -1.8366  0.2766  0.0100
 6126TIP3   OH239868   1.504   1.405  11.293  0.6330 -0.2595  0.1231
 6126TIP3    H139869   1.420   1.387  11.335 -0.7290 -0.6702 -2.5163
 6126TIP3    H239870   1.563   1.427  11.365 -1.8497  0.5999  2.0650
 6127TIP3   OH239871   0.518   0.705   3.978  0.0963  0.0553 -0.0049
 6127TIP3    H139872   0.549   0.696   3.888  2.4545  1.5539  0.5885
 6127TIP3    H239873   0.439   0.759   3.970  0.8181  0.9891 -1.0991
 6128TIP3   OH239874   0.772   6.756   4.489  0.1895  0.0865 -0.2567
 6128TIP3    H139875   0.724   6.689   4.538  0.2091 -0.0469 -0.4203
 6128TIP3    H239876   0.790   6.716   4.404  2.6288 -0.7921  0.5693
 6129TIP3   OH239877   5.770   0.991   3.411 -0.2353 -0.3647 -0.0861
 6129TIP3    H139878   5.827   1.068   3.415  0.4626 -0.8457 -0.6578
 6129TIP3    H239879   5.827   0.920   3.385 -0.7513 -1.2208  1.0329
 6130TIP3   OH239880   6.169   6.754   3.644 -0.5278 -0.0791  0.2105
 6130TIP3    H139881   6.082   6.727   3.615  0.2003 -0.8211 -1.4095
 6130TIP3    H239882   6.179   6.715   3.731 -1.7783 -0.0168  0.3987
 6131TIP3   OH239883   6.203   3.926  14.276 -0.7194  0.4962 -0.2731
 6131TIP3    H139884   6.288   3.940  14.317 -1.0472  1.1647  0.1941
 6131TIP3    H239885   6.144   3.907  14.348 -1.1917  1.1555 -0.4721
 6132TIP3   OH239886   6.782   2.664  12.131  0.1918 -0.4905 -0.2081
 6132TIP3    H139887   6.765   2.611  12.053  3.4595 -0.8993 -0.7807
 6132TIP3    H239888   6.876   2.657  12.145  0.0675  1.4877  2.4362
 6133TIP3   OH239889   4.214   3.479   6.088 -0.5552  0.2125 -0.1320
 6133TIP3    H139890   4.142   3.459   6.028 -0.1177  0.5551 -0.7932
 6133TIP3    H239891   4.213   3.408   6.152 -0.9435 -0.2475 -0.6372
 6134TIP3   OH239892   1.249   0.563   6.159  0.4104 -0.6190  0.5368
 6134TIP3    H139893   1.329   0.515   6.134 -0.0825 -0.0902 -2.4680
 6134TIP3    H239894   1.252   0.642   6.106 -1.5145  0.0230  1.3212
 6135TIP3   OH239895   4.440   4.203   2.574 -0.4972 -0.5538 -0.0588
 6135TIP3    H139896   4.477   4.126   2.532 -0.4675 -1.3590  1.3914
 6135TIP3    H239897   4.480   4.277   2.528  1.7763 -1.3917  0.4580
 6136TIP3   OH239898   5.801   2.686   3.842 -0.3871  0.1373  0.1462
 6136TIP3    H139899   5.707   2.702   3.832 -0.3758  0.5815  0.7173
 6136TIP3    H239900   5.835   2.765   3.884  0.0959 -0.3865  0.7576
 6137TIP3   OH239901   4.730   5.110   5.257  0.0721 -0.5582  0.4630
 6137TIP3    H139902   4.760   5.159   5.181 -0.4396 -0.6395  0.2110
 6137TIP3    H239903   4.780   5.029   5.255 -0.3728 -0.8219 -0.1250
 6138TIP3   OH239904   1.113   4.186   5.812  0.2925  0.2128  0.6886
 6138TIP3    H139905   1.022   4.156   5.809 -0.2307  1.8314 -0.7151
 6138TIP3    H239906   1.127   4.213   5.902  0.6775 -3.6672  1.9826
 6139TIP3   OH239907   4.736   5.568   1.638  0.4071  0.2572 -0.4682
 6139TIP3    H139908   4.806   5.620   1.599  0.5218  1.1263  0.8328
 6139TIP3    H239909   4.780   5.489   1.671  0.6297  0.3979 -0.4266
 6140TIP3   OH239910   6.554   0.149  10.875 -0.1770 -0.4520  0.0176
 6140TIP3    H139911   6.489   0.103  10.928 -1.7744  0.9382 -0.6687
 6140TIP3    H239912   6.518   0.236  10.862  1.5945  0.2015 -0.8340
 6141TIP3   OH239913   2.938   2.899   5.133 -0.4852  0.5130  0.3507
 6141TIP3    H139914   3.016   2.952   5.119 -1.3350  1.7017 -0.0830
 6141TIP3    H239915   2.907   2.926   5.220 -0.6694  0.4037  0.3179
 6142TIP3   OH239916   6.219   4.173  15.207 -0.5044 -0.5811  0.8338
 6142TIP3    H139917   6.268   4.195  15.286  0.4981  0.4821 -0.0502
 6142TIP3    H239918   6.207   4.257  15.162  0.6121 -1.3860 -1.0680
 6143TIP3   OH239919   1.597   6.136   4.169 -0.1846 -0.2983  0.6574
 6143TIP3    H139920   1.618   6.228   4.189  0.2129 -0.0034 -0.9443
 6143TIP3    H239921   1.564   6.101   4.251 -0.7459  1.3992  1.2074
 6144TIP3   OH239922   1.967   4.761  11.902 -0.4605 -0.0838 -0.1722
 6144TIP3    H139923   2.012   4.774  11.818  0.1477 -0.5186  0.0800
 6144TIP3    H239924   1.899   4.696  11.882  0.9985 -1.7566  0.0996
 6145TIP3   OH239925   4.096   0.589   0.140 -0.5013 -0.3048  0.8213
 6145TIP3    H139926   4.028   0.562   0.078 -0.2994 -0.6179  0.7310
 6145TIP3    H239927   4.058   0.663   0.187  0.8744  3.0386 -2.7450
 6146TIP3   OH239928   3.863   5.808   1.470 -0.2619  0.2645 -0.3878
 6146TIP3    H139929   3.839   5.796   1.378  0.7027  0.9543 -0.7426
 6146TIP3    H239930   3.940   5.754   1.482  0.2141  0.9602 -0.2563
 6147TIP3   OH239931   6.832   0.701  11.883 -0.0763 -0.4600  0.1155
 6147TIP3    H139932   6.788   0.702  11.968 -1.0394 -2.1025 -0.3185
 6147TIP3    H239933   6.925   0.695  11.904 -0.3254 -1.1541  1.0695
 6148TIP3   OH239934   3.913   4.849   4.530 -0.1929  0.1984 -0.5943
 6148TIP3    H139935   3.968   4.772   4.528 -0.8314 -0.2588 -2.7344
 6148TIP3    H239936   3.923   4.884   4.619  0.1845 -2.2605  0.3958
 6149TIP3   OH239937   3.755   6.353   3.187  0.1555  0.5198 -0.1457
 6149TIP3    H139938   3.730   6.260   3.190  0.3266  0.4771 -0.0503
 6149TIP3    H239939   3.812   6.360   3.110  0.2152  0.5288 -0.1003
 6150TIP3   OH239940   6.153   3.795  13.005  0.3913 -0.0448 -0.3102
 6150TIP3    H139941   6.195   3.838  12.931  0.2552 -0.3423 -0.5569
 6150TIP3    H239942   6.086   3.739  12.967 -0.6853  0.9205  0.1103
 6151TIP3   OH239943   0.882   1.002  12.363 -0.4458 -0.5186 -0.6224
 6151TIP3    H139944   0.910   1.039  12.447 -1.9749 -2.7928  1.0007
 6151TIP3    H239945   0.927   0.918  12.358  0.3756 -0.0208 -2.6131
 6152TIP3   OH239946   4.666   2.355   3.000 -0.1592  0.3803  0.7996
 6152TIP3    H139947   4.755   2.321   3.012  0.2552  0.8547 -0.7137
 6152TIP3    H239948   4.666   2.439   3.047 -0.3592 -0.3887  2.2400
 6153TIP3   OH239949   4.825   2.412  13.332 -0.3092  0.1656 -0.6701
 6153TIP3    H139950   4.771   2.359  13.390 -0.0942  1.0355  0.3527
 6153TIP3    H239951   4.914   2.401  13.365 -0.0149 -0.2739 -1.5791
 6154TIP3   OH239952   4.454   0.694  13.672 -0.3079  0.1613  0.2585
 6154TIP3    H139953   4.382   0.716  13.730 -0.3124 -0.6108  0.5620
 6154TIP3    H239954   4.491   0.613  13.709  0.3599  0.2447 -0.2036
 6155TIP3   OH239955   4.674   3.209   3.055  0.7043 -0.2472 -0.1757
 6155TIP3    H139956   4.603   3.168   3.103  0.7202  0.5602  0.5606
 6155TIP3    H239957   4.686   3.153   2.978 -2.0347  0.6451 -1.3875
 6156TIP3   OH239958   2.637   6.134  17.165 -0.4438 -0.2220 -0.0191
 6156TIP3    H139959   2.588   6.216  17.163 -1.2560 -0.7011  0.2689
 6156TIP3    H239960   2.636   6.107  17.257  1.2339  0.2722  0.1822
 6157TIP3   OH239961   4.124   5.193   3.734  0.8981 -0.4332  0.0331
 6157TIP3    H139962   4.029   5.178   3.732  0.6530  1.0042  0.0981
 6157TIP3    H239963   4.150   5.190   3.642  1.0840 -2.3401  0.0936
 6158TIP3   OH239964   2.152   1.008  15.993 -0.4278  0.0207 -0.7285
 6158TIP3    H139965   2.090   0.991  15.923 -1.7714 -1.2937  0.6935
 6158TIP3    H239966   2.230   0.957  15.969 -0.9713 -0.6256 -1.1392
 6159TIP3   OH239967   1.608   6.763   4.168  0.5201  0.0288 -0.3200
 6159TIP3    H139968   1.617   6.775   4.073  1.2289 -0.4659 -0.3277
 6159TIP3    H239969   1.698   6.756   4.199  0.2973  0.3812  0.4244
 6160TIP3   OH239970   1.339   0.862  11.916  0.8005 -0.1098 -0.0445
 6160TIP3    H139971   1.411   0.807  11.885  0.2260  0.2480 -2.2167
 6160TIP3    H239972   1.362   0.950  11.888 -1.2320 -0.2282 -2.4905
 6161TIP3   OH239973   4.001   5.786  15.231 -0.0215 -0.1639 -0.0428
 6161TIP3    H139974   4.080   5.834  15.204  0.2193 -0.3871  0.2676
 6161TIP3    H239975   4.005   5.704  15.182 -1.3216  0.8094 -1.9276
 6162TIP3   OH239976   3.385   2.077  13.477  0.2396  0.1128 -0.5289
 6162TIP3    H139977   3.360   2.037  13.394  1.6096 -1.4840 -0.2189
 6162TIP3    H239978   3.332   2.157  13.482 -3.5584 -2.1834 -0.6038
 6163TIP3   OH239979   3.261   6.607   4.530 -0.6462 -0.0008  0.1791
 6163TIP3    H139980   3.321   6.566   4.469  0.5382 -0.2986  1.4834
 6163TIP3    H239981   3.260   6.700   4.506 -2.2018 -0.4773 -1.8582
 6164TIP3   OH239982   1.675   5.486   1.880  0.1983 -0.4149 -0.1241
 6164TIP3    H139983   1.715   5.572   1.865  0.0682 -0.1012  1.2256
 6164TIP3    H239984   1.629   5.467   1.798  0.7566  0.5043 -0.6762
 6165TIP3   OH239985   4.710   2.754  15.011 -0.2384 -0.0085  0.2683
 6165TIP3    H139986   4.776   2.722  15.072  1.9168  0.4312 -1.7295
 6165TIP3    H239987   4.709   2.849  15.025 -0.3119  0.0090  0.1457
 6166TIP3   OH239988   5.002   0.884   4.552  0.3909  0.7497 -0.1868
 6166TIP3    H139989   5.065   0.933   4.499 -0.1591 -0.6587 -2.2443
 6166TIP3    H239990   4.930   0.866   4.493  0.6288 -2.6571  0.3908
 6167TIP3   OH239991   1.914   0.129   1.644  0.0453 -0.0481  0.2482
 6167TIP3    H139992   2.005   0.125   1.613 -0.2868  1.9774 -1.2177
 6167TIP3    H239993   1.905   0.055   1.703  2.0678 -1.4764 -1.1226
 6168TIP3   OH239994   3.411   2.103  16.389  0.6121 -0.6277 -0.6777
 6168TIP3    H139995   3.401   2.153  16.470  0.4043 -0.2115 -0.9558
 6168TIP3    H239996   3.496   2.060  16.398  0.7407 -0.3177 -0.3842
 6169TIP3   OH239997   6.013   6.589   5.610 -0.1206 -0.5858  0.4196
 6169TIP3    H139998   5.970   6.504   5.604 -1.7450  0.2350 -0.2133
 6169TIP3    H239999   6.041   6.609   5.521 -1.3159  0.2908  0.2187
 6170TIP3   OH240000   1.683   4.759  16.358 -0.1812 -0.5982 -0.0388
 6170TIP3    H140001   1.620   4.831  16.360  0.2446 -0.1911 -0.7947
 6170TIP3    H240002   1.733   4.768  16.439 -1.3008 -1.1252  0.7359
 6171TIP3   OH240003   3.464   0.780   2.105 -0.9417  0.1953 -0.3463
 6171TIP3    H140004   3.524   0.831   2.050  0.9950  0.9816  2.2941
 6171TIP3    H240005   3.462   0.693   2.064  2.1386  0.1093 -0.5418
 6172TIP3   OH240006   4.698   4.570   1.712 -0.4658  0.2105  0.0420
 6172TIP3    H140007   4.715   4.648   1.659  0.1240 -0.5503 -0.9104
 6172TIP3    H240008   4.603   4.558   1.705 -0.5813  0.9009  0.2902
 6173TIP3   OH240009   1.027   6.805  15.482 -0.4126 -0.0086 -0.2466
 6173TIP3    H140010   0.968   6.784  15.410  0.0551  0.5113 -0.7981
 6173TIP3    H240011   1.012   6.898  15.500 -0.2778 -0.0496  0.0966
 6174TIP3   OH240012   2.387   3.641   3.166  0.3779 -0.1899  0.0237
 6174TIP3    H140013   2.398   3.561   3.218  0.8930  0.8633  1.6265
 6174TIP3    H240014   2.300   3.635   3.129  0.4095 -1.4873  0.1359
 6175TIP3   OH240015   3.566   5.323   3.790 -0.7367  0.0333 -0.4525
 6175TIP3    H140016   3.617   5.360   3.862  0.2681  1.4973 -1.8443
 6175TIP3    H240017   3.622   5.331   3.714 -1.7139 -1.6071 -1.4227
 6176TIP3   OH240018   5.482   0.535   0.516  0.4964  0.7113  0.4554
 6176TIP3    H140019   5.537   0.466   0.554 -2.1116 -0.2387  2.8790
 6176TIP3    H240020   5.414   0.487   0.468 -1.2103  1.4514  1.9604
 6177TIP3   OH240021   4.469   2.284   6.534  0.0463  0.7585 -0.1466
 6177TIP3    H140022   4.484   2.190   6.542  2.4197  0.8470 -2.3893
 6177TIP3    H240023   4.404   2.293   6.464  0.3320  0.7887 -0.4112
 6178TIP3   OH240024   0.132   6.208  11.686  0.5739  0.0972 -0.2652
 6178TIP3    H140025   0.044   6.169  11.692  0.6815 -0.1651 -0.3917
 6178TIP3    H240026   0.167   6.200  11.774  1.1489 -1.4016 -0.6013
 6179TIP3   OH240027   1.398   5.003   4.361  0.1707  0.1719  0.4569
 6179TIP3    H140028   1.390   5.080   4.305  0.7103  1.5736  2.1836
 6179TIP3    H240029   1.308   4.983   4.387 -0.2043 -1.1675 -1.6786
 6180TIP3   OH240030   1.027   5.233  11.641  0.0698 -0.1707  0.0902
 6180TIP3    H140031   1.018   5.209  11.734  0.0473  0.3361  0.2217
 6180TIP3    H240032   1.051   5.326  11.643 -2.0052  0.4087 -0.4625
 6181TIP3   OH240033   3.234   2.184   3.804  0.3492 -0.0333 -0.3454
 6181TIP3    H140034   3.180   2.106   3.819  2.7040 -1.3572  1.9815
 6181TIP3    H240035   3.230   2.197   3.709 -1.2388 -2.1305 -0.6479
 6182TIP3   OH240036   2.107   5.110   4.007 -0.2605 -0.7437 -0.1615
 6182TIP3    H140037   2.064   5.187   3.970 -2.0990 -1.1494  1.0071
 6182TIP3    H240038   2.200   5.131   4.002 -0.6604  1.1482 -0.7529
 6183TIP3   OH240039   5.227   4.377  11.285 -0.4769  0.3801 -0.1034
 6183TIP3    H140040   5.312   4.411  11.259 -0.1705  1.9695  2.6533
 6183TIP3    H240041   5.168   4.452  11.282 -1.2552 -0.1967  0.1731
 6184TIP3   OH240042   3.613   5.908  16.422 -0.1177  0.1240  0.0314
 6184TIP3    H140043   3.707   5.893  16.420 -0.1604 -0.3871  1.0786
 6184TIP3    H240044   3.604   6.001  16.445  0.1250  0.2249 -0.2733
 6185TIP3   OH240045   6.604   1.511   5.036  0.0850 -0.0176  0.3570
 6185TIP3    H140046   6.612   1.606   5.031  0.0985 -0.0934 -3.0523
 6185TIP3    H240047   6.511   1.494   5.027  0.3613 -0.3404 -2.8512
 6186TIP3   OH240048   4.475   0.585  14.326 -0.2326  0.0352  0.1796
 6186TIP3    H140049   4.517   0.614  14.246 -0.0785 -0.9054 -0.0908
 6186TIP3    H240050   4.496   0.653  14.390 -0.8973  1.1196 -0.7222
 6187TIP3   OH240051   2.734   0.866   3.428  0.4253 -0.1996  0.2582
 6187TIP3    H140052   2.691   0.947   3.457  1.3657  0.6764 -0.7279
 6187TIP3    H240053   2.809   0.896   3.376 -0.0141 -1.7124 -1.3182
 6188TIP3   OH240054   1.464   2.480  13.419  0.2371 -0.0942  0.6583
 6188TIP3    H140055   1.371   2.488  13.441  0.1841 -0.7597  0.6813
 6188TIP3    H240056   1.506   2.451  13.500  0.5645  0.7826  0.8154
 6189TIP3   OH240057   6.603   2.114   5.758  0.0290 -0.2837 -0.4808
 6189TIP3    H140058   6.623   2.020   5.758 -0.2646 -0.4767  2.9340
 6189TIP3    H240059   6.534   2.124   5.824  0.2063  2.3576 -0.5876
 6190TIP3   OH240060   1.798   0.438  14.675  0.0115 -0.1007 -0.4410
 6190TIP3    H140061   1.860   0.457  14.605 -0.3348  0.4045 -0.6130
 6190TIP3    H240062   1.749   0.519  14.687 -0.5078 -0.4445 -0.1917
 6191TIP3   OH240063   4.701   5.007  15.608  0.0985 -0.3481 -0.0873
 6191TIP3    H140064   4.791   5.020  15.638  0.2263 -0.8278 -0.2533
 6191TIP3    H240065   4.652   4.982  15.687  0.0730  0.0812  0.0339
 6192TIP3   OH240066   6.493   1.195  10.149  0.1533 -0.3213  0.6959
 6192TIP3    H140067   6.510   1.116  10.096 -2.0612  0.0707 -0.7494
 6192TIP3    H240068   6.578   1.238  10.155  1.1585 -2.1367  0.3788
 6193TIP3   OH240069   1.902   5.893   3.828 -0.2269 -0.9516  0.3633
 6193TIP3    H140070   1.820   5.938   3.807  0.9516  0.2534 -2.0109
 6193TIP3    H240071   1.874   5.816   3.878 -2.5469  0.8186  2.0274
 6194TIP3   OH240072   2.494   2.419  16.161  0.2004  0.6441  0.3105
 6194TIP3    H140073   2.451   2.504  16.160 -0.2955  0.4283  1.2926
 6194TIP3    H240074   2.479   2.386  16.250 -2.0635 -1.7008 -0.8041
 6195TIP3   OH240075   2.673   5.186  17.001  0.4925  0.5040 -0.0648
 6195TIP3    H140076   2.734   5.178  17.074  1.2401  0.2715 -0.7026
 6195TIP3    H240077   2.595   5.225  17.040  0.2085 -1.2386  1.2078
 6196TIP3   OH240078   5.088   2.991   2.482  0.8311  0.0369  0.4948
 6196TIP3    H140079   5.130   2.924   2.429  0.6530  0.5770 -0.3586
 6196TIP3    H240080   5.149   3.008   2.554  0.5737 -1.5087  1.1143
 6197TIP3   OH240081   4.398   0.099   1.167  0.4166 -0.2623  0.1939
 6197TIP3    H140082   4.447   0.079   1.087 -0.3622 -0.6378 -0.1985
 6197TIP3    H240083   4.364   0.188   1.152 -0.0228 -0.4689 -0.0448
 6198TIP3   OH240084   2.291   1.299  10.912 -0.1175  0.0364 -0.1662
 6198TIP3    H140085   2.277   1.216  10.866 -0.3179  0.0001 -0.0422
 6198TIP3    H240086   2.263   1.366  10.850  3.4645  0.3001 -1.7701
 6199TIP3   OH240087   0.272   3.310   0.475  0.1689  0.1002  0.0672
 6199TIP3    H140088   0.321   3.327   0.395 -1.9413  0.1573 -1.2892
 6199TIP3    H240089   0.325   3.246   0.523  1.6416  0.3357 -1.1889
 6200TIP3   OH240090   5.129   4.206  15.459  0.1204  0.0833 -0.2992
 6200TIP3    H140091   5.204   4.167  15.504  0.5020  0.9059 -0.2019
 6200TIP3    H240092   5.142   4.301  15.469 -1.6221  0.2525  0.8957
 6201TIP3   OH240093   0.801   3.103  16.013 -0.3163 -0.3881  0.3092
 6201TIP3    H140094   0.836   3.014  16.016  2.1319  0.4054 -1.3398
 6201TIP3    H240095   0.870   3.157  16.050 -1.8048  0.8674  1.3822
 6202TIP3   OH240096   3.633   3.948  11.253 -0.0207 -0.0065  0.8546
 6202TIP3    H140097   3.552   3.902  11.274 -0.0031 -1.6728 -2.2230
 6202TIP3    H240098   3.702   3.887  11.279  0.0855 -0.5535 -0.6606
 6203TIP3   OH240099   1.581   1.853   3.297  0.1587 -0.1932  0.3496
 6203TIP3    H140100   1.492   1.883   3.313  0.3362  0.8279 -0.5045
 6203TIP3    H240101   1.605   1.806   3.377 -1.0980 -0.3901  0.6261
 6204TIP3   OH240102   5.991   5.897  13.900 -0.4592  0.4163 -0.2662
 6204TIP3    H140103   6.080   5.861  13.905 -0.9663 -0.9581 -0.4929
 6204TIP3    H240104   5.998   5.984  13.939  1.2725  0.9492 -1.6214
 6205TIP3   OH240105   1.125   3.896  15.735 -0.1402 -0.4839  0.6883
 6205TIP3    H140106   1.215   3.920  15.757  0.0514 -0.6250  0.0659
 6205TIP3    H240107   1.126   3.882  15.640 -0.8306 -0.4322  0.6674
 6206TIP3   OH240108   2.780   0.925   0.119 -0.0986 -0.1410 -0.0885
 6206TIP3    H140109   2.755   0.883   0.202  0.0069 -0.3634 -0.1698
 6206TIP3    H240110   2.876   0.934   0.125 -0.2815  1.8331  0.7663
 6207TIP3   OH240111   5.235   6.656  12.094 -0.0007  0.1619 -0.3635
 6207TIP3    H140112   5.273   6.704  12.020  1.3304  0.3557  0.4023
 6207TIP3    H240113   5.160   6.610  12.057  0.5487  0.3616 -1.8064
 6208TIP3   OH240114   0.719   5.551   3.345 -0.1790 -0.0368 -0.1255
 6208TIP3    H140115   0.672   5.468   3.337 -0.6518  0.0978  1.0579
 6208TIP3    H240116   0.802   5.528   3.385  0.3185 -0.1229 -1.1761
 6209TIP3   OH240117   1.447   5.431   0.448 -0.1177 -0.1352 -0.0758
 6209TIP3    H140118   1.408   5.354   0.489  1.6695 -1.5582 -0.9070
 6209TIP3    H240119   1.541   5.411   0.444  0.3732  2.0054 -0.5217
 6210TIP3   OH240120   1.240   0.846   1.337 -0.0875  0.1456 -0.5477
 6210TIP3    H140121   1.172   0.779   1.341 -1.8475  1.8931  0.1133
 6210TIP3    H240122   1.230   0.885   1.250 -1.4556  1.8668  0.3331
 6211TIP3   OH240123   1.494   5.375  12.100 -0.5434  0.4504  0.1214
 6211TIP3    H140124   1.502   5.395  12.194  3.4956  0.2411 -0.0057
 6211TIP3    H240125   1.510   5.281  12.094  0.7788  0.7141 -0.8640
 6212TIP3   OH240126   2.751   4.186  13.793 -0.2290 -0.1856 -0.1598
 6212TIP3    H140127   2.796   4.109  13.828  1.8090  1.3707  0.9168
 6212TIP3    H240128   2.673   4.195  13.848 -0.0817 -1.0456  0.2053
 6213TIP3   OH240129   3.318   1.363  16.504 -0.6423  0.3002  0.0851
 6213TIP3    H140130   3.325   1.346  16.598 -2.7379 -2.5667 -0.1392
 6213TIP3    H240131   3.382   1.304  16.464 -1.3994 -0.2519 -0.3442
 6214TIP3   OH240132   3.214   2.837   1.601 -0.1028  0.1495  0.1872
 6214TIP3    H140133   3.178   2.822   1.688  3.1768 -0.8724  1.5424
 6214TIP3    H240134   3.263   2.757   1.581  0.4369  0.9314 -1.9640
 6215TIP3   OH240135   5.234   3.824   4.715 -0.1546 -0.0668  0.4728
 6215TIP3    H140136   5.207   3.906   4.756  1.4585  1.0497 -0.5762
 6215TIP3    H240137   5.167   3.808   4.648  1.6253  2.8593 -2.3521
 6216TIP3   OH240138   2.192   1.519  14.527  0.5882  0.8671 -0.0916
 6216TIP3    H140139   2.238   1.464  14.463 -0.5605  1.5495 -1.5685
 6216TIP3    H240140   2.117   1.554  14.479 -0.2104  1.5864  1.5955
 6217TIP3   OH240141   0.616   4.929   0.309  0.0454  0.3208 -0.1044
 6217TIP3    H140142   0.617   4.835   0.292  1.1041  0.2884  0.0701
 6217TIP3    H240143   0.616   4.970   0.223 -2.7833  0.2007 -0.2468
 6218TIP3   OH240144   4.791   5.669  15.578 -0.0071 -0.4617  0.0164
 6218TIP3    H140145   4.859   5.714  15.628 -0.0843 -0.8548  0.4802
 6218TIP3    H240146   4.743   5.740  15.535 -2.1586  0.2711  3.2347
 6219TIP3   OH240147   2.520   2.623   3.366 -0.2277  0.0339  0.2763
 6219TIP3    H140148   2.507   2.602   3.458 -1.0911 -1.9536 -0.2452
 6219TIP3    H240149   2.453   2.689   3.347 -2.2342 -1.8415  0.3768
 6220TIP3   OH240150   5.442   1.305   2.645  0.5914 -0.5060  0.5165
 6220TIP3    H140151   5.382   1.232   2.632  1.3204 -0.9116 -0.6645
 6220TIP3    H240152   5.398   1.380   2.606  0.2422 -0.5002  0.9153
 6221TIP3   OH240153   4.949   1.740   1.784 -0.8071  0.0555 -0.3283
 6221TIP3    H140154   4.959   1.690   1.703 -0.6229 -0.7889  0.2049
 6221TIP3    H240155   4.960   1.676   1.854  1.4631  1.1440  0.4254
 6222TIP3   OH240156   5.293   3.612   2.022 -0.5216 -0.0113  0.6796
 6222TIP3    H140157   5.388   3.607   2.035 -0.6744 -1.3865  1.4691
 6222TIP3    H240158   5.279   3.697   1.981  1.0884  0.0725  0.2350
 6223TIP3   OH240159   2.288   1.034   4.579  0.5090  0.1112 -0.3534
 6223TIP3    H140160   2.346   0.991   4.516  0.2264  2.1202 -2.0992
 6223TIP3    H240161   2.339   1.109   4.611 -1.1923  2.2730 -2.3774
 6224TIP3   OH240162   2.529   4.163   0.080  0.0934  0.4247 -0.0201
 6224TIP3    H140163   2.528   4.240   0.022  0.4411  0.6153  0.2275
 6224TIP3    H240164   2.617   4.162   0.116 -0.8262  1.7918  2.4795
 6225TIP3   OH240165   0.381   5.987  14.090  0.2093 -0.1777 -0.1220
 6225TIP3    H140166   0.333   6.066  14.115 -1.4455 -0.8631 -0.9295
 6225TIP3    H240167   0.410   6.005  14.000 -1.8300 -1.1423 -1.0390
 6226TIP3   OH240168   4.386   0.063   1.489 -0.3009 -0.2693 -0.5549
 6226TIP3    H140169   4.334   0.118   1.547  1.7060 -0.1733  1.2716
 6226TIP3    H240170   4.440   0.126   1.440  0.4241 -0.4943 -0.0545
 6227TIP3   OH240171   0.937   5.963   2.310  0.1192 -0.4472  0.1894
 6227TIP3    H140172   1.026   5.962   2.343  0.3678  1.4712 -0.3225
 6227TIP3    H240173   0.885   6.004   2.379  0.1083  0.7727 -0.5145
 6228TIP3   OH240174   3.877   1.650  12.446  0.4087  0.0516  0.1712
 6228TIP3    H140175   3.944   1.655  12.378  1.1165 -1.7816  0.6775
 6228TIP3    H240176   3.795   1.665  12.399  1.0062  0.4916 -0.7809
 6229TIP3   OH240177   1.558   0.099  12.070  0.4893 -0.2549  0.1833
 6229TIP3    H140178   1.628   0.101  12.135  1.1885  2.5425 -0.5092
 6229TIP3    H240179   1.487   0.149  12.109  0.7897  1.1671 -1.0053
 6230TIP3   OH240180   5.715   1.222   5.914 -0.5849  0.3869 -0.2321
 6230TIP3    H140181   5.650   1.262   5.856  0.7483  0.9066 -1.4182
 6230TIP3    H240182   5.666   1.202   5.994 -2.0349  1.3974 -0.8189
 6231TIP3   OH240183   0.209   4.478   0.453 -0.1483  0.1137 -0.3592
 6231TIP3    H140184   0.113   4.470   0.453 -0.1874  0.5281 -0.0190
 6231TIP3    H240185   0.240   4.390   0.429 -0.5923 -0.4033  0.8684
 6232TIP3   OH240186   3.584   3.695   2.219 -0.2022  0.3029  0.3557
 6232TIP3    H140187   3.626   3.639   2.153  0.5879  2.2060 -0.8370
 6232TIP3    H240188   3.491   3.693   2.195  0.2467  2.1578 -1.8669
 6233TIP3   OH240189   4.723   3.959  15.764  0.1082  0.0128 -0.4774
 6233TIP3    H140190   4.704   4.025  15.698 -0.6960 -0.6640 -0.9599
 6233TIP3    H240191   4.809   3.982  15.799 -0.0739  1.1732 -0.7830
 6234TIP3   OH240192   2.265   2.819   5.335 -0.0147  0.4121 -0.8024
 6234TIP3    H140193   2.193   2.801   5.275 -0.6297  0.3609 -0.0767
 6234TIP3    H240194   2.334   2.759   5.309 -0.9818 -0.9887 -0.2539
 6235TIP3   OH240195   0.517   0.493  14.027  0.5774 -0.4161  0.3383
 6235TIP3    H140196   0.499   0.458  13.940  2.5060 -1.1392  0.1952
 6235TIP3    H240197   0.443   0.464  14.080 -1.3353  1.1470 -1.2864
 6236TIP3   OH240198   2.942   5.687   4.652 -0.3053  0.0084  0.5786
 6236TIP3    H140199   3.020   5.666   4.703 -1.6323 -0.1298  2.6928
 6236TIP3    H240200   2.921   5.606   4.605 -0.3004 -0.6019  1.6013
 6237TIP3   OH240201   1.487   2.340   4.194  0.2396 -0.5757 -0.1729
 6237TIP3    H140202   1.443   2.275   4.139 -1.3584  0.7987 -0.5908
 6237TIP3    H240203   1.429   2.415   4.194  2.7846  1.5736 -1.1624
 6238TIP3   OH240204   0.018   2.898   0.003 -0.5601 -0.8452 -0.3076
 6238TIP3    H140205  -0.027   2.815  -0.008  1.1880 -1.8918  0.0306
 6238TIP3    H240206   0.108   2.880  -0.024  0.1010  0.6556  0.7652
 6239TIP3   OH240207   2.077   5.286  12.117 -0.0812 -0.2286  0.3169
 6239TIP3    H140208   2.104   5.299  12.208 -0.0769  1.3127  0.1227
 6239TIP3    H240209   2.130   5.214  12.086  1.8733  0.9514  0.7560
 6240TIP3   OH240210   1.700   5.933  10.558 -0.1093  0.4159  0.3253
 6240TIP3    H140211   1.732   5.877  10.488 -2.8681  0.6318 -1.2653
 6240TIP3    H240212   1.749   6.014  10.549  0.6045 -0.0863 -0.3833
 6241TIP3   OH240213   1.314   0.584  16.596 -0.3467 -0.4738 -0.6456
 6241TIP3    H140214   1.220   0.596  16.609 -0.2404 -1.9807  2.3229
 6241TIP3    H240215   1.347   0.672  16.577 -2.0469  0.5127  0.6783
 6242TIP3   OH240216   4.182   2.517  16.797  0.2651 -0.1956  0.5978
 6242TIP3    H140217   4.089   2.536  16.782  0.3183 -1.3397 -1.7221
 6242TIP3    H240218   4.183   2.424  16.821  0.8569 -0.4596 -0.4047
 6243TIP3   OH240219   6.333   0.663   1.533 -0.2473  0.3956 -0.2482
 6243TIP3    H140220   6.241   0.689   1.543 -0.1646  0.2362  1.1406
 6243TIP3    H240221   6.380   0.746   1.521 -0.3685  0.6421  0.8952
 6244TIP3   OH240222   6.709   1.955   1.973  0.5888 -0.0294 -0.4535
 6244TIP3    H140223   6.740   1.955   1.882 -0.8128 -0.1810 -0.9686
 6244TIP3    H240224   6.676   2.044   1.986 -1.6398 -0.6865 -1.0341
 6245TIP3   OH240225   3.799   5.231  12.790  0.0617 -0.6814  0.0012
 6245TIP3    H140226   3.750   5.178  12.728  0.3331 -0.6310 -0.2597
 6245TIP3    H240227   3.743   5.308  12.806  0.6161  0.0329 -1.3154
 6246TIP3   OH240228   3.537   4.407  11.619 -0.0319  0.4271 -0.2350
 6246TIP3    H140229   3.549   4.352  11.697  0.9756 -0.7172 -1.1469
 6246TIP3    H240230   3.542   4.497  11.652 -3.0082  0.1218  1.5239
 6247TIP3   OH240231   6.104   6.120  11.286 -0.1934  0.2396 -0.1020
 6247TIP3    H140232   6.074   6.209  11.267  1.6274  0.9390  0.0198
 6247TIP3    H240233   6.064   6.066  11.218 -1.1219  1.1893 -0.3367
 6248TIP3   OH240234   4.520   6.338   5.815 -0.0729  0.2106  0.3868
 6248TIP3    H140235   4.592   6.395   5.788 -1.8365  2.2171 -0.3534
 6248TIP3    H240236   4.517   6.269   5.748  0.7891  0.4449  0.1048
 6249TIP3   OH240237   6.452   6.099   0.703  0.0723  0.0004  0.1396
 6249TIP3    H140238   6.521   6.165   0.714 -0.0524  0.1442  0.0730
 6249TIP3    H240239   6.494   6.027   0.656  0.8958 -1.0614  2.3667
 6250TIP3   OH240240   5.862   5.246   5.463 -0.2511  0.6498 -0.2630
 6250TIP3    H140241   5.918   5.268   5.538 -1.9963 -1.2054  1.7156
 6250TIP3    H240242   5.787   5.305   5.471 -1.1261 -0.5077  0.3569
 6251TIP3   OH240243   3.694   4.770  15.770 -0.0048 -0.1399 -0.0659
 6251TIP3    H140244   3.706   4.856  15.729 -1.9379  0.2133  0.0284
 6251TIP3    H240245   3.621   4.731  15.722  0.2671 -1.3551  0.4917
 6252TIP3   OH240246   0.443   5.805   2.230  0.3731  0.2410 -0.4387
 6252TIP3    H140247   0.498   5.801   2.152 -0.8177 -0.8256 -1.2435
 6252TIP3    H240248   0.480   5.739   2.289  0.7969  0.5060 -0.4035
 6253TIP3   OH240249   3.642   2.496  16.233  0.7861 -0.1710  0.3015
 6253TIP3    H140250   3.619   2.451  16.152 -1.4759  1.9509 -0.3616
 6253TIP3    H240251   3.737   2.507  16.229  0.7433 -0.2353 -1.9975
 6254TIP3   OH240252   0.097   1.357   1.646 -0.0861  0.0534 -0.0342
 6254TIP3    H140253   0.074   1.415   1.718  0.0613  1.1116 -0.8146
 6254TIP3    H240254   0.043   1.387   1.573 -0.3501 -1.1007 -0.3436
 6255TIP3   OH240255   6.415   0.575   1.817  0.2184 -0.0880 -0.9565
 6255TIP3    H140256   6.379   0.512   1.754 -0.2971  0.4974 -1.2532
 6255TIP3    H240257   6.338   0.613   1.859  0.5424 -2.3997  2.0106
 6256TIP3   OH240258   6.791   5.358   5.265  0.0528 -0.2187 -0.4772
 6256TIP3    H140259   6.841   5.276   5.272 -1.7205 -1.2886  0.3530
 6256TIP3    H240260   6.699   5.331   5.267 -0.5916  1.7634 -0.8003
 6257TIP3   OH240261   1.897   3.658  15.240  0.0472 -0.3902 -0.2224
 6257TIP3    H140262   1.807   3.689  15.229 -0.5666 -0.8507  2.6835
 6257TIP3    H240263   1.895   3.567  15.211  0.2614  0.2595 -2.5055
 6258TIP3   OH240264   2.341   6.528  14.384  0.1415 -0.4022  0.1608
 6258TIP3    H140265   2.376   6.530  14.295  0.6385  0.7081  0.3721
 6258TIP3    H240266   2.414   6.499  14.438  0.4752  0.9888  0.4769
 6259TIP3   OH240267   0.868   0.405  14.303 -0.3418  0.1339  0.2588
 6259TIP3    H140268   0.890   0.495  14.279 -0.7505 -0.4493 -2.6396
 6259TIP3    H240269   0.792   0.383  14.250  1.5112 -2.8454 -1.4549
 6260TIP3   OH240270   4.500   6.316   1.546  0.4085  0.5350 -0.2849
 6260TIP3    H140271   4.541   6.372   1.613 -3.2428  0.3164  2.4286
 6260TIP3    H240272   4.447   6.376   1.494 -0.0429  0.1781 -0.2432
 6261TIP3   OH240273   5.809   3.005   2.912 -0.7401 -0.0909 -0.1497
 6261TIP3    H140274   5.775   2.932   2.860  0.9568 -1.5510  0.6575
 6261TIP3    H240275   5.772   2.992   2.999  0.9908 -1.1356  0.4828
 6262TIP3   OH240276   0.454   5.152  13.273 -0.0331 -0.9488  0.3534
 6262TIP3    H140277   0.505   5.233  13.269 -1.1184 -0.2861 -1.0169
 6262TIP3    H240278   0.427   5.137  13.183 -1.5507 -1.7208  0.9036
 6263TIP3   OH240279   4.364   5.902   4.413  0.2732  0.4347  0.0201
 6263TIP3    H140280   4.379   5.970   4.480 -0.3920  0.1596  0.4636
 6263TIP3    H240281   4.352   5.951   4.332 -3.5022  1.1692  0.8367
 6264TIP3   OH240282   1.932   2.099   1.441  0.1284 -0.5447  0.0263
 6264TIP3    H140283   1.844   2.120   1.413  0.8672  1.4709 -0.9544
 6264TIP3    H240284   1.969   2.048   1.369  0.2263 -0.1305 -0.2196
 6265TIP3   OH240285   0.205   6.075  17.155 -0.0651 -0.1288  0.1370
 6265TIP3    H140286   0.134   6.029  17.111 -0.2906  0.0565  0.3057
 6265TIP3    H240287   0.237   6.013  17.221 -0.3638 -0.0452  0.3596
 6266TIP3   OH240288   1.046   4.360   4.543 -0.0442  0.1317 -0.7863
 6266TIP3    H140289   1.048   4.272   4.506 -2.9861 -0.1820 -0.4024
 6266TIP3    H240290   1.011   4.414   4.472  1.0873  0.9226 -0.7789
 6267TIP3   OH240291   1.265   5.887  13.370 -0.2570 -0.4009  0.1443
 6267TIP3    H140292   1.251   5.901  13.276 -0.5651 -2.6153 -0.1935
 6267TIP3    H240293   1.182   5.912  13.410  0.2645  1.7507  0.0436
 6268TIP3   OH240294   2.565   4.317  16.749 -0.4220 -0.7034 -0.1782
 6268TIP3    H140295   2.645   4.315  16.802 -1.1691  1.5124  1.1834
 6268TIP3    H240296   2.555   4.227  16.717  0.2904 -2.1194  3.1383
 6269TIP3   OH240297   0.578   4.158   2.023  0.0971  0.2191  0.2954
 6269TIP3    H140298   0.558   4.241   1.978  0.0081 -0.9260 -1.9315
 6269TIP3    H240299   0.673   4.160   2.034  0.3789 -0.2067 -1.6443
 6270TIP3   OH240300   1.968   1.514  12.002 -0.5278  0.2100  0.1730
 6270TIP3    H140301   2.037   1.471  11.953  0.0857  0.2519  0.9676
 6270TIP3    H240302   1.924   1.570  11.938  0.5762  0.6547 -0.2359
 6271TIP3   OH240303   0.743   0.312   3.033 -0.1193  0.3048 -0.2908
 6271TIP3    H140304   0.709   0.237   3.082  1.5364 -0.5704 -0.4345
 6271TIP3    H240305   0.666   0.347   2.987 -0.5383 -3.0333 -2.4849
 6272TIP3   OH240306   6.052   0.285   1.299  0.2217 -0.3631  0.2506
 6272TIP3    H140307   6.121   0.343   1.331 -1.3404  2.2573 -0.8688
 6272TIP3    H240308   6.076   0.268   1.208 -0.4627  0.3596 -0.0701
 6273TIP3   OH240309   3.394   0.660   3.141  0.6007 -0.1976  0.2841
 6273TIP3    H140310   3.311   0.669   3.094  0.2832 -0.5193  0.7676
 6273TIP3    H240311   3.368   0.650   3.233  1.2256  0.9295  0.6045
 6274TIP3   OH240312   3.715   0.915   5.466 -0.1997 -0.3976  0.0449
 6274TIP3    H140313   3.744   0.869   5.388  3.3735  0.2584  0.8327
 6274TIP3    H240314   3.779   0.985   5.479 -0.9272 -0.1654  3.2930
 6275TIP3   OH240315   3.867   2.434   4.663  0.1275  0.9547 -0.5442
 6275TIP3    H140316   3.913   2.516   4.682 -1.9249  1.6124  2.3582
 6275TIP3    H240317   3.777   2.462   4.645 -0.7139 -0.6288  0.9271
 6276TIP3   OH240318   4.951   6.681   0.476 -0.0631 -0.1997  0.4543
 6276TIP3    H140319   4.861   6.659   0.498 -0.4098  0.4603 -0.2591
 6276TIP3    H240320   4.953   6.776   0.477  0.4974 -0.2009 -0.0226
 6277TIP3   OH240321   1.109   3.981   0.373 -0.0150  0.6878  0.6765
 6277TIP3    H140322   1.053   3.970   0.449  0.1711  0.4543  0.7841
 6277TIP3    H240323   1.049   3.988   0.299 -0.1763 -0.4432  0.6835
 6278TIP3   OH240324   2.309   5.344  16.093  0.4432 -0.3421 -0.4948
 6278TIP3    H140325   2.277   5.423  16.137 -2.4771 -1.5819 -0.1141
 6278TIP3    H240326   2.353   5.376  16.014 -0.9465  1.6897 -0.5353
 6279TIP3   OH240327   1.645   6.092  16.944  0.3029 -0.2468 -0.4123
 6279TIP3    H140328   1.556   6.082  16.977  0.0758  0.7104 -0.7146
 6279TIP3    H240329   1.687   6.008  16.963 -0.3327 -0.3305  0.7202
 6280TIP3   OH240330   5.432   1.110   5.150 -0.1799  0.4496  0.1824
 6280TIP3    H140331   5.357   1.085   5.095  0.3487  0.2921 -0.4782
 6280TIP3    H240332   5.392   1.155   5.225 -0.9079  0.9069 -0.4569
 6281TIP3   OH240333   3.029   2.695   5.914 -0.6283  0.0562  0.2274
 6281TIP3    H140334   2.983   2.668   5.835 -2.0812 -0.2621  1.1406
 6281TIP3    H240335   2.984   2.775   5.943  0.5280  0.7526  0.2146
 6282TIP3   OH240336   4.899   4.725  11.902  0.0779 -0.4939  0.0291
 6282TIP3    H140337   4.910   4.808  11.857  0.9620 -0.2065  0.7515
 6282TIP3    H240338   4.893   4.660  11.832  0.5422  0.0420 -0.5152
 6283TIP3   OH240339   5.773   1.309   2.195  0.4560  0.0288  0.1870
 6283TIP3    H140340   5.803   1.362   2.121  3.5038 -0.5142  0.8867
 6283TIP3    H240341   5.713   1.366   2.242  0.3633  1.2851 -1.3579
 6284TIP3   OH240342   0.619   3.860  11.385  0.1406 -0.1887  0.1740
 6284TIP3    H140343   0.591   3.884  11.473  3.6939 -4.1020  2.7384
 6284TIP3    H240344   0.555   3.796  11.355 -1.4494  1.6373 -0.5448
 6285TIP3   OH240345   2.969   6.319   1.234 -0.3274 -0.3943 -0.0713
 6285TIP3    H140346   2.958   6.267   1.154  2.0501  1.1542 -1.5037
 6285TIP3    H240347   2.942   6.407   1.209  1.1637  0.2742  0.5929
 6286TIP3   OH240348   0.262   2.194   4.967  0.0459 -0.1110 -0.5008
 6286TIP3    H140349   0.182   2.179   4.917  0.7487 -1.3816 -1.2968
 6286TIP3    H240350   0.325   2.229   4.904  0.1763  0.7661  0.0891
 6287TIP3   OH240351   2.525   1.630  10.530 -0.2126 -0.0650 -0.3715
 6287TIP3    H140352   2.577   1.700  10.490  0.1546  0.4865  0.9959
 6287TIP3    H240353   2.442   1.672  10.553  0.1669  0.0576  0.8380
 6288TIP3   OH240354   4.118   4.987  12.563  0.3334 -0.0479  0.2075
 6288TIP3    H140355   4.173   4.914  12.591  1.2565 -0.2876 -2.0641
 6288TIP3    H240356   4.031   4.948  12.550  0.7869 -0.7398 -0.8616
 6289TIP3   OH240357   5.764   6.583  16.004  0.4513 -0.5218 -0.2266
 6289TIP3    H140358   5.747   6.658  15.947  0.7199  0.2256  0.6532
 6289TIP3    H240359   5.772   6.508  15.944  0.0373  0.1250 -1.1038
 6290TIP3   OH240360   4.144   2.627   1.263  0.0579 -0.1087  0.3309
 6290TIP3    H140361   4.137   2.619   1.359 -1.6968 -0.0634  0.2376
 6290TIP3    H240362   4.224   2.678   1.249  1.1236 -1.3066  1.7005
 6291TIP3   OH240363   0.649   6.101  15.145  0.6888  0.1944  0.0406
 6291TIP3    H140364   0.602   6.037  15.198 -1.4110  0.1848 -1.6913
 6291TIP3    H240365   0.736   6.063  15.133 -0.0436 -1.6524  0.2770
 6292TIP3   OH240366   6.188   4.109  13.485 -0.1576 -0.3567 -0.3091
 6292TIP3    H140367   6.177   4.080  13.394 -1.9239 -0.2539 -0.1615
 6292TIP3    H240368   6.125   4.056  13.535  0.1873  0.1835  0.7341
 6293TIP3   OH240369   3.521   0.194  14.422  0.0808  0.3619 -0.7270
 6293TIP3    H140370   3.478   0.264  14.471  0.4855 -0.2164  0.4957
 6293TIP3    H240371   3.614   0.207  14.441  0.1787 -0.3149 -0.7345
 6294TIP3   OH240372   1.227   0.102   3.557  0.0773  0.3522 -0.2313
 6294TIP3    H140373   1.158   0.073   3.618 -1.5991  4.2087  0.0199
 6294TIP3    H240374   1.255   0.023   3.512 -2.8083 -1.7862  1.4366
 6295TIP3   OH240375   3.466   5.798  13.211 -0.5104 -0.0557  0.6559
 6295TIP3    H140376   3.446   5.754  13.129 -0.2099  0.0640  0.5212
 6295TIP3    H240377   3.557   5.775  13.230 -0.8328 -0.7961  1.3982
 6296TIP3   OH240378   1.909   5.795   6.675 -0.4187  0.3792 -0.2913
 6296TIP3    H140379   1.973   5.833   6.735 -0.5797  2.5349 -1.3980
 6296TIP3    H240380   1.902   5.703   6.703  1.6081  0.5851  1.1298
 6297TIP3   OH240381   1.727   3.323  13.431  0.1505  0.2649 -0.4794
 6297TIP3    H140382   1.760   3.391  13.490 -2.6867 -0.8619  2.7952
 6297TIP3    H240383   1.805   3.281  13.396  1.9855  3.4258 -0.5398
 6298TIP3   OH240384   2.785   6.402  15.400  0.1577  0.2245 -0.4616
 6298TIP3    H140385   2.726   6.449  15.459 -0.4550 -0.0937 -0.8209
 6298TIP3    H240386   2.728   6.351  15.343  0.8113 -1.4113  0.2783
 6299TIP3   OH240387   3.438   0.901   2.355  0.0619  0.2574  0.4473
 6299TIP3    H140388   3.424   0.851   2.274 -0.2291  0.2024  0.5296
 6299TIP3    H240389   3.416   0.991   2.331  0.6601  0.3580  0.2792
 6300TIP3   OH240390   0.361   4.813  17.049 -0.2375 -0.1583 -0.1833
 6300TIP3    H140391   0.290   4.772  17.098  0.2554 -0.1103  0.5896
 6300TIP3    H240392   0.439   4.763  17.073  0.4362  1.3612  1.0287
 6301TIP3   OH240393   1.331   0.015   4.718  0.4157  0.1324 -0.4481
 6301TIP3    H140394   1.262  -0.047   4.742  0.8207 -0.1439  0.0292
 6301TIP3    H240395   1.307   0.045   4.630 -0.4859  0.2914 -0.1527
 6302TIP3   OH240396   1.975   2.642  15.086  0.0360  0.7061 -0.2637
 6302TIP3    H140397   1.895   2.684  15.057 -0.8007 -0.1456  0.7311
 6302TIP3    H240398   2.042   2.710  15.080 -0.6645  1.3256 -1.4630
 6303TIP3   OH240399   5.894   6.236  12.854 -0.3717  0.1440  0.2412
 6303TIP3    H140400   5.882   6.156  12.905  1.3131 -1.8660 -2.2442
 6303TIP3    H240401   5.805   6.263  12.831 -0.9627 -1.5153  0.4558
 6304TIP3   OH240402   3.168   2.779  14.750 -0.2692 -0.8388  0.2600
 6304TIP3    H140403   3.219   2.752  14.826 -1.3247 -1.6988  0.6807
 6304TIP3    H240404   3.079   2.792  14.783 -0.8973 -1.9025 -0.9387
 6305TIP3   OH240405   4.057   4.982  16.290  0.5112  0.3697  0.4532
 6305TIP3    H140406   4.014   5.068  16.297  1.0362  0.5761  1.3456
 6305TIP3    H240407   4.067   4.953  16.381  0.4548 -0.5875  0.1619
 6306TIP3   OH240408   6.644   0.488   2.390  0.3858  0.7399 -0.4424
 6306TIP3    H140409   6.594   0.425   2.338  0.0554  1.2423 -0.7470
 6306TIP3    H240410   6.724   0.441   2.415  1.6334  1.1588 -3.2667
 6307TIP3   OH240411   5.501   1.419   1.532  0.0636 -0.2537  0.2268
 6307TIP3    H140412   5.484   1.359   1.459 -2.2529 -0.6250  0.9760
 6307TIP3    H240413   5.444   1.494   1.515  1.0192  0.5886  0.6346
 6308TIP3   OH240414   3.486   4.305   4.717 -0.7206 -0.4196 -0.5404
 6308TIP3    H140415   3.454   4.383   4.762 -0.6276 -1.6283  1.7267
 6308TIP3    H240416   3.413   4.243   4.719 -0.1631 -1.0998 -0.5722
 6309TIP3   OH240417   6.593   5.929   1.223 -0.0737  0.2399  0.5431
 6309TIP3    H140418   6.583   5.846   1.269  2.8707 -0.4551  0.0777
 6309TIP3    H240419   6.645   5.984   1.282  0.2418  0.8021 -0.2376
 6310TIP3   OH240420   6.357   3.486  15.096 -0.3877 -0.3772 -0.0463
 6310TIP3    H140421   6.292   3.539  15.050 -0.7389 -0.3913  0.4275
 6310TIP3    H240422   6.311   3.452  15.172  0.8340  1.7346  1.7795
 6311TIP3   OH240423   0.949   0.705  12.676 -0.1106 -0.0830  0.0299
 6311TIP3    H140424   0.948   0.684  12.583  2.0163 -1.5046  0.2598
 6311TIP3    H240425   0.861   0.683  12.707 -1.3361  1.7506 -1.8498
 6312TIP3   OH240426   6.193   5.828   0.758  0.2491  0.1312  0.2110
 6312TIP3    H140427   6.115   5.772   0.752  0.3819  0.0760 -1.3641
 6312TIP3    H240428   6.265   5.772   0.729  0.6784  0.5907  0.3772
 6313TIP3   OH240429   0.233   2.785   5.622 -0.3139 -0.7102  0.0726
 6313TIP3    H140430   0.152   2.766   5.576  0.0637  0.5037 -1.1420
 6313TIP3    H240431   0.242   2.880   5.618  0.3766 -0.6731  1.5808
 6314TIP3   OH240432   4.007   0.458  15.969  0.2357 -0.6396  0.1104
 6314TIP3    H140433   4.013   0.384  15.909  1.1218  0.4929 -1.2729
 6314TIP3    H240434   4.097   0.474  15.997  0.1387  0.2577 -0.0577
 6315TIP3   OH240435   3.647   1.883  14.307 -0.9025  0.5885 -0.7832
 6315TIP3    H140436   3.583   1.864  14.377 -0.8696  1.0791 -0.6182
 6315TIP3    H240437   3.596   1.881  14.227 -0.8543 -0.4714 -0.8082
 6316TIP3   OH240438   6.127   5.884   5.065  0.1882  0.4119 -0.2626
 6316TIP3    H140439   6.098   5.850   5.149 -0.7744  0.5899 -0.5166
 6316TIP3    H240440   6.048   5.887   5.011  1.0576 -1.2472 -1.7253
 6317TIP3   OH240441   5.880   6.487   2.170 -0.3780  0.6182 -0.2329
 6317TIP3    H140442   5.808   6.458   2.113 -1.2253  0.1632  1.0083
 6317TIP3    H240443   5.838   6.545   2.234  0.6545  1.5922 -0.4176
 6318TIP3   OH240444   6.805   3.389   5.316  0.4935 -0.1096 -0.5893
 6318TIP3    H140445   6.791   3.366   5.224  1.8914 -0.5824 -0.7084
 6318TIP3    H240446   6.896   3.364   5.333  0.4061  0.4418  0.7852
 6319TIP3   OH240447   4.725   2.650   1.819 -0.1258  0.0393 -0.6259
 6319TIP3    H140448   4.692   2.560   1.823  0.0909 -0.0116  0.4044
 6319TIP3    H240449   4.662   2.697   1.764 -0.3398 -0.6946 -1.0191
 6320TIP3   OH240450   1.575   0.502  10.689 -0.2939 -0.1834 -0.4502
 6320TIP3    H140451   1.569   0.454  10.772 -0.9017  1.3284  0.4071
 6320TIP3    H240452   1.522   0.450  10.628  0.1156 -1.2865  0.1023
 6321TIP3   OH240453   2.389   6.460  12.475  0.3952 -0.3458 -0.4222
 6321TIP3    H140454   2.308   6.424  12.437  1.0834 -0.8073 -1.4975
 6321TIP3    H240455   2.434   6.384  12.511  0.6151 -0.1769 -0.3403
 6322TIP3   OH240456   6.154   3.996  16.649  0.4628  0.0323 -0.6588
 6322TIP3    H140457   6.143   4.075  16.702  0.5712 -0.5330  0.2246
 6322TIP3    H240458   6.183   3.929  16.711 -0.9143 -1.0490 -1.1401
 6323TIP3   OH240459   3.155   4.668   4.444 -0.4754 -0.0507  0.0712
 6323TIP3    H140460   3.133   4.761   4.447  0.8283  0.2781  0.5707
 6323TIP3    H240461   3.075   4.622   4.469 -1.0792  0.9537 -0.0056
 6324TIP3   OH240462   0.676   2.476   3.755 -0.1205  0.3250 -0.0593
 6324TIP3    H140463   0.735   2.406   3.783 -1.7946 -0.8896  0.6723
 6324TIP3    H240464   0.589   2.445   3.782 -1.0331  2.2580 -0.6167
 6325TIP3   OH240465   1.561   5.218  16.551 -0.6735  0.0150 -0.0009
 6325TIP3    H140466   1.644   5.195  16.509 -0.5411  2.3111 -1.1816
 6325TIP3    H240467   1.517   5.275  16.487 -1.4506  1.9132  2.1122
 6326TIP3   OH240468   1.651   0.242   5.040  0.1767 -0.0821  0.4221
 6326TIP3    H140469   1.578   0.187   5.066  0.2250 -0.2162  0.2729
 6326TIP3    H240470   1.614   0.330   5.036 -0.4357 -0.3825 -1.4279
 6327TIP3   OH240471   1.235   4.945  11.673 -0.4459  0.3864 -0.4589
 6327TIP3    H140472   1.151   4.907  11.649 -0.7884  1.1997 -0.5737
 6327TIP3    H240473   1.272   4.976  11.590  0.5405 -1.0501 -0.5999
 6328TIP3   OH240474   5.637   0.638   3.243 -0.2611  0.6039  0.1634
 6328TIP3    H140475   5.636   0.565   3.305 -0.5520  1.5735  1.3336
 6328TIP3    H240476   5.693   0.607   3.171 -0.2293 -0.6904  0.7068
 6329TIP3   OH240477   5.965   5.463  14.480 -0.4930 -0.3983 -0.1787
 6329TIP3    H140478   5.931   5.549  14.503  0.6920  0.2379 -0.7446
 6329TIP3    H240479   5.990   5.424  14.564 -0.8542 -0.1162  0.0628
 6330TIP3   OH240480   5.817   4.454  16.039  0.4236 -0.0216 -0.6837
 6330TIP3    H140481   5.750   4.512  16.001 -0.1826  1.0441  1.8194
 6330TIP3    H240482   5.780   4.425  16.122  2.4038 -0.7496  0.0056
 6331TIP3   OH240483   0.859   6.226   2.742 -0.7197 -0.0544 -0.0068
 6331TIP3    H140484   0.926   6.172   2.785 -2.1416  0.6720  3.5297
 6331TIP3    H240485   0.777   6.181   2.761 -1.5277  0.8407 -1.2399
 6332TIP3   OH240486   2.483   5.889   1.467  0.1538  0.6585 -0.2589
 6332TIP3    H140487   2.467   5.981   1.488 -0.0682  0.5296  0.1518
 6332TIP3    H240488   2.569   5.870   1.506  0.6385  0.9499 -1.1762
 6333TIP3   OH240489   3.468   5.447   5.228  0.3534 -0.4290 -0.1148
 6333TIP3    H140490   3.463   5.459   5.323  0.5689  0.1511 -0.1726
 6333TIP3    H240491   3.484   5.353   5.217  0.6754 -0.4449  0.4317
 6334TIP3   OH240492   0.785   2.137   5.701  0.2639  0.2092 -0.2985
 6334TIP3    H140493   0.831   2.072   5.755 -0.3428  0.9708  1.2029
 6334TIP3    H240494   0.775   2.212   5.759 -1.3134  0.7047 -1.1715
 6335TIP3   OH240495   1.727   1.509   3.069  0.4515  0.0668 -0.2903
 6335TIP3    H140496   1.793   1.473   3.128 -1.4498 -1.0898  1.2766
 6335TIP3    H240497   1.669   1.435   3.051 -0.0658  0.8729 -2.1473
 6336TIP3   OH240498   3.255   6.352   2.587  0.1014  0.5424  0.1036
 6336TIP3    H140499   3.321   6.309   2.640  1.0587 -0.1527 -1.5785
 6336TIP3    H240500   3.293   6.438   2.566 -0.7680  1.2864  1.4503
 6337TIP3   OH240501   6.362   0.167  15.284 -0.4458  0.2427 -0.4834
 6337TIP3    H140502   6.307   0.220  15.342 -1.4685 -1.6787  0.3900
 6337TIP3    H240503   6.444   0.156  15.332 -0.4432  0.5489 -0.4175
 6338TIP3   OH240504   2.802   6.371  11.781  0.2048  0.1849  0.1671
 6338TIP3    H140505   2.840   6.438  11.724 -0.4175  0.5267  0.1520
 6338TIP3    H240506   2.876   6.314  11.802  0.6989  0.7519  0.0093
 6339TIP3   OH240507   6.058   2.276  11.466  0.3824 -0.8033  0.3929
 6339TIP3    H140508   5.977   2.281  11.517  0.5081  0.0163  0.5333
 6339TIP3    H240509   6.108   2.207  11.509  0.0522 -0.8330  0.7458
 6340TIP3   OH240510   0.092   0.566  12.148  0.0876  0.1607  0.4292
 6340TIP3    H140511   0.004   0.597  12.129  0.6143  1.7944  0.4902
 6340TIP3    H240512   0.109   0.595  12.238  0.5019 -0.6138  0.6152
 6341TIP3   OH240513   0.796   5.290  17.155 -0.1248  0.3579 -0.4396
 6341TIP3    H140514   0.746   5.224  17.203 -0.4841  1.1625  0.3228
 6341TIP3    H240515   0.738   5.317  17.084 -0.1331  0.1338 -0.5181
 6342TIP3   OH240516   4.840   2.644  11.655  0.1001  0.6217  0.5384
 6342TIP3    H140517   4.831   2.665  11.748 -0.4190  2.4927  0.1159
 6342TIP3    H240518   4.834   2.729  11.611 -0.7808 -0.3240 -1.2807
 6343TIP3   OH240519   5.634   5.665   4.993  0.1435 -0.9410  0.0394
 6343TIP3    H140520   5.630   5.677   4.898 -2.9978 -2.0610 -0.0766
 6343TIP3    H240521   5.567   5.600   5.012  0.4905 -0.5567  3.0977
 6344TIP3   OH240522   3.963   4.440   4.182  0.1095 -0.8741 -0.3708
 6344TIP3    H140523   3.868   4.434   4.185  0.0833 -0.2924  2.4941
 6344TIP3    H240524   3.994   4.365   4.232  1.0133  0.3132  0.9325
 6345TIP3   OH240525   1.002   2.814  12.079  0.0500  0.1129 -0.0569
 6345TIP3    H140526   1.056   2.854  12.010  1.8200 -2.3538 -0.2215
 6345TIP3    H240527   1.049   2.834  12.160 -2.5831  3.9550  0.8027
 6346TIP3   OH240528   3.609   4.649  15.170  0.4713 -0.4063 -0.2711
 6346TIP3    H140529   3.652   4.581  15.118  0.4137  0.3329 -1.3129
 6346TIP3    H240530   3.676   4.717  15.179  0.0209  0.0800 -0.5853
 6347TIP3   OH240531   6.442   3.983  16.528  0.6916  0.0936 -0.0396
 6347TIP3    H140532   6.372   3.930  16.491 -0.0423  1.5906 -0.9030
 6347TIP3    H240533   6.521   3.956  16.480  0.3096 -0.1634 -0.5322
 6348TIP3   OH240534   4.658   4.522  13.227 -0.5116  0.2793  0.3097
 6348TIP3    H140535   4.583   4.488  13.178  0.6927 -0.8298 -0.8590
 6348TIP3    H240536   4.708   4.571  13.162  0.4774 -0.1526  0.7295
 6349TIP3   OH240537   4.155   1.634   2.467  0.1274 -0.0707 -0.7462
 6349TIP3    H140538   4.194   1.573   2.530  0.6157  1.4038  0.4387
 6349TIP3    H240539   4.171   1.593   2.382  1.0894 -1.2404 -0.0415
 6350TIP3   OH240540   4.003   4.420   4.707 -0.0322  0.1915  0.0541
 6350TIP3    H140541   4.033   4.510   4.694  0.8173 -0.2069 -0.8194
 6350TIP3    H240542   3.919   4.416   4.663 -0.4407  0.7590  0.7573
 6351TIP3   OH240543   3.611   1.609   4.862  0.1752 -0.5962 -0.1247
 6351TIP3    H140544   3.700   1.589   4.890  0.2376 -0.1350  0.0084
 6351TIP3    H240545   3.601   1.564   4.778  0.0107 -1.9402  0.5948
 6352TIP3   OH240546   6.613   6.427   1.126  0.9165 -0.2366  0.0318
 6352TIP3    H140547   6.549   6.361   1.101 -0.1865  0.4234  0.9839
 6352TIP3    H240548   6.649   6.395   1.209  1.0444 -0.0772  0.0390
 6353TIP3   OH240549   6.704   3.616   0.136 -0.2050 -0.7794 -0.4662
 6353TIP3    H140550   6.769   3.647   0.199 -1.3151  1.1893 -0.2089
 6353TIP3    H240551   6.743   3.632   0.051 -0.9014  1.8892 -0.3552
 6354TIP3   OH240552   5.826   2.462   3.246 -0.0530  0.5225 -0.4314
 6354TIP3    H140553   5.738   2.437   3.221 -0.4589  0.2686  1.1385
 6354TIP3    H240554   5.867   2.380   3.276  0.2954  0.8477  0.0049
 6355TIP3   OH240555   6.453   0.893  12.660 -0.1279 -0.1679  0.6383
 6355TIP3    H140556   6.440   0.870  12.568  0.8753  0.3830  0.3461
 6355TIP3    H240557   6.478   0.811  12.702  0.6715 -0.1808  0.1548
 6356TIP3   OH240558   2.950   4.030   6.278  0.5535  0.3140 -0.1099
 6356TIP3    H140559   2.934   4.053   6.370  1.0699 -1.9505  0.6186
 6356TIP3    H240560   2.864   4.041   6.236 -0.0476 -0.0197  0.9785
 6357TIP3   OH240561   4.203   6.315  16.430 -0.1693  0.1243 -0.7267
 6357TIP3    H140562   4.189   6.387  16.369 -0.2830  0.3177 -0.4769
 6357TIP3    H240563   4.297   6.297  16.426 -0.0204  0.7592 -0.2708
 6358TIP3   OH240564   5.585   2.519   4.568  0.3656  0.3341 -0.1069
 6358TIP3    H140565   5.584   2.521   4.663  1.4917 -0.9023 -0.0324
 6358TIP3    H240566   5.675   2.544   4.544  0.6966 -1.2663 -0.7241
 6359TIP3   OH240567   4.914   0.861   3.730  0.4922 -0.1274 -0.3616
 6359TIP3    H140568   4.902   0.892   3.640  1.7719  0.0841 -0.4695
 6359TIP3    H240569   5.005   0.832   3.734 -0.2419 -2.7044  0.0857
 6360TIP3   OH240570   6.056   2.472  14.275 -0.2363  0.0757  0.8328
 6360TIP3    H140571   6.012   2.549  14.238  0.9434 -0.0438 -0.9796
 6360TIP3    H240572   6.150   2.492  14.268  0.1809 -2.0352 -1.0787
 6361TIP3   OH240573   0.114   2.767  12.414  0.1920 -0.0018  0.2974
 6361TIP3    H140574   0.059   2.720  12.477  0.5474 -0.2711  0.4169
 6361TIP3    H240575   0.167   2.698  12.373 -0.6091  0.0614 -0.8959
 6362TIP3   OH240576   3.659   4.135  15.503 -0.1704 -0.0009 -0.3179
 6362TIP3    H140577   3.648   4.062  15.442 -2.7451 -0.7511  0.9155
 6362TIP3    H240578   3.752   4.134  15.526  0.0663 -2.2026 -1.1420
 6363TIP3   OH240579   3.104   2.277   0.204  0.7765  0.2521  0.3022
 6363TIP3    H140580   3.025   2.276   0.259  1.7930 -0.5453  1.8082
 6363TIP3    H240581   3.099   2.195   0.154  0.4368  0.4191  0.0551
 6364TIP3   OH240582   5.241   5.632   1.373  0.0032  0.3368 -0.3475
 6364TIP3    H140583   5.275   5.543   1.367 -0.2225  0.0640  1.6759
 6364TIP3    H240584   5.316   5.686   1.398 -0.1934  0.4286  0.0594
 6365TIP3   OH240585   6.640   6.720   5.775 -0.1617 -0.3064  0.0162
 6365TIP3    H140586   6.724   6.716   5.728  0.4710  1.5662  0.8715
 6365TIP3    H240587   6.664   6.709   5.867 -0.5671  2.0286  0.4531
 6366TIP3   OH240588   5.461   5.155   5.862 -0.4850  0.2952 -0.1321
 6366TIP3    H140589   5.415   5.096   5.803 -0.4577  0.5860 -0.4481
 6366TIP3    H240590   5.546   5.113   5.876 -0.0944  0.7114 -1.1130
 6367TIP3   OH240591   6.493   3.995  15.333  0.3177  0.6706 -0.1539
 6367TIP3    H140592   6.505   4.032  15.420  0.9346  0.3461 -0.0925
 6367TIP3    H240593   6.549   3.917  15.332 -0.8765 -0.2241 -0.2992
 6368TIP3   OH240594   0.191   0.416  10.126 -0.5586 -1.0408  0.6144
 6368TIP3    H140595   0.202   0.327  10.092 -0.0092 -0.5992 -0.4346
 6368TIP3    H240596   0.221   0.472  10.054 -1.0530 -0.0036  1.1972
 6369TIP3   OH240597   4.543   3.148   2.699 -0.3146  0.1602  0.2213
 6369TIP3    H140598   4.449   3.150   2.713 -0.1462 -0.0699  1.5304
 6369TIP3    H240599   4.564   3.231   2.657 -0.8972  0.9023  1.3677
 6370TIP3   OH240600   4.091   2.103  11.725  0.2607  0.7375  0.3843
 6370TIP3    H140601   4.039   2.037  11.771  0.5560 -0.2369 -0.6454
 6370TIP3    H240602   4.128   2.157  11.795  1.7357 -1.4701  1.4315
 6371TIP3   OH240603   4.491   4.008  17.155 -0.5250 -0.1235 -0.2240
 6371TIP3    H140604   4.402   4.043  17.154 -0.9592 -1.1065 -1.9672
 6371TIP3    H240605   4.543   4.072  17.106  0.3526  1.6937  2.8248
 6372TIP3   OH240606   2.953   4.477   0.588 -0.2328 -0.3791 -0.2348
 6372TIP3    H140607   2.962   4.539   0.660 -0.0004  0.6988 -1.1579
 6372TIP3    H240608   3.024   4.415   0.600  1.5520  1.3989 -1.0372
 6373TIP3   OH240609   5.264   1.154  11.784 -0.1384  0.0470  0.2240
 6373TIP3    H140610   5.292   1.126  11.872 -0.8896  0.4996  0.6241
 6373TIP3    H240611   5.202   1.086  11.757  0.8835 -0.6542 -0.4203
 6374TIP3   OH240612   0.630   4.347  15.402 -0.2144  0.4403 -0.0752
 6374TIP3    H140613   0.566   4.401  15.355  0.4053  0.4707 -0.9179
 6374TIP3    H240614   0.582   4.314  15.478 -0.5604  2.2965  0.5608
 6375TIP3   OH240615   2.380   0.173   3.118  0.2119 -0.5279  0.2141
 6375TIP3    H140616   2.384   0.268   3.121  1.3525 -0.5755  3.0504
 6375TIP3    H240617   2.471   0.146   3.105 -0.1928 -1.2635 -1.2996
 6376TIP3   OH240618   6.586   0.082  12.131  0.1248 -0.0254 -0.0345
 6376TIP3    H140619   6.517   0.138  12.096  0.3327 -0.0226 -0.4431
 6376TIP3    H240620   6.562  -0.006  12.104 -0.3137 -0.1694  0.7890
 6377TIP3   OH240621   6.012   2.446  14.558  0.5462 -0.2166 -0.1389
 6377TIP3    H140622   6.003   2.540  14.571  0.4338 -0.2705  0.1981
 6377TIP3    H240623   6.076   2.437  14.488  0.9876  0.1013  0.2206
 6378TIP3   OH240624   6.762   1.290  16.277 -0.1495  0.2258  0.2487
 6378TIP3    H140625   6.730   1.307  16.188 -0.0239 -1.7005 -0.2049
 6378TIP3    H240626   6.691   1.320  16.334 -0.3120  1.3020 -0.4934
 6379TIP3   OH240627   3.493   1.188   2.251  0.1864 -0.3502 -0.2407
 6379TIP3    H140628   3.434   1.256   2.281 -0.4925 -0.6000 -0.9623
 6379TIP3    H240629   3.471   1.176   2.158  0.9225 -0.9036 -0.3591
 6380TIP3   OH240630   4.307   5.970   5.151 -0.0993  0.2988  0.2076
 6380TIP3    H140631   4.384   5.919   5.176 -1.0043  0.0193  2.6747
 6380TIP3    H240632   4.283   5.937   5.064  1.1399 -1.3078  0.4363
 6381TIP3   OH240633   3.240   4.170   0.264  0.2749  0.1830 -0.0185
 6381TIP3    H140634   3.292   4.128   0.196 -1.0700 -0.3044 -0.7661
 6381TIP3    H240635   3.184   4.232   0.217 -0.7162 -0.2097  0.6200
 6382TIP3   OH240636   2.418   6.315  11.176 -0.1759 -0.2933 -0.0622
 6382TIP3    H140637   2.375   6.290  11.257 -0.6724  1.3760  0.2153
 6382TIP3    H240638   2.358   6.377  11.134 -0.4802 -1.9502 -2.2915
 6383TIP3   OH240639   4.119   5.766   0.292  0.1652  0.5165 -0.0633
 6383TIP3    H140640   4.181   5.785   0.362  1.4747 -0.9822 -0.7687
 6383TIP3    H240641   4.104   5.851   0.249  0.7229  1.1191  0.9097
 6384TIP3   OH240642   0.310   1.022   4.831 -0.6062 -0.4831  0.0987
 6384TIP3    H140643   0.288   0.929   4.835 -0.4699 -0.5476 -0.5389
 6384TIP3    H240644   0.262   1.055   4.755 -1.5545  0.2191  0.9775
 6385TIP3   OH240645   2.875   4.883   2.168  0.1969  0.3423  0.7070
 6385TIP3    H140646   2.800   4.848   2.120 -0.4999 -0.3363  2.1999
 6385TIP3    H240647   2.847   4.972   2.192  0.3868  0.5398  0.2083
 6386TIP3   OH240648   5.111   0.694   2.583  0.0330 -0.4368  0.7920
 6386TIP3    H140649   5.136   0.781   2.552 -1.4325 -0.2215  0.1311
 6386TIP3    H240650   5.185   0.638   2.560 -0.2754  0.0452 -1.6609
 6387TIP3   OH240651   0.551   2.003  13.728  0.2766  0.0463 -0.2099
 6387TIP3    H140652   0.568   2.009  13.634 -1.2790 -0.8962 -0.5969
 6387TIP3    H240653   0.456   2.008  13.735  0.3672  0.0299  1.3157
 6388TIP3   OH240654   4.656   6.668   5.476 -0.2253  0.4484 -0.0682
 6388TIP3    H140655   4.630   6.644   5.386 -2.6596 -1.8650  1.0858
 6388TIP3    H240656   4.576   6.654   5.527  2.1714 -3.0149  3.2252
 6389TIP3   OH240657   4.916   3.781   2.436 -0.2753  0.5543 -0.1348
 6389TIP3    H140658   4.936   3.762   2.344 -1.3413 -0.4937 -0.1686
 6389TIP3    H240659   5.002   3.785   2.478  0.1603 -1.0315 -0.8008
 6390TIP3   OH240660   4.846   0.087  12.580 -0.0152  0.1056  0.0482
 6390TIP3    H140661   4.759   0.051  12.598 -0.0805  0.1114 -0.2520
 6390TIP3    H240662   4.841   0.178  12.610  0.2917 -0.2481  1.2381
 6391TIP3   OH240663   5.430   1.083   2.298 -0.1194 -0.5062 -0.5014
 6391TIP3    H140664   5.430   1.042   2.212 -0.8919 -0.1749 -0.6646
 6391TIP3    H240665   5.521   1.078   2.327  0.2351 -0.2011 -1.5369
 6392TIP3   OH240666   2.127   1.595   0.257 -0.2162 -0.0949 -0.5710
 6392TIP3    H140667   2.155   1.526   0.318 -2.5846 -2.6458 -2.1033
 6392TIP3    H240668   2.112   1.671   0.313  2.4705 -0.7247  1.2443
 6393TIP3   OH240669   3.031   2.537  13.461 -0.7705 -0.5384  0.4160
 6393TIP3    H140670   2.969   2.516  13.391 -0.2379 -1.1614  0.1206
 6393TIP3    H240671   2.987   2.509  13.541 -1.6504  0.7571  0.4195
 6394TIP3   OH240672   3.583   5.853   1.228 -0.2629 -0.1856 -0.3094
 6394TIP3    H140673   3.602   5.851   1.134 -0.6669 -0.1542 -0.3923
 6394TIP3    H240674   3.640   5.786   1.265 -0.2608 -0.3517 -0.6067
 6395TIP3   OH240675   3.500   4.149   3.190 -0.5815  0.2327 -0.2839
 6395TIP3    H140676   3.515   4.227   3.244  2.2854  0.2662 -0.9703
 6395TIP3    H240677   3.587   4.125   3.158 -1.3188 -3.3294 -0.0308
 6396TIP3   OH240678   3.762   4.025  13.705 -0.7184  0.2997 -0.2790
 6396TIP3    H140679   3.748   3.955  13.641  0.3869  0.8122 -1.1201
 6396TIP3    H240680   3.680   4.073  13.707 -0.1669  1.5599 -2.9510
 6397TIP3   OH240681   0.569   4.470   1.920 -1.1697  0.5377 -0.2410
 6397TIP3    H140682   0.653   4.505   1.950 -0.6359 -0.6697 -0.2603
 6397TIP3    H240683   0.551   4.517   1.839  1.3189 -1.6139 -2.2268
 6398TIP3   OH240684   1.455   4.016   3.280 -0.6150  0.3160 -0.3365
 6398TIP3    H140685   1.426   4.071   3.353  0.5220 -0.4119  0.6927
 6398TIP3    H240686   1.525   4.067   3.239 -0.4205  0.1917 -0.1602
 6399TIP3   OH240687   6.422   2.948  13.757 -0.5526 -0.0458 -0.8126
 6399TIP3    H140688   6.374   2.992  13.827 -2.0643 -0.7330 -1.3621
 6399TIP3    H240689   6.443   3.018  13.695 -1.0556  0.2520 -0.6567
 6400TIP3   OH240690   3.696   3.686   5.602  0.2288  0.2018  0.0449
 6400TIP3    H140691   3.659   3.598   5.613 -1.0796  0.9571  2.4735
 6400TIP3    H240692   3.786   3.678   5.634  0.4746 -0.4797 -0.7918
 6401TIP3   OH240693   4.251   4.993   4.279  0.5018 -0.1714 -0.1895
 6401TIP3    H140694   4.172   5.036   4.314  0.0498 -0.4951 -0.7885
 6401TIP3    H240695   4.283   5.054   4.213  0.2153 -0.4693 -0.6052
 6402TIP3   OH240696   5.545   6.351  16.334 -0.2593 -0.1907 -0.2705
 6402TIP3    H140697   5.609   6.411  16.295 -0.9999  1.0740  0.4008
 6402TIP3    H240698   5.476   6.344  16.268 -0.1341 -0.3690 -0.3821
 6403TIP3   OH240699   6.308   1.011   5.528 -0.5439  0.1215  0.0965
 6403TIP3    H140700   6.249   0.937   5.538 -0.4089 -0.0561 -0.3925
 6403TIP3    H240701   6.370   1.003   5.600  0.3204 -1.0476 -0.7431
 6404TIP3   OH240702   6.224   1.624  13.984  0.2259  0.1378  0.6429
 6404TIP3    H140703   6.287   1.656  14.049 -1.1191 -0.0323  2.1084
 6404TIP3    H240704   6.183   1.703  13.950 -0.4826  0.1790  1.5339
 6405TIP3   OH240705   4.238   4.082   2.708 -0.1878  0.0659 -0.6572
 6405TIP3    H140706   4.316   4.131   2.680 -0.6504  1.0922 -0.2040
 6405TIP3    H240707   4.266   4.034   2.786 -0.6388  2.4754  1.1055
 6406TIP3   OH240708   1.811   1.740   3.210 -0.2465 -0.0445  0.5541
 6406TIP3    H140709   1.774   1.660   3.173 -0.5397  0.2973  0.0885
 6406TIP3    H240710   1.735   1.788   3.244  0.0435 -0.4605  1.8347
 6407TIP3   OH240711   5.639   2.260   0.918  0.3512 -0.1321 -1.2088
 6407TIP3    H140712   5.545   2.243   0.916  0.0722  0.0846  2.6180
 6407TIP3    H240713   5.647   2.354   0.930  0.9581 -0.3031 -0.1227
 6408TIP3   OH240714   0.450   1.339  10.568  0.0837 -0.1127 -0.9993
 6408TIP3    H140715   0.450   1.362  10.661 -0.2764  1.0155 -1.2588
 6408TIP3    H240716   0.527   1.383  10.533 -0.4052  0.4101 -1.4398
 6409TIP3   OH240717   2.814   2.898   0.680 -0.4667 -0.2644 -0.8147
 6409TIP3    H140718   2.865   2.880   0.759  1.0897 -0.3383 -1.7951
 6409TIP3    H240719   2.743   2.955   0.709  1.7180  2.1274  0.1945
 6410TIP3   OH240720   1.203   0.382  16.430 -0.0888  0.2532  0.3580
 6410TIP3    H140721   1.249   0.465  16.442 -1.5864  1.0250  1.0405
 6410TIP3    H240722   1.131   0.385  16.494 -0.4846 -1.3423  0.0340
 6411TIP3   OH240723   5.960   2.274  16.085 -0.0750 -0.0703 -0.0236
 6411TIP3    H140724   5.940   2.215  16.012  0.4143  0.9843 -1.0408
 6411TIP3    H240725   5.930   2.360  16.055  1.5119  0.6631  0.3837
 6412TIP3   OH240726   1.662   6.413   4.198 -0.2468 -0.8462 -0.3482
 6412TIP3    H140727   1.641   6.369   4.280  1.9159  0.0628  0.7743
 6412TIP3    H240728   1.582   6.460   4.174 -1.0445 -1.4803  0.9901
 6413TIP3   OH240729   3.496   2.456  14.450 -0.0217 -0.2703  0.2206
 6413TIP3    H140730   3.437   2.503  14.509  0.6186 -1.5197  1.9331
 6413TIP3    H240731   3.457   2.369  14.443  0.4348 -0.4250 -0.4605
 6414TIP3   OH240732   5.342   4.330  11.598  0.4446  0.0568 -0.5708
 6414TIP3    H140733   5.427   4.340  11.556  1.0664 -1.6158  0.2133
 6414TIP3    H240734   5.279   4.354  11.531  1.5066  1.3633 -1.1602
 6415TIP3   OH240735   3.448   3.386   1.641 -0.6120  0.2264 -0.5032
 6415TIP3    H140736   3.455   3.476   1.672 -0.1839  0.2655 -0.6962
 6415TIP3    H240737   3.488   3.334   1.710 -2.7275 -0.0499  0.5975
 6416TIP3   OH240738   2.330   0.948  15.421 -0.0074  0.3722 -0.2823
 6416TIP3    H140739   2.238   0.974  15.424  0.5079  2.6002 -1.1935
 6416TIP3    H240740   2.356   0.961  15.330  1.1597 -0.4448 -0.0970
 6417TIP3   OH240741   1.151   3.617   3.033 -0.0903 -0.4674  0.0002
 6417TIP3    H140742   1.162   3.535   3.083  2.4913 -0.6497 -0.7366
 6417TIP3    H240743   1.141   3.588   2.942 -1.0556  0.0177 -0.0655
 6418TIP3   OH240744   1.817   0.461   4.186 -0.1355  0.1477  0.7141
 6418TIP3    H140745   1.767   0.384   4.212 -0.7385 -0.3120 -1.5932
 6418TIP3    H240746   1.787   0.480   4.097  1.2576  2.0151  0.5860
 6419TIP3   OH240747   0.431   4.431  14.276 -0.1470 -0.1949 -0.0230
 6419TIP3    H140748   0.378   4.357  14.305 -0.5492 -0.3772 -1.1757
 6419TIP3    H240749   0.493   4.393  14.214 -0.7055  0.5111 -1.0259
 6420TIP3   OH240750   3.523   5.451   0.092 -0.3818 -0.4301 -0.2185
 6420TIP3    H140751   3.558   5.511   0.026 -0.0717 -0.2020  0.1468
 6420TIP3    H240752   3.543   5.493   0.175  0.1519 -1.2022  0.0581
 6421TIP3   OH240753   5.087   5.618  12.907 -0.0205  0.3300 -0.2451
 6421TIP3    H140754   5.139   5.677  12.852  0.9571  2.8591  3.0782
 6421TIP3    H240755   5.152   5.565  12.953 -0.6368  0.2533  0.5512
 6422TIP3   OH240756   5.701   4.801   3.998 -0.0231 -0.0241  0.1152
 6422TIP3    H140757   5.786   4.756   4.003  0.2141  0.4301  0.2210
 6422TIP3    H240758   5.678   4.818   4.089  1.0019  2.1126  0.0449
 6423TIP3   OH240759   1.646   0.298   2.494 -0.5552 -0.1298 -0.2964
 6423TIP3    H140760   1.663   0.325   2.404  0.1521 -2.3069 -0.8846
 6423TIP3    H240761   1.707   0.349   2.547  1.1646 -0.9517 -1.4020
 6424TIP3   OH240762   5.636   0.351  15.296  0.0171 -0.2982  0.2739
 6424TIP3    H140763   5.590   0.336  15.213 -0.7490  1.1143  0.4065
 6424TIP3    H240764   5.652   0.264  15.331 -2.5889 -0.8706  0.2210
 6425TIP3   OH240765   3.257   6.267  15.173 -0.1034 -0.8259 -0.4781
 6425TIP3    H140766   3.228   6.222  15.253 -0.8126 -0.4184 -0.4912
 6425TIP3    H240767   3.192   6.242  15.108  0.5610 -1.2783 -0.9800
 6426TIP3   OH240768   5.380   2.829   4.862  0.3161 -0.5395  0.1527
 6426TIP3    H140769   5.395   2.892   4.933  1.2129  0.0181 -0.5046
 6426TIP3    H240770   5.290   2.799   4.875 -0.3715  1.3840  0.1113
 6427TIP3   OH240771   0.853   3.647   4.146  0.2895  0.7276  0.3679
 6427TIP3    H140772   0.797   3.712   4.189  0.1062  1.2737 -0.6740
 6427TIP3    H240773   0.799   3.611   4.075 -0.1829 -1.7075  1.8220
 6428TIP3   OH240774   2.108   4.492   5.078 -0.6282  0.2650  0.2918
 6428TIP3    H140775   2.110   4.562   5.013  1.2717 -0.2491 -0.2725
 6428TIP3    H240776   2.131   4.413   5.029 -1.8306 -0.6098  1.0942
 6429TIP3   OH240777   2.835   2.867  11.712  0.8305 -0.1728 -0.4708
 6429TIP3    H140778   2.757   2.887  11.660  0.3163 -1.4514 -0.2292
 6429TIP3    H240779   2.855   2.948  11.758  1.4420  1.0740 -2.8067
 6430TIP3   OH240780   3.956   6.052   1.375  0.1287 -0.0158  0.2821
 6430TIP3    H140781   4.027   6.038   1.312  0.8989  0.2547  1.0794
 6430TIP3    H240782   3.945   5.967   1.418  1.9531  0.6291  2.1720
 6431TIP3   OH240783   5.451   3.503  13.751 -0.3307  0.2817 -0.3929
 6431TIP3    H140784   5.492   3.573  13.801 -0.9733  1.1468 -1.0471
 6431TIP3    H240785   5.524   3.452  13.717  0.1262  0.1578  0.7419
 6432TIP3   OH240786   6.826   1.302  12.802  0.3756 -0.6518 -0.5259
 6432TIP3    H140787   6.799   1.372  12.743  0.8756  0.2624  0.3121
 6432TIP3    H240788   6.754   1.239  12.799 -0.9285  0.7550  0.1028
 6433TIP3   OH240789   5.804   4.985  13.253 -0.1906  0.3324  0.6241
 6433TIP3    H140790   5.849   4.945  13.179  1.6937  1.5604  1.0288
 6433TIP3    H240791   5.745   5.049  13.213  0.2365  0.4319  0.1434
 6434TIP3   OH240792   3.948   1.524  14.927 -0.2984  0.3525 -1.0069
 6434TIP3    H140793   4.041   1.506  14.935 -0.4651  0.2440  1.0285
 6434TIP3    H240794   3.941   1.620  14.929 -0.4439  0.4065  3.0032
 6435TIP3   OH240795   5.034   0.131  12.841 -0.6127  0.0990 -0.2105
 6435TIP3    H140796   4.966   0.066  12.819 -0.9274  0.7317 -1.1820
 6435TIP3    H240797   5.116   0.086  12.824 -0.8149 -0.3113 -0.1192
 6436TIP3   OH240798   0.799   3.745  16.109  0.3578  0.3533  0.2640
 6436TIP3    H140799   0.865   3.811  16.087  0.9118  0.1381  1.2322
 6436TIP3    H240800   0.849   3.675  16.151 -0.2402 -0.6383 -0.6221
 6437TIP3   OH240801   6.629   0.189   1.689  0.3114  0.2299 -0.2401
 6437TIP3    H140802   6.574   0.141   1.628 -1.8828  1.4881  0.6278
 6437TIP3    H240803   6.710   0.206   1.640  0.9721 -3.6255 -0.8035
 6438TIP3   OH240804   1.826   0.062  16.619  0.1357  0.2601 -0.1255
 6438TIP3    H140805   1.905   0.009  16.610 -0.0613  0.1287 -1.2240
 6438TIP3    H240806   1.758   0.001  16.647  0.9913  0.8559  3.9266
 6439TIP3   OH240807   1.716   2.959   3.373 -0.1302 -0.6491 -0.7796
 6439TIP3    H140808   1.809   2.965   3.351 -0.2879  0.2799 -1.2220
 6439TIP3    H240809   1.677   2.914   3.298 -0.0803 -0.8328 -0.6970
 6440TIP3   OH240810   2.382   0.269   5.028  0.3873 -0.4419 -0.0930
 6440TIP3    H140811   2.304   0.261   5.083  0.8310 -0.2661  0.5792
 6440TIP3    H240812   2.359   0.333   4.961 -0.8856 -2.1717 -1.4037
 6441TIP3   OH240813   5.107   1.869   1.507  0.0561  0.0033 -0.1969
 6441TIP3    H140814   5.183   1.857   1.450 -1.1025 -0.4570 -1.7200
 6441TIP3    H240815   5.043   1.805   1.475 -1.8548  1.9839 -0.5865
 6442TIP3   OH240816   5.929   4.046   5.501 -0.3599  0.1238 -0.5185
 6442TIP3    H140817   6.006   3.990   5.509 -0.7268 -0.4689 -1.0868
 6442TIP3    H240818   5.883   4.036   5.584 -0.1922 -0.0620 -0.4485
 6443TIP3   OH240819   0.908   6.731  15.208  0.3350 -0.3855 -0.1197
 6443TIP3    H140820   0.944   6.643  15.216 -0.6847 -0.8368 -0.2922
 6443TIP3    H240821   0.972   6.778  15.155  2.0466 -0.3219  1.9011
 6444TIP3   OH240822   2.618   5.115  13.920  0.4598 -0.1281 -0.4633
 6444TIP3    H140823   2.671   5.036  13.933 -1.5535 -1.6061 -0.8645
 6444TIP3    H240824   2.608   5.151  14.008  2.1067  0.2141 -0.3798
 6445TIP3   OH240825   5.615   0.633  16.130 -0.9234 -0.0741  0.3844
 6445TIP3    H140826   5.572   0.673  16.206 -2.8433 -1.0337 -0.1251
 6445TIP3    H240827   5.613   0.701  16.063 -3.1317 -0.5310 -0.1112
 6446TIP3   OH240828   2.968   3.039  16.070  0.1644  0.1245  0.3275
 6446TIP3    H140829   3.062   3.054  16.061  0.3693  0.8221  2.8976
 6446TIP3    H240830   2.959   2.983  16.147 -1.5649  0.6808  0.5868
 6447TIP3   OH240831   5.790   6.393   1.005 -0.3347  0.2428  0.4341
 6447TIP3    H140832   5.874   6.350   0.990  0.3161  1.7493 -0.4198
 6447TIP3    H240833   5.733   6.362   0.935  0.3239  1.2119 -0.5581
 6448TIP3   OH240834   3.070   0.561  13.362 -0.4914 -0.2661 -0.0036
 6448TIP3    H140835   3.153   0.520  13.385  0.0146  1.0700  0.7041
 6448TIP3    H240836   3.089   0.615  13.285 -0.0552  1.8707  1.5037
 6449TIP3   OH240837   3.172   5.167   4.153 -0.1825 -0.3223  0.0987
 6449TIP3    H140838   3.163   5.132   4.065  1.2675 -1.4139  0.3404
 6449TIP3    H240839   3.250   5.222   4.149  0.1680 -0.7478  0.7926
 6450TIP3   OH240840   6.767   2.886   0.501  0.3210  0.1312 -0.5566
 6450TIP3    H140841   6.681   2.923   0.483  1.1142  3.0976  1.0886
 6450TIP3    H240842   6.829   2.950   0.466  1.8713 -1.1692 -0.3194
 6451TIP3   OH240843   6.076   2.461  13.278  0.0681 -0.6805  0.0353
 6451TIP3    H140844   6.104   2.386  13.225 -0.5105 -1.3552  0.6579
 6451TIP3    H240845   6.086   2.537  13.220  0.2750 -1.2899 -0.7423
 6452TIP3   OH240846   5.606   6.111   2.373  0.4974  0.4242  0.1280
 6452TIP3    H140847   5.606   6.039   2.436  0.4307 -0.0287 -0.3772
 6452TIP3    H240848   5.673   6.087   2.309  0.0201  0.4735 -0.4099
 6453TIP3   OH240849   2.054   4.478   0.288 -0.7090 -0.5519 -0.0097
 6453TIP3    H140850   2.058   4.475   0.193  0.4781 -0.3461  0.0220
 6453TIP3    H240851   1.961   4.489   0.308 -0.8672  0.3352 -1.1665
 6454TIP3   OH240852   4.007   3.757   4.997 -0.0307  0.9569  0.5221
 6454TIP3    H140853   4.005   3.793   5.085 -0.3630  0.5685  0.6775
 6454TIP3    H240854   4.098   3.729   4.985  0.2113  1.7801  0.4211
 6455TIP3   OH240855   6.587   3.219  13.276 -0.2443  0.2140 -0.2194
 6455TIP3    H140856   6.491   3.212  13.277 -0.2394  0.1697  0.3780
 6455TIP3    H240857   6.608   3.266  13.357  0.1796  1.0509 -0.8026
 6456TIP3   OH240858   4.275   0.059  11.297 -0.3356 -0.8694 -0.0617
 6456TIP3    H140859   4.359   0.083  11.258 -0.8947  0.3854 -0.5535
 6456TIP3    H240860   4.220   0.036  11.222 -0.9107 -0.0718  0.0938
 6457TIP3   OH240861   4.123   0.731   5.973 -0.2532  0.1438 -0.6298
 6457TIP3    H140862   4.099   0.689   6.056 -1.1832  1.3471 -0.2575
 6457TIP3    H240863   4.218   0.740   5.978 -0.2498 -0.1905  0.1142
 6458TIP3   OH240864   6.040   2.469   0.890 -0.5274  0.8377 -0.1422
 6458TIP3    H140865   5.968   2.432   0.941 -0.7462 -0.1124 -1.1049
 6458TIP3    H240866   6.042   2.417   0.809  0.5183  1.5793 -0.6229
 6459TIP3   OH240867   0.377   6.474  16.329  0.6324 -0.0589 -0.2546
 6459TIP3    H140868   0.353   6.467  16.422 -0.3120 -0.1100 -0.4883
 6459TIP3    H240869   0.472   6.463  16.328  0.4778 -2.0972  0.5324
 6460TIP3   OH240870   1.074   5.435  11.315  0.2185  0.3839  0.6988
 6460TIP3    H140871   1.089   5.347  11.280  1.4756 -0.4272  3.0931
 6460TIP3    H240872   0.980   5.450  11.302  0.0688 -1.1048 -0.1667
 6461TIP3   OH240873   2.058   0.719   1.660  0.2627 -0.0014  0.4741
 6461TIP3    H140874   2.056   0.729   1.755 -2.8429 -0.5439  0.5876
 6461TIP3    H240875   2.126   0.655   1.643  0.4672 -0.3408  2.3985
 6462TIP3   OH240876   1.205   1.985   0.523  0.5897 -0.1528 -0.0482
 6462TIP3    H140877   1.135   1.966   0.461  0.5973  0.8530 -0.4014
 6462TIP3    H240878   1.217   2.080   0.516  0.9314 -0.0963  1.1431
 6463TIP3   OH240879   6.508   0.877   5.043 -0.4828 -0.2403 -0.3027
 6463TIP3    H140880   6.518   0.871   5.138  0.3458 -1.8358 -0.4670
 6463TIP3    H240881   6.453   0.954   5.030 -0.8235 -0.1408  1.4807
 6464TIP3   OH240882   5.923   0.914  13.231 -0.5557  0.4996 -0.0887
 6464TIP3    H140883   5.862   0.865  13.287 -1.4802  1.7788  0.0520
 6464TIP3    H240884   5.867   0.972  13.179  0.4738  0.9852 -0.6852
 6465TIP3   OH240885   6.164   3.190  14.648 -0.2676 -0.3268  0.1417
 6465TIP3    H140886   6.178   3.235  14.731  0.9719  0.8193 -0.6382
 6465TIP3    H240887   6.252   3.163  14.621 -0.7085 -1.0620 -0.5922
 6466TIP3   OH240888   1.727   0.657   6.539 -0.3370 -0.4941  0.3938
 6466TIP3    H140889   1.665   0.689   6.604  1.0193  0.9269  1.0538
 6466TIP3    H240890   1.771   0.584   6.581  2.0115  1.6767  2.0567
 6467TIP3   OH240891   6.687   4.265   3.518 -0.1553 -0.2603  0.3182
 6467TIP3    H140892   6.742   4.339   3.543  0.2722 -0.5873  0.3499
 6467TIP3    H240893   6.612   4.269   3.579  0.5364 -0.6471  1.2171
 6468TIP3   OH240894   3.388   6.479   1.643  0.0968 -0.3319  0.1718
 6468TIP3    H140895   3.353   6.519   1.723  1.5263 -0.5254  0.9101
 6468TIP3    H240896   3.345   6.394   1.639  0.9230 -0.8444  1.4349
 6469TIP3   OH240897   5.940   1.205   2.633 -0.6492  0.2912  0.3945
 6469TIP3    H140898   5.881   1.160   2.573 -0.1614  0.3174 -0.1169
 6469TIP3    H240899   6.019   1.222   2.581  0.0541 -0.2950  1.2310
 6470TIP3   OH240900   5.527   6.482   2.842 -0.6050  0.1281 -0.5567
 6470TIP3    H140901   5.479   6.465   2.923 -0.5407  0.4135 -0.4600
 6470TIP3    H240902   5.611   6.517   2.870  0.1860 -1.5541 -0.6673
 6471TIP3   OH240903   2.365   5.307  12.512  0.4745 -0.0006  0.2213
 6471TIP3    H140904   2.354   5.369  12.441 -0.4070  1.1695  1.3342
 6471TIP3    H240905   2.435   5.345  12.566  1.6688 -1.2538 -0.3695
 6472TIP3   OH240906   5.594   6.321   0.010  0.1655  0.3899 -0.2293
 6472TIP3    H140907   5.677   6.361   0.037 -0.1364 -0.1554  1.6174
 6472TIP3    H240908   5.615   6.271  -0.069  1.4082  0.8832 -0.2239
 6473TIP3   OH240909   0.043   2.473   6.352  0.7633  0.0321 -0.3484
 6473TIP3    H140910   0.136   2.452   6.346  1.2195  2.0457 -0.9392
 6473TIP3    H240911   0.039   2.551   6.406 -0.7222 -0.7168  0.6886
 6474TIP3   OH240912   4.593   3.257   4.920 -0.0919 -0.2980  0.0579
 6474TIP3    H140913   4.638   3.191   4.868  2.3830  2.3393 -1.4659
 6474TIP3    H240914   4.525   3.291   4.861  2.1169  2.0453 -1.3858
 6475TIP3   OH240915   0.288   2.326   6.412  0.0184  0.1466 -0.1995
 6475TIP3    H140916   0.377   2.338   6.443 -0.1155 -0.2123  0.3332
 6475TIP3    H240917   0.294   2.258   6.345  0.2450  0.6386 -0.6935
 6476TIP3   OH240918   2.722   1.988  16.010  0.2622 -0.0898 -0.0333
 6476TIP3    H140919   2.656   1.942  16.062  0.2208 -0.1384 -0.1307
 6476TIP3    H240920   2.806   1.961  16.049  0.2036  0.3628  0.4092
 6477TIP3   OH240921   4.460   3.161   2.370  0.1512 -0.1792 -0.3038
 6477TIP3    H140922   4.476   3.232   2.431 -0.2386 -0.0579 -0.3403
 6477TIP3    H240923   4.541   3.154   2.319  0.2191  0.1758 -0.2428
 6478TIP3   OH240924   0.378   4.411  11.249  0.2029  0.6742 -0.2999
 6478TIP3    H140925   0.445   4.477  11.228 -0.0379  0.6292 -1.2949
 6478TIP3    H240926   0.425   4.328  11.241 -0.0938  0.6100 -1.6092
 6479TIP3   OH240927   6.537   1.182   1.589 -0.6327 -0.2492  0.5910
 6479TIP3    H140928   6.500   1.094   1.585  2.3393 -1.7094  1.7285
 6479TIP3    H240929   6.586   1.184   1.672  0.4500  2.0164 -0.0009
 6480TIP3   OH240930   0.927   6.615  11.965 -0.1735 -0.7467 -0.4473
 6480TIP3    H140931   0.847   6.578  11.929  0.5105 -1.1157 -1.6315
 6480TIP3    H240932   0.997   6.577  11.912  0.5948  2.5051 -2.0134
 6481TIP3   OH240933   6.096   3.549  16.971 -0.3439 -0.1975  0.7053
 6481TIP3    H140934   6.020   3.597  17.004  0.2068 -0.4087  2.3942
 6481TIP3    H240935   6.156   3.617  16.942 -1.3798 -0.0438 -1.2218
 6482TIP3   OH240936   6.472   2.488   2.558 -0.1608  0.7792 -0.3823
 6482TIP3    H140937   6.525   2.510   2.481 -0.4139 -0.3821 -0.9059
 6482TIP3    H240938   6.499   2.552   2.624  0.4521  1.4572 -1.2590
 6483TIP3   OH240939   3.343   6.642   4.893 -0.6135  0.0584 -0.4325
 6483TIP3    H140940   3.250   6.647   4.873 -0.5142  1.7560 -0.6125
 6483TIP3    H240941   3.347   6.599   4.979 -1.8606  3.0153  1.2728
 6484TIP3   OH240942   6.756   3.872  15.633  0.5000  0.3210 -1.1542
 6484TIP3    H140943   6.810   3.796  15.656  0.3642  0.5654  0.0488
 6484TIP3    H240944   6.718   3.850  15.548 -1.3090 -1.9567  0.1231
 6485TIP3   OH240945   4.718   2.995   6.596 -0.1571 -0.4698  0.2745
 6485TIP3    H140946   4.802   2.948   6.587  0.1721  0.3422 -1.3117
 6485TIP3    H240947   4.661   2.933   6.641  1.1221 -1.2717  0.8600
 6486TIP3   OH240948   4.265   2.850  16.756  0.6195  0.5250 -0.5872
 6486TIP3    H140949   4.342   2.904  16.737  2.7323 -1.2423  2.1824
 6486TIP3    H240950   4.206   2.909  16.804  0.9371  1.5011 -1.3718
 6487TIP3   OH240951   0.245   6.416  11.496 -0.2049  0.2874  0.1413
 6487TIP3    H140952   0.153   6.391  11.506 -0.3282 -0.2598 -1.8780
 6487TIP3    H240953   0.272   6.375  11.414  1.6599  1.0043  0.3491
 6488TIP3   OH240954   6.345   2.227   0.622 -0.2295  0.1561  0.1264
 6488TIP3    H140955   6.416   2.171   0.591 -0.9513 -0.6086 -0.1762
 6488TIP3    H240956   6.367   2.314   0.587 -0.3703 -0.4342 -1.5360
 6489TIP3   OH240957   2.881   4.223  12.976  0.4573 -0.4520  0.0709
 6489TIP3    H140958   2.833   4.180  13.046 -2.4699 -0.1513 -1.5894
 6489TIP3    H240959   2.818   4.231  12.904  2.8408  0.5672 -2.1025
 6490TIP3   OH240960   1.699   2.174  13.226 -0.0206 -0.2561  0.1988
 6490TIP3    H140961   1.702   2.080  13.240 -0.7345 -0.4398 -0.7685
 6490TIP3    H240962   1.607   2.193  13.208 -0.2005  0.9007  2.0503
 6491TIP3   OH240963   5.965   3.576  13.756  0.4301  0.2957  0.4574
 6491TIP3    H140964   5.968   3.670  13.734 -1.0703  0.1920 -0.3098
 6491TIP3    H240965   5.990   3.533  13.674  0.3584  0.0106  0.5875
 6492TIP3   OH240966   0.352   1.183  12.273 -0.0325  0.3824  0.5078
 6492TIP3    H140967   0.322   1.166  12.363  0.7528 -1.1679  0.5117
 6492TIP3    H240968   0.274   1.218  12.229 -0.0278  2.7544  2.1446
 6493TIP3   OH240969   4.258   1.148  12.922 -0.0018 -0.3000 -0.1874
 6493TIP3    H140970   4.317   1.194  12.863 -0.2603 -0.8998 -0.9265
 6493TIP3    H240971   4.315   1.115  12.992  0.5745 -0.9798 -0.9580
 6494TIP3   OH240972   5.947   5.615  15.259  0.2706 -0.3598 -0.5717
 6494TIP3    H140973   5.997   5.635  15.339 -0.1169 -0.5574 -0.2786
 6494TIP3    H240974   6.014   5.603  15.192  0.5788  0.3650 -0.4051
 6495TIP3   OH240975   1.359   2.846  14.761  0.3589  0.1075  0.5286
 6495TIP3    H140976   1.447   2.829  14.793  0.4748 -0.9517 -0.2838
 6495TIP3    H240977   1.369   2.916  14.697  0.3722  1.0497  1.5462
 6496TIP3   OH240978   1.550   0.689   0.764 -0.0283 -0.2286 -0.2599
 6496TIP3    H140979   1.515   0.613   0.810 -0.9850  0.5514  0.3328
 6496TIP3    H240980   1.517   0.764   0.813  0.4752  0.5842 -1.1365
 6497TIP3   OH240981   0.524   5.091   1.745  0.5021 -0.3631 -0.4317
 6497TIP3    H140982   0.607   5.114   1.788  0.3239  1.0132 -0.7759
 6497TIP3    H240983   0.526   4.996   1.740  2.3106 -0.3504 -0.8712
 6498TIP3   OH240984   5.745   3.642   1.845  0.2172 -0.1376  0.3438
 6498TIP3    H140985   5.660   3.662   1.806 -0.6648 -0.3750  2.0243
 6498TIP3    H240986   5.737   3.671   1.936  1.3727 -1.5511  0.9478
 6499TIP3   OH240987   3.004   2.876   3.281  0.2358 -0.1502 -0.0040
 6499TIP3    H140988   3.002   2.834   3.195  0.8385 -0.5963  0.1872
 6499TIP3    H240989   3.028   2.805   3.341 -2.3496 -0.3629  0.8681
 6500TIP3   OH240990   5.594   2.182  10.832  0.5804 -0.2969  0.6097
 6500TIP3    H140991   5.527   2.164  10.767  0.4403  1.3910  0.2356
 6500TIP3    H240992   5.659   2.234  10.785  1.3491 -0.5443  1.3828
 6501TIP3   OH240993   4.021   0.393  15.056 -0.4372  0.1812 -0.1688
 6501TIP3    H140994   3.943   0.423  15.102 -0.2606  1.6745 -0.7514
 6501TIP3    H240995   4.064   0.474  15.027  1.5212 -0.5736  0.4319
 6502TIP3   OH240996   2.923   5.783   7.176 -0.1798 -0.3889  0.3542
 6502TIP3    H140997   3.007   5.769   7.132  0.4129  0.2310  1.2417
 6502TIP3    H240998   2.880   5.852   7.127 -1.2089 -2.2387 -1.4712
 6503TIP3   OH240999   6.160   0.615  12.331  0.1864 -0.7774  0.2074
 6503TIP3    H141000   6.095   0.666  12.284  1.8557  1.4376  0.1066
 6503TIP3    H241001   6.136   0.625  12.423  1.0557  1.2387  0.2866
 6504TIP3   OH241002   6.133   3.498  15.594 -0.2810 -0.1798 -0.3551
 6504TIP3    H141003   6.067   3.560  15.626  1.1454  0.9661  0.5038
 6504TIP3    H241004   6.109   3.415  15.635 -0.6876  0.4139  0.6501
 6505TIP3   OH241005   6.640   2.491   1.052 -0.2140 -0.4415 -0.1405
 6505TIP3    H141006   6.683   2.577   1.055  0.7078 -0.9076  0.7664
 6505TIP3    H241007   6.547   2.511   1.042  0.0273  0.6482 -0.3393
 6506TIP3   OH241008   1.816   6.015   5.687  1.1044  0.1276 -0.7017
 6506TIP3    H141009   1.776   5.977   5.766 -1.0797 -3.3951 -3.2153
 6506TIP3    H241010   1.772   6.100   5.677  0.6277  0.1644  1.2343
 6507TIP3   OH241011   2.122   4.648   5.346  0.0337 -0.3024 -0.1307
 6507TIP3    H141012   2.110   4.704   5.269 -0.2702 -0.7212 -0.3900
 6507TIP3    H241013   2.118   4.709   5.420  3.4037  0.6299 -0.5178
 6508TIP3   OH241014   0.655   6.595  12.255 -0.0277 -0.2512 -0.4584
 6508TIP3    H141015   0.603   6.615  12.177  1.0593 -0.8944 -1.3690
 6508TIP3    H241016   0.741   6.634  12.237  0.4133 -0.9200  0.1513
 6509TIP3   OH241017   4.101   6.530  15.832  0.6444 -0.3637 -0.3300
 6509TIP3    H141018   4.087   6.438  15.812 -0.0884 -0.8755  2.1570
 6509TIP3    H241019   4.197   6.538  15.840  0.7161 -0.8894 -0.5990
 6510TIP3   OH241020   4.652   0.197   1.281  0.1094 -0.3739  0.3383
 6510TIP3    H141021   4.568   0.153   1.278 -0.1133  0.0259  0.6372
 6510TIP3    H241022   4.716   0.130   1.256 -0.3462 -0.5450 -0.3645
 6511TIP3   OH241023   1.086   0.275   4.435 -0.4158  0.3069 -0.0812
 6511TIP3    H141024   1.160   0.311   4.385 -1.1199  1.3774 -0.3966
 6511TIP3    H241025   1.062   0.345   4.496 -1.6091  0.2603 -0.4739
 6512TIP3   OH241026   2.412   5.974  14.676 -0.3924 -0.3820  0.6936
 6512TIP3    H141027   2.477   6.022  14.625  0.4509 -0.4704  1.6479
 6512TIP3    H241028   2.376   6.040  14.736 -2.4272  0.0746 -0.9334
 6513TIP3   OH241029   4.056   3.747   1.325 -0.2791 -0.7052 -0.7679
 6513TIP3    H141030   4.132   3.709   1.368 -1.6618 -0.7758  1.7680
 6513TIP3    H241031   3.987   3.681   1.334 -1.6079  0.7385  0.1263
 6514TIP3   OH241032   6.807   3.706  16.784 -0.5416  0.2026  0.2732
 6514TIP3    H141033   6.893   3.716  16.742  0.2912 -1.0619  1.6054
 6514TIP3    H241034   6.746   3.702  16.711  0.7848 -1.2508 -0.8333
 6515TIP3   OH241035   6.597   2.789  13.635  0.2935  0.3087  0.2524
 6515TIP3    H141036   6.536   2.821  13.702 -1.4470 -1.8711 -0.1761
 6515TIP3    H241037   6.568   2.830  13.554 -1.1691 -1.2541 -0.0799
 6516TIP3   OH241038   4.799   1.417   0.241 -1.0715 -0.0105 -0.1931
 6516TIP3    H141039   4.769   1.449   0.156 -0.9034 -0.0146 -0.2553
 6516TIP3    H241040   4.844   1.335   0.221  0.4336  0.7999 -0.3315
 6517TIP3   OH241041   2.572   3.914  16.915 -0.0993 -0.1353 -0.2043
 6517TIP3    H141042   2.621   3.995  16.897  0.5868  0.0788  2.3062
 6517TIP3    H241043   2.631   3.844  16.887 -0.0869  0.1718 -0.9932
 6518TIP3   OH241044   4.064   2.851  14.150 -0.0320  0.6508  0.1285
 6518TIP3    H141045   4.072   2.946  14.162  0.4112  0.4702  1.5265
 6518TIP3    H241046   4.004   2.841  14.076  0.3069  2.0178 -0.3640
 6519TIP3   OH241047   6.354   2.274  11.040  0.5295 -0.3287 -0.1617
 6519TIP3    H141048   6.379   2.309  11.126  3.9872 -1.1403 -0.6929
 6519TIP3    H241049   6.282   2.331  11.012 -0.0539  0.6126  2.7843
 6520TIP3   OH241050   5.832   6.555   5.199 -0.3458 -0.1858 -0.3156
 6520TIP3    H141051   5.787   6.578   5.118  1.3386  1.7971 -0.7741
 6520TIP3    H241052   5.822   6.632   5.255 -1.0216 -1.3073  1.2019
 6521TIP3   OH241053   4.850   2.800   1.193  0.3478  0.3279  0.3716
 6521TIP3    H141054   4.841   2.845   1.277 -1.8170 -0.0392  0.3945
 6521TIP3    H241055   4.903   2.723   1.212 -1.6352 -0.7502  1.8617
 6522TIP3   OH241056   0.205   5.828  16.217 -0.0437  0.1798 -0.0218
 6522TIP3    H141057   0.259   5.749  16.221 -1.7389 -1.0465 -0.5003
 6522TIP3    H241058   0.159   5.830  16.301 -0.3608  0.3946 -0.1971
 6523TIP3   OH241059   3.913   6.531   4.743  0.3445 -0.6180 -0.1508
 6523TIP3    H141060   3.883   6.442   4.727 -1.6053 -0.0403  0.0162
 6523TIP3    H241061   3.847   6.568   4.802  0.5219  1.2750 -1.0695
 6524TIP3   OH241062   6.652   0.437   4.516 -0.3495  0.4045  0.3683
 6524TIP3    H141063   6.723   0.497   4.493  1.1827 -0.1999  3.1062
 6524TIP3    H241064   6.648   0.439   4.612 -1.3690 -2.5452  0.5136
 6525TIP3   OH241065   0.711   1.990   0.119  0.3383  0.3247  1.3416
 6525TIP3    H141066   0.740   1.899   0.122  0.3259  0.2242 -0.2663
 6525TIP3    H241067   0.749   2.030   0.197  2.0570 -0.5797  1.0272
 6526TIP3   OH241068   2.635   4.070   6.503 -0.5342  0.1837  0.2984
 6526TIP3    H141069   2.706   4.131   6.481  0.0664 -0.1120  1.3373
 6526TIP3    H241070   2.679   3.996   6.544 -1.4167 -0.1582  0.6528
 6527TIP3   OH241071   5.775   5.699  16.087 -0.5266  0.2217 -0.5551
 6527TIP3    H141072   5.821   5.624  16.048 -0.3612 -0.3418  0.6640
 6527TIP3    H241073   5.718   5.731  16.016 -1.7921 -2.0455 -0.6959
 6528TIP3   OH241074   2.288   1.440  15.420  0.1966 -0.1438 -0.0767
 6528TIP3    H141075   2.210   1.422  15.473  1.0335 -2.9914  0.3024
 6528TIP3    H241076   2.355   1.465  15.483  1.1170 -3.2764  0.3460
 6529TIP3   OH241077   6.379   4.153   0.609  0.7996 -0.1797 -0.0410
 6529TIP3    H141078   6.399   4.213   0.538 -1.9911 -0.1430 -0.9045
 6529TIP3    H241079   6.464   4.134   0.649  2.0218  2.6230 -1.0697
 6530TIP3   OH241080   3.722   5.451   3.004  0.5089 -0.7192 -0.2762
 6530TIP3    H141081   3.805   5.436   2.960 -0.2194 -0.9727 -1.6211
 6530TIP3    H241082   3.656   5.431   2.938 -0.6151  1.3932  0.1263
 6531TIP3   OH241083   2.776   4.168  10.997 -0.2090  0.4841 -0.6271
 6531TIP3    H141084   2.729   4.102  10.946 -0.5318  1.4621 -1.6128
 6531TIP3    H241085   2.867   4.156  10.973 -0.2828  0.5048 -0.9149
 6532TIP3   OH241086   3.573   1.502  15.912 -0.0339 -0.0461 -0.0490
 6532TIP3    H141087   3.578   1.409  15.933  0.2793  0.4820  2.4260
 6532TIP3    H241088   3.583   1.547  15.995  0.0141  2.2432 -1.2012
 6533TIP3   OH241089   0.015   0.131   4.905  0.4615 -0.1278 -0.1004
 6533TIP3    H141090   0.111   0.138   4.908  0.3402  1.4285  0.4961
 6533TIP3    H241091  -0.017   0.203   4.958 -1.0610 -1.1734  0.4735
 6534TIP3   OH241092   4.743   3.161  16.901  1.0967  0.3071  0.4882
 6534TIP3    H141093   4.726   3.073  16.867  1.1432  0.0738  1.0612
 6534TIP3    H241094   4.699   3.162  16.986  1.0231  0.8680  0.4434
 6535TIP3   OH241095   2.267   0.882   5.627  0.0697 -0.3205  0.3463
 6535TIP3    H141096   2.210   0.916   5.697 -0.4097 -1.3646  0.4761
 6535TIP3    H241097   2.285   0.792   5.652  0.1477 -0.6169 -0.7197
 6536TIP3   OH241098   2.425   0.663  11.239  0.1362  0.4811  0.4823
 6536TIP3    H141099   2.387   0.576  11.237 -1.0678  1.0035 -0.3679
 6536TIP3    H241100   2.392   0.706  11.160  1.1026  1.5422  0.6287
 6537TIP3   OH241101   1.034   0.342  15.462 -0.6628 -1.1027 -0.0455
 6537TIP3    H141102   1.121   0.317  15.430 -1.4679 -0.5598 -2.9507
 6537TIP3    H241103   1.046   0.430  15.497 -0.2926 -0.3342 -1.9885
 6538TIP3   OH241104   1.771   2.601  11.752 -0.3494 -0.2993 -0.3864
 6538TIP3    H141105   1.770   2.506  11.747  1.1544 -0.2855 -4.0575
 6538TIP3    H241106   1.748   2.621  11.843  1.4836 -4.1796  1.1300
 6539TIP3   OH241107   4.226   6.547  14.373 -0.5394 -0.2508 -0.4806
 6539TIP3    H141108   4.208   6.593  14.290  0.2600 -1.2571 -1.2387
 6539TIP3    H241109   4.271   6.612  14.427 -2.6011  0.9839 -0.1306
 6540TIP3   OH241110   4.576   0.837  16.732  0.2803 -0.5901 -0.6488
 6540TIP3    H141111   4.666   0.861  16.709  0.9176 -2.0638  0.1422
 6540TIP3    H241112   4.539   0.915  16.773  1.3590 -0.1065 -0.5734
 6541TIP3   OH241113   2.179   1.835   4.982 -0.1437  0.0776  0.4750
 6541TIP3    H141114   2.262   1.870   5.015  0.1541  0.8125 -0.9702
 6541TIP3    H241115   2.203   1.758   4.931 -0.5744 -0.8978  1.6876
 6542TIP3   OH241116   0.892   4.633   5.432  0.6090  0.4499 -0.7792
 6542TIP3    H141117   0.935   4.671   5.355 -0.9530  0.6370 -1.5978
 6542TIP3    H241118   0.816   4.588   5.397 -0.3510  0.8587  0.7065
 6543TIP3   OH241119   6.555   5.067  12.246  0.6680  0.4321 -0.4222
 6543TIP3    H141120   6.545   4.996  12.183 -0.1930  0.4651 -0.3392
 6543TIP3    H241121   6.547   5.147  12.194  3.2047  0.5179 -0.7663
 6544TIP3   OH241122   4.275   5.238  17.018 -0.2461 -0.3076 -0.1166
 6544TIP3    H141123   4.344   5.208  16.959  1.8932  2.7744  0.5444
 6544TIP3    H241124   4.211   5.279  16.960 -0.1612 -0.8101 -0.5750
 6545TIP3   OH241125   6.106   3.844   5.502 -0.4993 -0.3825  0.5012
 6545TIP3    H141126   6.126   3.839   5.596  2.2260  0.2742  0.0392
 6545TIP3    H241127   6.147   3.765   5.465  0.4618  0.4932 -0.3846
 6546TIP3   OH241128   1.406   3.840   1.459  0.5163  0.1161 -0.4963
 6546TIP3    H141129   1.385   3.849   1.366  1.2121 -1.4861 -0.8416
 6546TIP3    H241130   1.500   3.820   1.460  0.6493  0.7489  0.5988
 6547TIP3   OH241131   0.903   0.643  12.417 -0.0203  0.5786  0.0766
 6547TIP3    H141132   0.959   0.569  12.440 -0.1772  0.9093  1.5875
 6547TIP3    H241133   0.927   0.663  12.326  0.8799 -0.5446  0.0403
 6548TIP3   OH241134   2.624   5.915  14.280  0.0767  0.1427 -0.0911
 6548TIP3    H141135   2.656   5.998  14.245  0.1240 -0.2263 -0.9312
 6548TIP3    H241136   2.531   5.912  14.258  0.2865 -0.4672 -0.9493
 6549TIP3   OH241137   2.480   3.538   4.115  0.3811  0.6044 -0.0552
 6549TIP3    H141138   2.537   3.501   4.047  1.5728  0.2275  1.1116
 6549TIP3    H241139   2.403   3.569   4.067  0.2811 -1.4540 -1.3167
 6550TIP3   OH241140   0.656   6.546   0.697 -0.2239 -0.1466  0.4876
 6550TIP3    H141141   0.702   6.532   0.779 -3.5441 -3.6944  2.0626
 6550TIP3    H241142   0.574   6.588   0.721 -0.1232  1.3364 -1.4748
 6551TIP3   OH241143   3.560   3.900  15.420 -0.4067  0.5100  0.1396
 6551TIP3    H141144   3.468   3.897  15.446  0.3118  0.1636  3.0129
 6551TIP3    H241145   3.562   3.858  15.334 -2.6119 -1.9546  1.1419
 6552TIP3   OH241146   6.041   4.192   4.018  0.1727 -0.3051 -0.3700
 6552TIP3    H141147   6.098   4.120   4.045  0.8877  0.7459  1.0553
 6552TIP3    H241148   5.960   4.178   4.066  0.0843 -0.5076 -0.5793
 6553TIP3   OH241149   0.613   0.280  11.469 -0.2318  0.5647  0.3321
 6553TIP3    H141150   0.528   0.242  11.444 -1.4980  1.8642  2.3469
 6553TIP3    H241151   0.609   0.371  11.437 -0.6581  1.3510  2.4669
 6554TIP3   OH241152   1.018   0.854   3.589  0.6202 -0.1345  0.1264
 6554TIP3    H141153   1.094   0.815   3.545  0.4926  1.1044 -1.2766
 6554TIP3    H241154   0.995   0.791   3.657  1.3530 -1.7402 -1.0425
 6555TIP3   OH241155   5.193   4.207  12.025 -0.6491 -0.1266  0.1441
 6555TIP3    H141156   5.181   4.138  12.090  0.6066 -0.7422 -0.2600
 6555TIP3    H241157   5.248   4.272  12.068  0.8219 -0.8889 -0.5134
 6556TIP3   OH241158   2.641   1.409   0.942  0.6109  0.4553  0.2725
 6556TIP3    H141159   2.590   1.413   1.022  0.0237 -1.7361  0.0585
 6556TIP3    H241160   2.732   1.400   0.971  0.4765  0.4621  0.6885
 6557TIP3   OH241161   0.114   3.056   1.795 -0.3155  0.0942 -0.3497
 6557TIP3    H141162   0.115   2.964   1.769  0.5798 -0.0298  0.0790
 6557TIP3    H241163   0.203   3.073   1.827 -0.0986  1.4429 -1.5880
 6558TIP3   OH241164   2.970   6.623  13.984 -0.1757 -0.5301  0.0949
 6558TIP3    H141165   2.989   6.662  13.899  0.3790 -1.0116 -0.0123
 6558TIP3    H241166   3.042   6.561  13.999  0.4111  0.4217  1.4655
 6559TIP3   OH241167   2.167   2.592   4.540 -0.2016 -0.1812 -0.5912
 6559TIP3    H141168   2.241   2.652   4.544 -0.0687 -0.4282  2.1431
 6559TIP3    H241169   2.202   2.508   4.567 -1.3116 -0.4884 -0.0387
 6560TIP3   OH241170   0.121   3.143  11.585  0.4832  0.2750  0.1720
 6560TIP3    H141171   0.123   3.174  11.675  0.3825  1.3279 -0.1685
 6560TIP3    H241172   0.158   3.055  11.589  0.1431  0.1663  1.2852
 6561TIP3   OH241173   3.121   2.183   1.952  0.5749 -0.4346 -0.1842
 6561TIP3    H141174   3.208   2.222   1.949 -1.0336  3.8054  1.0841
 6561TIP3    H241175   3.102   2.159   1.861  1.9902  1.3624 -1.0181
 6562TIP3   OH241176   5.878   1.124   2.349 -0.1888 -0.9068 -0.3996
 6562TIP3    H141177   5.926   1.060   2.296  1.7376  0.8448 -0.9252
 6562TIP3    H241178   5.857   1.195   2.288  1.4799  0.8591  0.9154
 6563TIP3   OH241179   3.781   3.249  12.939  0.2833 -0.0095 -0.0530
 6563TIP3    H141180   3.858   3.301  12.964 -1.7753  1.8309  3.1881
 6563TIP3    H241181   3.784   3.173  12.996 -1.0133  0.8193  1.1542
 6564TIP3   OH241182   3.885   2.298  12.635  0.0669  0.0393  0.1949
 6564TIP3    H141183   3.963   2.245  12.619 -1.3766 -1.8087 -1.2739
 6564TIP3    H241184   3.862   2.333  12.549 -0.4222  1.0211  0.7050
 6565TIP3   OH241185   5.500   5.670   0.880 -0.1903  0.3137  0.3112
 6565TIP3    H141186   5.449   5.595   0.910 -2.8205  2.2586  1.0246
 6565TIP3    H241187   5.457   5.698   0.800  0.2145  1.5627  0.5071
 6566TIP3   OH241188   4.063   6.211   0.997 -0.3483 -0.2668  0.2588
 6566TIP3    H141189   4.098   6.298   1.014  0.2374 -0.3886 -0.2844
 6566TIP3    H241190   4.095   6.157   1.070 -0.3261 -0.1312  0.3491
 6567TIP3   OH241191   0.520   5.037  14.926  0.6537  0.1237  0.1149
 6567TIP3    H141192   0.499   5.040  14.833  1.9282  1.2131 -0.1786
 6567TIP3    H241193   0.456   5.095  14.967  1.4247  1.4069 -0.4170
 6568TIP3   OH241194   4.053   3.077   4.782 -0.0490 -0.0124  0.2440
 6568TIP3    H141195   4.095   3.130   4.715  1.2264 -0.9053  0.3058
 6568TIP3    H241196   3.981   3.033   4.737  1.0315 -0.9056 -0.6617
 6569TIP3   OH241197   4.119   3.410   2.326  0.4047 -0.5635  0.0288
 6569TIP3    H141198   4.070   3.485   2.360  0.8262 -0.0429 -0.5116
 6569TIP3    H241199   4.092   3.402   2.235  1.9387  0.2469 -0.5211
 6570TIP3   OH241200   4.791   3.799   5.238 -0.2767 -0.3585  0.2156
 6570TIP3    H141201   4.835   3.857   5.177  0.3363 -1.6879 -0.6509
 6570TIP3    H241202   4.846   3.721   5.242 -1.4259 -1.1785  0.7993
 6571TIP3   OH241203   1.464   1.897   4.621  0.0474 -0.1693 -0.2252
 6571TIP3    H141204   1.417   1.920   4.541 -0.2023  0.7188  0.1667
 6571TIP3    H241205   1.546   1.946   4.616 -1.1121  2.0885  1.3012
 6572TIP3   OH241206   0.416   5.302  11.101  0.2888 -0.9674  0.2427
 6572TIP3    H141207   0.339   5.246  11.104 -1.1863  0.9005  3.4806
 6572TIP3    H241208   0.387   5.382  11.057  0.4749 -0.4509  1.0269
 6573TIP3   OH241209   0.423   4.873  12.338 -0.3526  0.0347  0.6073
 6573TIP3    H141210   0.503   4.925  12.338 -0.8624  0.8824 -0.9414
 6573TIP3    H241211   0.360   4.925  12.387 -1.2200  1.5750 -1.9529
 6574TIP3   OH241212   3.714   4.950   2.081  0.4691  0.1376 -0.0157
 6574TIP3    H141213   3.731   4.889   2.152 -0.5428 -0.0342  0.0888
 6574TIP3    H241214   3.741   4.903   2.002  0.6694 -0.0452  0.1631
 6575TIP3   OH241215   4.367   1.472  15.253  0.3844  0.5396  0.1499
 6575TIP3    H141216   4.401   1.499  15.168  0.1176  0.3348 -0.0238
 6575TIP3    H241217   4.320   1.549  15.286 -1.8984 -0.2213 -1.1292
 6576TIP3   OH241218   1.055   1.098   3.856 -0.0978 -0.3994  0.5431
 6576TIP3    H141219   0.976   1.125   3.904  0.4987  0.3329  1.1156
 6576TIP3    H241220   1.025   1.086   3.766 -0.3953  2.1536  0.2542
 6577TIP3   OH241221   6.400   3.518   1.270  0.4428 -0.0084  0.2163
 6577TIP3    H141222   6.469   3.564   1.223  1.8103 -0.9573  1.2035
 6577TIP3    H241223   6.325   3.519   1.211  2.1485 -1.3791 -2.1099
 6578TIP3   OH241224   1.719   5.500   0.320 -0.0595  0.0377  0.1544
 6578TIP3    H141225   1.635   5.546   0.310 -0.3260 -0.3871  0.4172
 6578TIP3    H241226   1.768   5.523   0.241  0.5067  2.1674  1.0666
 6579TIP3   OH241227   5.102   3.364  11.231 -0.5826  0.5234 -0.4790
 6579TIP3    H141228   5.019   3.411  11.236 -0.3843  0.9918 -1.5161
 6579TIP3    H241229   5.162   3.416  11.286 -0.8959  0.3453  0.0333
 6580TIP3   OH241230   4.535   0.725  15.935 -0.4358  0.6037 -0.3750
 6580TIP3    H141231   4.509   0.768  16.017  3.1484 -0.3034  1.4320
 6580TIP3    H241232   4.603   0.780  15.899  1.2662 -1.2823 -0.2322
 6581TIP3   OH241233   6.153   1.822  14.257 -0.7760  0.1229  0.3881
 6581TIP3    H141234   6.113   1.796  14.340 -1.1368  0.9952  0.4928
 6581TIP3    H241235   6.189   1.909  14.273  0.4163 -0.2768  0.0352
 6582TIP3   OH241236   5.299   3.804  11.706  0.7344 -0.4363  0.5802
 6582TIP3    H141237   5.384   3.794  11.663 -0.0181  1.2527 -1.4639
 6582TIP3    H241238   5.243   3.737  11.666  0.1639  0.8274 -0.8331
 6583TIP3   OH241239   4.204   3.417   0.313 -0.0132  0.0725 -0.0809
 6583TIP3    H141240   4.132   3.356   0.330 -0.0486 -0.5597 -2.1392
 6583TIP3    H241241   4.187   3.448   0.224  1.9638  0.3486 -0.3978
 6584TIP3   OH241242   2.882   1.212   1.453  0.2038 -0.0222  0.6485
 6584TIP3    H141243   2.795   1.243   1.480 -0.0088 -0.5979  0.6323
 6584TIP3    H241244   2.897   1.134   1.506 -0.6625 -1.7810 -1.5422
 6585TIP3   OH241245   5.364   6.512  15.489 -0.1110  0.4785  0.0198
 6585TIP3    H141246   5.327   6.445  15.431  0.1037  0.5388 -0.1920
 6585TIP3    H241247   5.293   6.535  15.548 -0.0267 -0.3283  0.4463
 6586TIP3   OH241248   5.581   1.672   2.534 -0.1750  0.1081 -0.0370
 6586TIP3    H141249   5.561   1.663   2.627  0.7285  1.0892  0.2634
 6586TIP3    H241250   5.645   1.743   2.529  0.1790 -0.2688 -1.3595
 6587TIP3   OH241251   4.990   4.937   2.885  0.6065 -0.0962 -0.2405
 6587TIP3    H141252   4.985   4.861   2.828 -2.0920  0.2369 -0.5723
 6587TIP3    H241253   5.024   5.007   2.829 -2.3389  0.3219 -1.6815
 6588TIP3   OH241254   3.532   5.528   3.194  0.7747 -0.0077 -0.1540
 6588TIP3    H141255   3.587   5.511   3.118 -2.5919 -0.0894 -2.7526
 6588TIP3    H241256   3.586   5.586   3.249  2.6888  1.6874 -3.4841
 6589TIP3   OH241257   5.253   4.983  11.339  0.4280 -0.5099 -0.2319
 6589TIP3    H141258   5.265   4.948  11.251  0.4549  0.7388 -0.7404
 6589TIP3    H241259   5.203   4.915  11.385 -0.0113 -0.9674 -1.3371
 6590TIP3   OH241260   4.407   4.732   5.590 -0.0830 -0.0611 -0.2057
 6590TIP3    H141261   4.369   4.645   5.594  0.9451 -0.4895  0.6173
 6590TIP3    H241262   4.333   4.790   5.572 -0.7158 -1.1318 -1.2158
 6591TIP3   OH241263   4.425   0.357  10.322  0.1368  0.0785 -0.0863
 6591TIP3    H141264   4.496   0.398  10.372 -0.6736  0.4721  0.7590
 6591TIP3    H241265   4.380   0.431  10.281  0.8791 -0.2436 -1.5620
 6592TIP3   OH241266   4.032   0.679  13.123  0.2463  0.5114  0.2361
 6592TIP3    H141267   4.092   0.634  13.064 -0.1474  1.4824 -0.9423
 6592TIP3    H241268   4.042   0.634  13.207  1.1855 -0.5742 -0.4389
 6593TIP3   OH241269   3.966   6.499   4.261  0.6541 -0.4319 -0.3036
 6593TIP3    H141270   3.957   6.594   4.260  2.6296 -0.2194 -0.6526
 6593TIP3    H241271   4.000   6.477   4.174 -0.9211 -1.6175 -0.6843
 6594TIP3   OH241272   6.005   2.411  16.842  0.0069 -0.0815  0.2305
 6594TIP3    H141273   6.049   2.450  16.768 -0.7732 -0.0261 -0.2205
 6594TIP3    H241274   5.912   2.410  16.817 -0.1687 -0.8057  0.8617
 6595TIP3   OH241275   3.843   1.911  10.716 -0.1547  0.6361 -0.3079
 6595TIP3    H141276   3.896   1.986  10.745  1.3753 -0.4095 -0.2722
 6595TIP3    H241277   3.762   1.950  10.684  0.2326  2.2326  0.5418
 6596TIP3   OH241278   6.385   0.562  14.422  0.3911  0.3354  0.6580
 6596TIP3    H141279   6.420   0.534  14.338  0.6514 -0.1803  0.9316
 6596TIP3    H241280   6.315   0.499  14.441  0.0161  0.7370  0.6004
 6597TIP3   OH241281   1.865   0.152  14.090  0.0370 -0.0870  0.5990
 6597TIP3    H141282   1.896   0.188  14.007  0.6417  1.4331  1.4404
 6597TIP3    H241283   1.772   0.135  14.075 -0.2091  1.5574  0.0257
 6598TIP3   OH241284   0.950   5.442   5.245  0.0203  0.1287  0.2608
 6598TIP3    H141285   0.907   5.460   5.329 -0.0774  4.5173 -0.4672
 6598TIP3    H241286   1.042   5.464   5.261  0.7296 -2.3146 -0.0271
 6599TIP3   OH241287   5.617   4.125   1.742  0.5155 -0.1312 -0.0340
 6599TIP3    H141288   5.542   4.184   1.733  0.6316  0.1656  0.8234
 6599TIP3    H241289   5.600   4.055   1.680 -1.1513 -0.7669  1.0881
 6600TIP3   OH241290   5.861   3.212  11.621 -0.1249  0.7095  0.2292
 6600TIP3    H141291   5.897   3.134  11.578 -0.5621  0.3552  0.4848
 6600TIP3    H241292   5.932   3.276  11.619  0.4699  0.0879  0.5784
 6601TIP3   OH241293   5.198   1.089  13.323 -0.4760  0.3045 -0.3992
 6601TIP3    H141294   5.135   1.140  13.374 -0.1781  0.8420 -0.5697
 6601TIP3    H241295   5.272   1.075  13.383 -0.7814 -0.3999 -0.1704
 6602TIP3   OH241296   6.408   6.600   4.093 -0.1791  1.0378 -0.4527
 6602TIP3    H141297   6.399   6.676   4.035 -2.3815  1.5362  0.4492
 6602TIP3    H241298   6.340   6.539   4.063  0.9398 -0.2135 -0.5562
 6603TIP3   OH241299   1.915   4.641  13.392 -0.3134 -0.0772 -0.0044
 6603TIP3    H141300   1.831   4.611  13.428  0.2760 -0.2963  1.2342
 6603TIP3    H241301   1.898   4.730  13.363 -1.2049 -0.4300 -0.6155
 6604TIP3   OH241302   4.220   4.126  12.329 -0.4705 -0.0358 -0.2476
 6604TIP3    H141303   4.218   4.089  12.418  0.6504 -0.8177 -0.5194
 6604TIP3    H241304   4.185   4.214  12.339  1.6666  0.7177  1.4018
 6605TIP3   OH241305   1.638   5.826  13.293  0.0536 -0.2812  0.3771
 6605TIP3    H141306   1.732   5.844  13.297  0.4022 -1.8888  0.3597
 6605TIP3    H241307   1.614   5.841  13.201  0.1206  0.8323  0.5312
 6606TIP3   OH241308   3.954   2.548   5.481  0.3927 -0.0504 -0.1686
 6606TIP3    H141309   3.865   2.515   5.491  0.2759  0.0279 -0.8716
 6606TIP3    H241310   3.992   2.542   5.568 -0.4020  0.2067  0.2112
 6607TIP3   OH241311   3.547   1.432  12.405 -0.2143 -0.1614  0.6464
 6607TIP3    H141312   3.544   1.337  12.412 -1.1277 -0.1263  0.9209
 6607TIP3    H241313   3.464   1.462  12.443  0.1230  0.7543  0.7065
 6608TIP3   OH241314   6.560   0.324   1.354  0.0381 -0.2481 -0.2498
 6608TIP3    H141315   6.642   0.312   1.307  0.8193  0.0432  0.9883
 6608TIP3    H241316   6.576   0.400   1.411 -0.4734 -1.2538  1.2914
 6609TIP3   OH241317   2.691   3.348   5.951 -0.4647  0.0504  0.3463
 6609TIP3    H141318   2.702   3.439   5.923 -1.5829  0.1225  0.0602
 6609TIP3    H241319   2.596   3.334   5.950 -0.3357 -1.0076  0.7621
 6610TIP3   OH241320   1.246   5.404  15.618  0.1403 -0.4008 -0.2580
 6610TIP3    H141321   1.181   5.474  15.628  2.1318  1.6772 -0.8576
 6610TIP3    H241322   1.212   5.350  15.547 -2.0292 -0.7748  0.9945
 6611TIP3   OH241323   6.054   1.453   0.858 -0.2316 -0.0245 -0.6237
 6611TIP3    H141324   6.086   1.452   0.948  0.8859  0.0465 -1.0057
 6611TIP3    H241325   6.010   1.538   0.850  1.5913  0.9633 -0.7617
 6612TIP3   OH241326   5.013   6.530  16.571 -0.7108 -0.4328  0.3512
 6612TIP3    H141327   4.932   6.529  16.622 -0.5607 -1.1623  0.5823
 6612TIP3    H241328   5.051   6.616  16.589 -0.2230 -0.9924  2.1761
 6613TIP3   OH241329   3.017   6.398  14.314 -0.1936 -0.1026  0.2243
 6613TIP3    H141330   3.030   6.486  14.348  1.5164 -0.5249  0.7442
 6613TIP3    H241331   3.104   6.368  14.290 -0.9225 -1.1201 -1.3320
 6614TIP3   OH241332   0.688   6.835   4.863  0.9579 -0.0289  0.1989
 6614TIP3    H141333   0.700   6.825   4.958 -0.7916 -1.5638  0.3219
 6614TIP3    H241334   0.770   6.803   4.825  1.3121 -0.3149  1.1703
 6615TIP3   OH241335   6.192   0.723  17.148 -0.1784 -0.0247 -0.2774
 6615TIP3    H141336   6.179   0.785  17.220 -0.0200 -1.8554  1.4057
 6615TIP3    H241337   6.122   0.658  17.160  0.9330 -1.3390 -0.6812
 6616TIP3   OH241338   3.013   2.631   3.429  0.0814 -0.2329  0.5692
 6616TIP3    H141339   3.003   2.666   3.517  1.5649  0.9468  0.3252
 6616TIP3    H241340   3.105   2.648   3.407 -0.4284  0.1902 -1.4608
 6617TIP3   OH241341   0.552   0.581  10.780  0.4467 -0.1583  0.1125
 6617TIP3    H141342   0.603   0.532  10.716  0.3085  0.2857 -0.3348
 6617TIP3    H241343   0.617   0.616  10.841  0.5801 -0.5375  0.1907
 6618TIP3   OH241344   6.676   0.662  13.549 -0.1979  1.0085 -0.0230
 6618TIP3    H141345   6.663   0.581  13.500 -0.0828  1.1826 -0.3423
 6618TIP3    H241346   6.597   0.714  13.532 -0.2790  0.9579  0.1955
 6619TIP3   OH241347   2.321   4.239   4.757  0.1004 -0.2874  0.0173
 6619TIP3    H141348   2.386   4.301   4.725  1.3632 -0.7223  1.6074
 6619TIP3    H241349   2.272   4.212   4.679 -1.5342  3.7720 -0.6016
 6620TIP3   OH241350   3.964   6.398  13.526 -0.2616 -0.2384  0.2517
 6620TIP3    H141351   3.877   6.411  13.488 -0.2901 -0.1084  0.3595
 6620TIP3    H241352   4.007   6.335  13.468 -0.1452  0.2995 -0.2532
 6621TIP3   OH241353   6.453   4.555  11.482 -0.0296  0.0756  0.5156
 6621TIP3    H141354   6.476   4.635  11.436 -0.2774  0.7161  1.4694
 6621TIP3    H241355   6.536   4.508  11.491  0.3309  0.7722  0.9506
 6622TIP3   OH241356   0.549   2.903  13.161 -0.0206  0.0655 -0.0282
 6622TIP3    H141357   0.616   2.938  13.102  0.2934 -0.1599  0.1946
 6622TIP3    H241358   0.478   2.876  13.102  1.1967 -2.2605 -0.5318
 6623TIP3   OH241359   3.682   3.815   2.442  0.1216 -0.0642  0.4126
 6623TIP3    H141360   3.622   3.778   2.377 -0.2124  0.7067  0.2708
 6623TIP3    H241361   3.627   3.874   2.494  0.8032  0.7967  0.1605
 6624TIP3   OH241362   5.963   5.088   1.671 -0.3348  0.3504  0.4092
 6624TIP3    H141363   5.922   5.046   1.747  1.7327 -0.6536  1.0209
 6624TIP3    H241364   6.055   5.063   1.676 -0.0066  0.8503 -2.0566
 6625TIP3   OH241365   1.558   3.778   3.324 -0.0254  0.1919 -0.2821
 6625TIP3    H141366   1.543   3.790   3.418  0.3991  1.0195 -0.3131
 6625TIP3    H241367   1.526   3.858   3.284 -1.4469 -0.6972 -0.9950
 6626TIP3   OH241368   0.704   0.721  16.844  0.3790  0.3590  0.1361
 6626TIP3    H141369   0.795   0.750  16.837  0.8060 -0.9189  0.0784
 6626TIP3    H241370   0.710   0.626  16.851 -0.8793  0.3608  1.7022
 6627TIP3   OH241371   4.705   2.503   3.916 -0.3481 -0.2459 -0.1659
 6627TIP3    H141372   4.641   2.513   3.846 -0.8183  1.3275  0.4399
 6627TIP3    H241373   4.787   2.538   3.879 -0.4866  0.1669 -0.0879
 6628TIP3   OH241374   3.330   5.459  10.859  0.0306 -0.2309 -0.2351
 6628TIP3    H141375   3.383   5.445  10.780 -0.7018 -0.5380 -0.6877
 6628TIP3    H241376   3.271   5.531  10.835 -0.1453 -0.2767  0.0568
 6629TIP3   OH241377   3.033   4.851   6.104  0.0900  0.1946 -0.2541
 6629TIP3    H141378   2.945   4.887   6.120  0.7135  1.0805  1.3914
 6629TIP3    H241379   3.069   4.838   6.191  1.4853 -0.4705 -0.9121
 6630TIP3   OH241380   1.397   6.668  15.107  0.3227  0.0897 -0.2688
 6630TIP3    H141381   1.411   6.622  15.024  2.4472  1.9769 -1.0825
 6630TIP3    H241382   1.469   6.639  15.162  1.1328  1.6358 -0.4667
 6631TIP3   OH241383   2.275   3.118   4.968  0.1404  0.5365 -0.0736
 6631TIP3    H141384   2.329   3.058   5.019 -3.0707 -2.1498  0.5990
 6631TIP3    H241385   2.286   3.089   4.877 -1.6079 -1.4939  0.2735
 6632TIP3   OH241386   6.586   0.442  10.275 -0.1825 -0.0414  0.7495
 6632TIP3    H141387   6.594   0.346  10.270 -1.1877 -0.1606  1.1212
 6632TIP3    H241388   6.668   0.471  10.316  0.1098 -0.7474  0.6833
 6633TIP3   OH241389   1.579   4.668   0.259 -0.2239 -0.5759 -0.2390
 6633TIP3    H141390   1.567   4.733   0.190 -1.9153  1.0402  1.4490
 6633TIP3    H241391   1.549   4.586   0.220  0.0954  0.0078 -1.8077
 6634TIP3   OH241392   0.836   4.186   0.777 -0.5857  0.1036  0.4382
 6634TIP3    H141393   0.898   4.259   0.770 -0.4724 -0.0870 -0.9345
 6634TIP3    H241394   0.762   4.222   0.826 -0.1444  0.8630  0.5668
 6635TIP3   OH241395   4.978   4.758  13.830  0.1959  0.3839  0.0228
 6635TIP3    H141396   4.967   4.845  13.869 -0.7818  0.7100 -0.9438
 6635TIP3    H241397   5.058   4.764  13.778  1.0001  0.2153  1.1754
 6636TIP3   OH241398   2.996   5.312  15.015 -0.2942 -0.0855  0.4266
 6636TIP3    H141399   2.951   5.312  14.930 -0.1249 -1.4611  0.3158
 6636TIP3    H241400   2.998   5.404  15.040 -0.0990  0.3972 -1.2018
 6637TIP3   OH241401   5.703   1.219   5.402  0.0930 -0.4682  0.5069
 6637TIP3    H141402   5.792   1.237   5.431  1.0283  0.5427 -2.6647
 6637TIP3    H241403   5.652   1.292   5.437  1.3986  1.3857 -1.2751
 6638TIP3   OH241404   6.032   1.041   3.105  0.1644 -1.1376 -0.5363
 6638TIP3    H141405   6.017   1.004   3.192 -0.7893 -1.4224 -0.8036
 6638TIP3    H241406   5.965   1.000   3.050  0.1398 -0.2444 -1.1949
 6639TIP3   OH241407   1.504   0.658  11.958  0.1018 -0.0144 -0.1302
 6639TIP3    H141408   1.544   0.673  12.043  0.5131 -0.3400 -0.2641
 6639TIP3    H241409   1.578   0.644  11.899 -0.2061 -2.6902 -0.0009
 6640TIP3   OH241410   6.286   0.059  16.377  0.1920  0.3288  0.1432
 6640TIP3    H141411   6.359   0.014  16.334 -0.0564  0.0536  0.0036
 6640TIP3    H241412   6.233  -0.011  16.414  0.0543  0.5346  0.3365
 6641TIP3   OH241413   0.772   2.723  11.169  1.0711  0.4802  0.5727
 6641TIP3    H141414   0.819   2.643  11.146 -0.3884  0.2067 -1.7753
 6641TIP3    H241415   0.684   2.693  11.194 -0.1560  1.3618 -2.3126
 6642TIP3   OH241416   4.679   5.139   0.801 -0.1831 -0.6472  0.2876
 6642TIP3    H141417   4.767   5.147   0.840  0.0051  2.4772 -0.5368
 6642TIP3    H241418   4.630   5.212   0.839 -1.1500  0.1451 -2.3209
 6643TIP3   OH241419   3.164   4.077   0.510 -0.3971  0.0762 -0.4868
 6643TIP3    H141420   3.198   4.114   0.429 -1.5603 -2.6325 -2.3360
 6643TIP3    H241421   3.189   3.985   0.507  2.0315  0.3251  3.7107
 6644TIP3   OH241422   4.414   1.420  16.176 -0.0476  0.0205 -0.0514
 6644TIP3    H141423   4.345   1.471  16.219  0.9517  1.6438 -0.3173
 6644TIP3    H241424   4.410   1.447  16.084  0.3077 -0.6205 -0.2586
 6645TIP3   OH241425   1.977   5.085   1.189  0.2541  0.3549  0.1151
 6645TIP3    H141426   2.066   5.096   1.221  0.2022 -0.7780  0.6912
 6645TIP3    H241427   1.966   5.154   1.123  1.1349  1.2708  0.9040
 6646TIP3   OH241428   5.633   2.877  16.252  0.4663 -0.2081 -0.3620
 6646TIP3    H141429   5.682   2.855  16.331  1.0421  0.2570 -0.5894
 6646TIP3    H241430   5.541   2.865  16.277  0.6180  0.3463  0.5129
 6647TIP3   OH241431   0.251   0.945   5.738 -0.1448  0.5405  0.2795
 6647TIP3    H141432   0.274   0.907   5.823 -1.5186  1.3386  1.0403
 6647TIP3    H241433   0.157   0.964   5.744 -0.3587  0.2559 -1.5662
 6648TIP3   OH241434   3.660   3.870  14.815  0.0321  0.0018  0.0275
 6648TIP3    H141435   3.665   3.783  14.853 -2.4079 -1.0444 -1.8136
 6648TIP3    H241436   3.709   3.863  14.732  0.9702  0.8076  0.4882
 6649TIP3   OH241437   2.685   2.621  14.841 -0.4467 -0.0839  0.2417
 6649TIP3    H141438   2.626   2.549  14.818  0.4433 -0.9545  0.6123
 6649TIP3    H241439   2.722   2.595  14.925  0.3980  0.4902  0.0586
 6650TIP3   OH241440   2.225   3.873   2.829  0.0530  0.1752 -0.0984
 6650TIP3    H141441   2.318   3.861   2.844  0.0392 -0.6177 -0.6211
 6650TIP3    H241442   2.190   3.785   2.815 -1.2555  0.1299  2.6449
 6651TIP3   OH241443   1.160   5.301   4.422 -0.3328 -0.3088 -0.2849
 6651TIP3    H141444   1.126   5.212   4.428  2.4366 -1.5809 -1.8526
 6651TIP3    H241445   1.203   5.305   4.336 -1.5722  3.0503 -0.9315
 6652TIP3   OH241446   1.391   3.278  16.637 -0.3709 -0.2112  0.0041
 6652TIP3    H141447   1.350   3.321  16.712  1.3835  0.9875  0.3417
 6652TIP3    H241448   1.392   3.185  16.659  1.4490  0.2423  2.2237
 6653TIP3   OH241449   1.150   3.320   4.427  0.2506 -0.3151 -0.3590
 6653TIP3    H141450   1.085   3.366   4.480  1.3057 -2.0231  2.6707
 6653TIP3    H241451   1.215   3.387   4.406  0.3807  0.2488  1.6060
 6654TIP3   OH241452   0.621   3.025  14.588  0.3584  0.1840 -0.0784
 6654TIP3    H141453   0.581   2.953  14.539 -1.9313  0.8139  0.7427
 6654TIP3    H241454   0.706   2.990  14.616  0.9815 -0.8275 -2.8699
 6655TIP3   OH241455   0.820   6.309   2.150  0.0814 -0.3016 -0.0532
 6655TIP3    H141456   0.905   6.273   2.175  0.6755  0.3241 -1.0833
 6655TIP3    H241457   0.761   6.284   2.221  0.9763 -1.3018  0.3654
 6656TIP3   OH241458   3.150   5.732   7.048  0.1932  0.0685 -0.2195
 6656TIP3    H141459   3.192   5.777   6.975  3.5304  1.2681  2.2106
 6656TIP3    H241460   3.195   5.648   7.053  0.8481  0.4879  1.1489
 6657TIP3   OH241461   1.493   2.541  12.977 -0.1020  0.7242  0.2911
 6657TIP3    H141462   1.542   2.523  13.058  1.5854 -0.2535 -0.8801
 6657TIP3    H241463   1.420   2.479  12.979  1.5137 -1.3000 -0.1959
 6658TIP3   OH241464   6.239   2.121   1.611 -0.3585 -0.4552  0.1669
 6658TIP3    H141465   6.177   2.103   1.541 -0.5268 -1.2188  0.4996
 6658TIP3    H241466   6.319   2.148   1.566 -0.8618  0.3550 -0.2696
 6659TIP3   OH241467   5.431   0.508  13.644  0.2249 -0.4351 -0.1440
 6659TIP3    H141468   5.509   0.466  13.607 -0.4441 -1.2526 -0.6342
 6659TIP3    H241469   5.433   0.597  13.608 -0.5320 -1.2675 -2.3778
 6660TIP3   OH241470   6.428   4.583  13.781 -0.2510  0.2323  0.4305
 6660TIP3    H141471   6.368   4.512  13.804 -0.7291  0.9398  1.4606
 6660TIP3    H241472   6.514   4.551  13.805 -0.1859 -0.7787 -1.0180
 6661TIP3   OH241473   5.403   0.292   3.933 -0.3706  0.9777 -0.2467
 6661TIP3    H141474   5.407   0.361   4.000 -0.8427  0.9556 -0.1959
 6661TIP3    H241475   5.390   0.211   3.982  1.2580  0.6898 -0.2194
 6662TIP3   OH241476   3.625   4.732   3.157  0.3159 -0.1992  0.2620
 6662TIP3    H141477   3.672   4.727   3.240 -0.4310  0.1049  0.7223
 6662TIP3    H241478   3.640   4.821   3.125  1.2135 -0.5467 -0.3135
 6663TIP3   OH241479   1.827   0.832   4.527  0.0044 -0.5202 -0.1413
 6663TIP3    H141480   1.746   0.853   4.573  0.4901 -0.0866  0.5275
 6663TIP3    H241481   1.885   0.906   4.543  0.7505 -1.0896 -0.1176
 6664TIP3   OH241482   1.630   3.596   4.392  0.5101 -0.2169 -0.3328
 6664TIP3    H141483   1.710   3.571   4.346  1.1866 -0.3340  0.8558
 6664TIP3    H241484   1.586   3.658   4.333  1.0986 -0.7198 -1.3200
 6665TIP3   OH241485   5.257   0.228   0.167 -0.1649 -0.2067 -0.0305
 6665TIP3    H141486   5.205   0.152   0.144  1.2007 -0.8421 -1.1114
 6665TIP3    H241487   5.251   0.286   0.091 -0.6185  0.4625  0.5007
 6666TIP3   OH241488   4.297   5.967  13.579  0.5553 -0.2362  0.6913
 6666TIP3    H141489   4.384   5.927  13.577 -0.3332 -2.4533 -3.2636
 6666TIP3    H241490   4.240   5.901  13.619 -0.0232 -0.8040 -0.9943
 6667TIP3   OH241491   3.565   5.011  11.829 -0.6528  0.3034  0.4263
 6667TIP3    H141492   3.643   5.055  11.797  0.2548 -0.5882  1.3298
 6667TIP3    H241493   3.527   5.071  11.892  0.4920 -0.1129  1.5443
 6668TIP3   OH241494   3.972   0.414  11.479 -0.5354  0.1181  0.1605
 6668TIP3    H141495   4.044   0.353  11.497  0.5210  0.6052 -2.1166
 6668TIP3    H241496   4.010   0.501  11.489 -1.2192  0.4051  0.3611
 6669TIP3   OH241497   5.186   1.428   5.807 -0.1392  0.0734  0.4145
 6669TIP3    H141498   5.090   1.434   5.809 -0.1590 -0.3626  0.9708
 6669TIP3    H241499   5.203   1.340   5.774  0.0826  0.4853 -0.5985
 6670TIP3   OH241500   5.207   4.621   3.622 -0.0550 -0.4526 -0.0723
 6670TIP3    H141501   5.169   4.584   3.702 -2.4738  2.2225  0.1701
 6670TIP3    H241502   5.132   4.653   3.572  1.6328  0.9218 -1.8733
 6671TIP3   OH241503   5.658   5.235   4.950  0.1951 -0.2905 -0.2745
 6671TIP3    H141504   5.617   5.227   5.036 -1.0267 -0.4724 -0.8421
 6671TIP3    H241505   5.692   5.147   4.931  2.3956  0.2468  0.9027
 6672TIP3   OH241506   5.693   6.813   1.137 -0.2207  0.0894  0.0703
 6672TIP3    H141507   5.771   6.766   1.107  0.8854  0.1660  2.5525
 6672TIP3    H241508   5.668   6.868   1.063  3.4108  1.6481 -0.2030
 6673TIP3   OH241509   4.321   3.686   0.508  0.3887 -0.3849  0.4614
 6673TIP3    H141510   4.230   3.660   0.493 -0.6476  2.4654  1.1052
 6673TIP3    H241511   4.373   3.615   0.471 -2.0690 -2.7726  1.2345
 6674TIP3   OH241512   6.217   1.707   2.787  0.4486 -0.2001 -0.5749
 6674TIP3    H141513   6.275   1.714   2.863 -1.0978 -1.1072  0.7583
 6674TIP3    H241514   6.157   1.781   2.796  0.5812 -0.0173 -1.2011
 6675TIP3   OH241515   6.159   1.691  12.433  0.0728 -0.2746 -0.4632
 6675TIP3    H141516   6.136   1.600  12.418 -1.7915  0.0252  0.2944
 6675TIP3    H241517   6.131   1.709  12.523  0.5520  1.0130 -0.5409
 6676TIP3   OH241518   4.624   2.006   1.242 -0.1589  0.4410  0.8390
 6676TIP3    H141519   4.570   2.010   1.320 -0.4806 -3.4774  0.9821
 6676TIP3    H241520   4.700   1.954   1.268  0.3549  0.1360 -1.1062
 6677TIP3   OH241521   2.535   4.362  14.660 -0.3594 -0.0965  0.7135
 6677TIP3    H141522   2.520   4.432  14.596  0.1155 -0.4019  0.2495
 6677TIP3    H241523   2.509   4.282  14.614  0.7608 -0.4108  0.5884
 6678TIP3   OH241524   1.596   1.959  12.594 -0.0029  0.3075 -0.1611
 6678TIP3    H141525   1.649   1.879  12.590  0.6473  0.6398  1.1806
 6678TIP3    H241526   1.613   1.994  12.681 -1.9546  0.7838  0.0649
 6679TIP3   OH241527   6.634   2.966   2.170  0.1973 -0.4649 -0.6230
 6679TIP3    H141528   6.655   3.054   2.139  2.9101 -1.2844 -1.3850
 6679TIP3    H241529   6.614   2.917   2.090  2.8617 -1.5019 -0.7404
 6680TIP3   OH241530   1.104   3.127   6.368 -0.2145 -0.2171  0.6043
 6680TIP3    H141531   1.192   3.156   6.391  0.4758 -1.4029 -0.4413
 6680TIP3    H241532   1.076   3.186   6.298  1.1439 -1.8838 -1.4469
 6681TIP3   OH241533   4.163   0.912   0.519 -0.3791 -0.2072 -0.7804
 6681TIP3    H141534   4.202   0.998   0.501 -1.1693  0.3478  0.0690
 6681TIP3    H241535   4.227   0.850   0.487  1.4056  0.6550  0.9015
 6682TIP3   OH241536   3.379   4.820  12.725  0.0047  0.1221  0.2442
 6682TIP3    H141537   3.304   4.774  12.687 -0.1749  0.1487  0.5649
 6682TIP3    H241538   3.447   4.753  12.730 -0.0890  0.0237  0.2187
 6683TIP3   OH241539   0.482   3.278   3.182  0.4639 -0.2716  0.1149
 6683TIP3    H141540   0.434   3.212   3.131 -0.7593  0.1033  0.7433
 6683TIP3    H241541   0.417   3.312   3.243  0.8421  2.0749 -0.7078
 6684TIP3   OH241542   6.092   0.974   0.842  0.2252  0.1497 -0.3965
 6684TIP3    H141543   6.053   1.053   0.805 -0.2132  0.1691  0.0844
 6684TIP3    H241544   6.182   0.973   0.809  0.0988  0.6061 -0.7666
 6685TIP3   OH241545   5.800   1.139  13.798 -0.3629  0.5042  0.5426
 6685TIP3    H141546   5.854   1.092  13.862  0.4719 -1.3697 -1.4077
 6685TIP3    H241547   5.710   1.116  13.821 -0.0250 -1.1434  0.3815
 6686TIP3   OH241548   3.180   0.241  11.559  0.1275 -0.5519  0.5732
 6686TIP3    H141549   3.100   0.255  11.508 -0.4592  0.3773  1.6845
 6686TIP3    H241550   3.158   0.169  11.618 -0.4047  0.5623  1.8003
 6687TIP3   OH241551   5.196   2.632   3.581  0.2194 -0.0298 -0.2882
 6687TIP3    H141552   5.242   2.579   3.646 -0.7193 -0.0814  0.3548
 6687TIP3    H241553   5.259   2.701   3.558  0.5620  0.0229  0.7255
 6688TIP3   OH241554   6.145   3.961   1.673 -0.4665  0.1413  0.4376
 6688TIP3    H141555   6.100   4.037   1.635  0.8588  1.2643  1.0075
 6688TIP3    H241556   6.227   3.955   1.623  0.3335  0.3184  1.6930
 6689TIP3   OH241557   1.132   5.031   4.453  0.4656 -0.1692 -0.0084
 6689TIP3    H141558   1.049   4.982   4.453 -0.0195  0.5999  0.6948
 6689TIP3    H241559   1.148   5.048   4.546  2.3670 -1.8299  0.0173
 6690TIP3   OH241560   3.947   3.268   0.794  0.3980  0.1830  0.0973
 6690TIP3    H141561   3.976   3.308   0.876 -1.0765  0.9979  0.2510
 6690TIP3    H241562   3.908   3.185   0.820 -0.7141  0.7590  0.3345
 6691TIP3   OH241563   6.015   3.129  15.093 -0.1151 -0.7594 -0.0725
 6691TIP3    H141564   5.921   3.148  15.090 -0.8194 -3.8011 -0.1546
 6691TIP3    H241565   6.035   3.122  15.186  0.0355 -0.2104 -0.0590
 6692TIP3   OH241566   6.365   0.920  14.310 -0.8120  0.4850  0.2985
 6692TIP3    H141567   6.443   0.884  14.354 -0.1771  2.9940  1.3935
 6692TIP3    H241568   6.400   0.978  14.242 -1.7723  0.3928 -0.2963
 6693TIP3   OH241569   0.041   0.991   0.693 -0.5788 -0.0754  0.1493
 6693TIP3    H141570   0.095   1.044   0.753 -1.5467  0.6123  0.4458
 6693TIP3    H241571   0.017   0.914   0.745 -0.1734 -0.2147  0.1336
 6694TIP3   OH241572   4.787   1.476  12.830  1.0500  0.5193  0.5416
 6694TIP3    H141573   4.774   1.548  12.892  1.8401  1.8448 -0.7459
 6694TIP3    H241574   4.798   1.520  12.746  0.6067 -1.1903 -0.4487
 6695TIP3   OH241575   0.257   4.424   0.845 -0.1135  0.2850  0.2434
 6695TIP3    H141576   0.200   4.480   0.792 -0.2091 -1.1465 -1.2455
 6695TIP3    H241577   0.198   4.384   0.909 -0.0647  1.7403  1.2380
 6696TIP3   OH241578   1.136   6.022  10.401 -0.2746 -0.1103 -0.0875
 6696TIP3    H141579   1.132   5.956  10.332  1.7845  0.6294 -0.9949
 6696TIP3    H241580   1.080   6.093  10.370  1.5043  0.7046 -1.6383
 6697TIP3   OH241581   2.750   5.962  15.470 -0.1854  0.1429  0.0383
 6697TIP3    H141582   2.733   5.963  15.376  3.0466 -2.2607 -0.7449
 6697TIP3    H241583   2.695   5.892  15.505  0.3727 -0.5884 -0.5315
 6698TIP3   OH241584   2.613   3.998   2.328  0.8626 -0.1620 -0.4250
 6698TIP3    H141585   2.596   4.092   2.323 -0.1379 -0.3423 -0.5738
 6698TIP3    H241586   2.560   3.960   2.259  1.8095 -0.7814 -0.8290
 6699TIP3   OH241587   4.696   1.679   2.207 -0.0213  0.7556 -0.7354
 6699TIP3    H141588   4.751   1.622   2.260 -3.2052 -1.4683  0.4672
 6699TIP3    H241589   4.703   1.644   2.118 -0.8816 -0.7028 -0.2535
 6700TIP3   OH241590   4.261   0.976   2.166  0.1860  0.3025  0.3405
 6700TIP3    H141591   4.176   0.932   2.175  0.0548  0.4415 -0.1484
 6700TIP3    H241592   4.241   1.057   2.119  0.5993  0.2911  0.1356
 6701TIP3   OH241593   1.086   4.750   3.589  0.0271  0.1846  0.1545
 6701TIP3    H141594   1.030   4.811   3.542 -1.4533 -2.7350 -2.1758
 6701TIP3    H241595   1.038   4.730   3.670 -1.2704 -0.5865 -0.7762
 6702TIP3   OH241596   1.922   6.396  14.205 -0.7339  0.1855 -0.4642
 6702TIP3    H141597   1.914   6.323  14.267 -1.7007  1.4259  0.9454
 6702TIP3    H241598   1.831   6.417  14.182 -0.7795  3.0459  1.7841
 6703TIP3   OH241599   3.157   5.343   0.385 -0.2047  0.3751 -0.5300
 6703TIP3    H141600   3.239   5.297   0.400 -0.9641 -0.2232  2.3922
 6703TIP3    H241601   3.107   5.286   0.327  0.4626 -0.4620 -0.2974
 6704TIP3   OH241602   5.467   1.017   0.415 -0.3817 -0.4314 -0.7078
 6704TIP3    H141603   5.439   0.938   0.461  1.3140 -1.0963 -0.7356
 6704TIP3    H241604   5.481   0.988   0.325 -1.0531  0.2301 -1.0293
 6705TIP3   OH241605   6.694   1.002  12.576  0.1212  0.2659 -0.0559
 6705TIP3    H141606   6.677   1.096  12.579 -0.4261  0.1483  1.4796
 6705TIP3    H241607   6.612   0.962  12.605  0.1756 -0.7098 -1.1980
 6706TIP3   OH241608   1.244   3.262   5.946 -0.1578  0.1148  0.5888
 6706TIP3    H141609   1.246   3.323   6.020 -3.3441  0.6350  0.3791
 6706TIP3    H241610   1.205   3.182   5.982 -1.2805  0.2046 -0.3767
 6707TIP3   OH241611   1.672   4.382  13.271  0.0491 -0.3197  0.8803
 6707TIP3    H141612   1.664   4.352  13.362  0.8359  0.8492  1.3594
 6707TIP3    H241613   1.604   4.449  13.263 -0.6677 -1.1079  0.2980
 6708TIP3   OH241614   4.234   6.077  13.165 -0.3959 -0.6778  0.1210
 6708TIP3    H141615   4.197   5.990  13.151  2.1059 -1.7263 -0.4568
 6708TIP3    H241616   4.311   6.081  13.108  0.7676  1.1056  1.6601
 6709TIP3   OH241617   4.142   4.016   5.925 -0.1712 -0.4447  0.4609
 6709TIP3    H141618   4.111   3.933   5.963 -0.2298  0.7271  3.2105
 6709TIP3    H241619   4.231   4.027   5.960 -0.4217  0.9541  0.7268
 6710TIP3   OH241620   3.418   1.423   6.658  0.1091 -0.2795  0.0742
 6710TIP3    H141621   3.501   1.463   6.682 -0.7306  0.3746  2.0564
 6710TIP3    H241622   3.440   1.331   6.639  1.1261 -0.4277  1.8101
 6711TIP3   OH241623   0.654   2.729  14.827 -0.1583 -0.0250  0.1004
 6711TIP3    H141624   0.733   2.772  14.795 -0.1530  1.1740  1.6025
 6711TIP3    H241625   0.685   2.649  14.869  0.1316 -0.0825 -0.2184
 6712TIP3   OH241626   2.226   1.402   0.418 -0.8937 -0.0230  0.4839
 6712TIP3    H141627   2.242   1.448   0.500  1.0967 -0.5828  0.4812
 6712TIP3    H241628   2.211   1.311   0.444  1.4403 -0.5504  0.2117
 6713TIP3   OH241629   3.397   6.106   4.959  0.1680  0.4480 -0.1507
 6713TIP3    H141630   3.416   6.200   4.950 -0.8970  0.7230  0.3718
 6713TIP3    H241631   3.355   6.082   4.877  3.1053 -0.3060 -1.5812
 6714TIP3   OH241632   4.361   6.625   1.965  0.6795  0.3399 -0.1198
 6714TIP3    H141633   4.429   6.596   2.026 -0.7855  0.2360  1.5732
 6714TIP3    H241634   4.293   6.558   1.972 -0.4205  1.3946 -0.2742
 6715TIP3   OH241635   1.800   2.544  10.749 -0.3654  0.1052  0.1319
 6715TIP3    H141636   1.807   2.459  10.791  2.0001  0.1415 -0.0680
 6715TIP3    H241637   1.825   2.607  10.816  2.0072  0.2719 -0.8108
 6716TIP3   OH241638   2.612   2.945   3.082 -0.0143  0.2985  0.5906
 6716TIP3    H141639   2.660   2.972   3.161 -1.7000  0.5497  1.5657
 6716TIP3    H241640   2.677   2.897   3.031  2.1178  3.0670  0.4494
 6717TIP3   OH241641   3.964   0.380   4.099  0.4419 -0.0349  0.2987
 6717TIP3    H141642   3.878   0.414   4.124  0.6749  0.1576  0.8490
 6717TIP3    H241643   4.004   0.352   4.182  1.4242  1.0655  0.2215
 6718TIP3   OH241644   6.682   2.162   1.609  0.7119  0.0614  0.0725
 6718TIP3    H141645   6.706   2.229   1.673  1.3551 -0.9429  0.9275
 6718TIP3    H241646   6.748   2.093   1.620 -1.5641 -2.0954  1.3436
 6719TIP3   OH241647   6.343   4.854  11.792 -0.3868  0.4604 -0.5382
 6719TIP3    H141648   6.281   4.909  11.840 -1.4198  0.2129 -1.5426
 6719TIP3    H241649   6.359   4.779  11.850 -0.6304  0.7807 -0.0569
 6720TIP3   OH241650   2.655   1.633  16.256  0.0971 -0.7933  0.0579
 6720TIP3    H141651   2.651   1.579  16.177  1.0047 -2.8686  1.3280
 6720TIP3    H241652   2.747   1.662  16.260 -0.3177  0.6716 -0.4609
 6721TIP3   OH241653   6.146   3.034  10.859  0.3158 -0.3983  0.0045
 6721TIP3    H141654   6.161   3.069  10.947  0.4819 -1.0670  0.2403
 6721TIP3    H241655   6.184   3.100  10.800 -0.8750  0.6717  0.3619
 6722TIP3   OH241656   2.840   5.899   6.185  0.4610 -0.0214  0.0091
 6722TIP3    H141657   2.878   5.974   6.140 -0.7962  1.7007  1.6337
 6722TIP3    H241658   2.745   5.910   6.174  0.2257 -2.9352 -2.0278
 6723TIP3   OH241659   5.203   5.410   0.992  0.5512 -0.1080  0.4226
 6723TIP3    H141660   5.120   5.452   1.013  0.6863 -0.1366  1.0368
 6723TIP3    H241661   5.193   5.320   1.025  0.0887 -0.7352 -1.2761
 6724TIP3   OH241662   5.329   6.477  16.192 -0.2353  0.0457  0.6599
 6724TIP3    H141663   5.360   6.561  16.226 -1.0137  0.3940  0.5218
 6724TIP3    H241664   5.344   6.483  16.097 -3.1690  1.3221  0.1917
 6725TIP3   OH241665   3.691   5.911   4.457  0.5877 -0.1669 -0.2653
 6725TIP3    H141666   3.666   5.987   4.510 -0.6664 -0.3509 -0.5497
 6725TIP3    H241667   3.611   5.889   4.408  0.5727 -2.3502  0.6390
 6726TIP3   OH241668   5.567   4.626   5.397  0.0377  0.2270  0.0355
 6726TIP3    H141669   5.662   4.634   5.390  0.4786 -0.8665  3.2621
 6726TIP3    H241670   5.553   4.537   5.429 -2.0262  0.6514  0.4189
 6727TIP3   OH241671   4.451   2.257  13.495  0.0486  0.8089  0.2158
 6727TIP3    H141672   4.425   2.191  13.559  0.9542 -0.0632 -0.2796
 6727TIP3    H241673   4.462   2.337  13.545  1.4865 -0.0288  1.3150
 6728TIP3   OH241674   0.827   5.044  14.797 -0.2598  0.0814  0.1145
 6728TIP3    H141675   0.896   5.081  14.851 -0.4205  0.5004  0.0414
 6728TIP3    H241676   0.772   4.995  14.859  0.5170 -0.8956  0.0542
 6729TIP3   OH241677   2.632   6.701  12.880 -0.0876 -0.0241 -0.3166
 6729TIP3    H141678   2.547   6.683  12.839  0.0256  0.0211 -0.5762
 6729TIP3    H241679   2.668   6.774  12.830  0.4918 -0.6117 -0.7812
 6730TIP3   OH241680   3.376   5.667   1.640  0.2736 -0.0174  0.7170
 6730TIP3    H141681   3.467   5.643   1.622  0.4565  0.6842  0.6937
 6730TIP3    H241682   3.373   5.681   1.735 -0.1103 -1.2693  0.9062
 6731TIP3   OH241683   6.524   0.304   1.943 -0.0095  0.2732 -0.1663
 6731TIP3    H141684   6.540   0.285   1.850 -1.0893  0.6521 -0.4490
 6731TIP3    H241685   6.429   0.298   1.952  0.1632 -1.1901  1.2502
 6732TIP3   OH241686   4.506   1.245  14.184 -0.1744 -0.3127 -0.7576
 6732TIP3    H141687   4.523   1.285  14.099  0.9435 -0.1400 -0.4702
 6732TIP3    H241688   4.456   1.311  14.232 -0.3700 -0.2068 -1.1033
 6733TIP3   OH241689   6.389   3.833   3.765  0.0632 -0.2832 -0.3897
 6733TIP3    H141690   6.333   3.841   3.687  2.8538 -1.0470 -2.6415
 6733TIP3    H241691   6.386   3.740   3.788  1.7857 -0.7429 -1.7635
 6734TIP3   OH241692   1.469   0.415  13.641 -0.5379  1.1474 -0.1673
 6734TIP3    H141693   1.391   0.416  13.696  0.4351  2.2944  1.2687
 6734TIP3    H241694   1.462   0.333  13.592 -0.9213 -0.5759  2.5184
 6735TIP3   OH241695   6.558   2.081  15.461  0.5019  0.6008 -0.2026
 6735TIP3    H141696   6.555   2.170  15.494  1.5852  0.4275  0.4088
 6735TIP3    H241697   6.468   2.050  15.466  0.4881  0.8867  1.7717
 6736TIP3   OH241698   2.969   5.293  13.173  0.3775  0.1676 -0.0941
 6736TIP3    H141699   2.882   5.282  13.212  0.0644  0.0385 -0.8157
 6736TIP3    H241700   2.967   5.237  13.095  1.2805 -0.2221  0.1577
 6737TIP3   OH241701   3.007   3.086   4.388 -0.4343  0.4441 -0.3321
 6737TIP3    H141702   3.013   3.019   4.320  2.5183 -0.2616  0.4656
 6737TIP3    H241703   3.034   3.167   4.345 -0.6525  0.4323 -0.4919
 6738TIP3   OH241704   3.203   1.355   3.128  0.1054 -0.0447  0.3987
 6738TIP3    H141705   3.121   1.406   3.132  0.7250  0.8913  1.7865
 6738TIP3    H241706   3.187   1.279   3.184 -0.7260 -1.3143 -1.4652
 6739TIP3   OH241707   5.351   6.619  10.608  0.2390  0.7848 -0.2006
 6739TIP3    H141708   5.434   6.573  10.620  0.7456  1.8776  0.7138
 6739TIP3    H241709   5.365   6.705  10.649 -2.0371  0.2471  1.9456
 6740TIP3   OH241710   3.592   5.316   2.773  0.3745  0.1196  0.0160
 6740TIP3    H141711   3.504   5.348   2.791 -0.0404 -0.5078 -0.8278
 6740TIP3    H241712   3.605   5.245   2.835  0.4913  0.5542  0.4913
 6741TIP3   OH241713   0.914   5.363  15.842  0.4871  0.2646 -0.2983
 6741TIP3    H141714   0.994   5.413  15.826  1.0327 -0.9738 -1.7125
 6741TIP3    H241715   0.939   5.299  15.909  0.5114  0.2416 -0.3295
 6742TIP3   OH241716   1.978   0.005  16.898  0.0484  0.4688  0.3757
 6742TIP3    H141717   1.917  -0.065  16.875 -0.1776  0.3069  1.3902
 6742TIP3    H241718   1.953   0.030  16.987  0.0160  1.9653 -0.0207
 6743TIP3   OH241719   4.632   1.991   2.240  0.7624  0.2069  0.5139
 6743TIP3    H141720   4.697   1.920   2.238 -0.5424 -1.1391  2.1271
 6743TIP3    H241721   4.602   1.999   2.149  1.3520 -0.9300  0.1965
 6744TIP3   OH241722   5.410   3.986   0.495  0.3512  0.0853  0.4298
 6744TIP3    H141723   5.472   4.059   0.498  0.9719 -0.4614  1.6565
 6744TIP3    H241724   5.441   3.931   0.424 -0.1424  1.0107 -0.5288
 6745TIP3   OH241725   4.333   3.807  16.994  0.0030 -0.3066 -0.2540
 6745TIP3    H141726   4.394   3.844  16.930  0.9780 -2.2525 -0.5425
 6745TIP3    H241727   4.285   3.882  17.028  1.5815  1.1426 -1.0580
 6746TIP3   OH241728   1.703   2.472  16.051  0.1267 -0.0530 -0.2840
 6746TIP3    H141729   1.646   2.546  16.071  0.3157  0.2379 -0.8168
 6746TIP3    H241730   1.792   2.504  16.068  0.2413 -0.0139 -0.9410
 6747TIP3   OH241731   3.529   2.345  15.731 -0.1298 -0.0943  0.1407
 6747TIP3    H141732   3.580   2.378  15.805  0.9140 -0.5035 -0.3692
 6747TIP3    H241733   3.567   2.259  15.712 -2.2172 -1.2581  0.8863
 6748TIP3   OH241734   0.970   0.034   2.481  0.0723 -0.0331  0.1177
 6748TIP3    H141735   1.032   0.053   2.552 -1.1745 -0.0524  1.2660
 6748TIP3    H241736   0.992  -0.054   2.452  0.9047  0.1540  0.1628
 6749TIP3   OH241737   4.222   4.349   2.433 -0.4128 -0.0389  0.9818
 6749TIP3    H141738   4.143   4.298   2.416 -1.1225  1.4578 -0.5974
 6749TIP3    H241739   4.274   4.295   2.491 -1.6974 -1.9475  0.4433
 6750TIP3   OH241740   4.984   3.343  15.643  0.3335 -0.4054 -0.5350
 6750TIP3    H141741   5.038   3.422  15.641 -0.2527 -0.0111 -1.8205
 6750TIP3    H241742   4.976   3.322  15.736  0.9153  0.7522 -0.2012
 6751TIP3   OH241743   4.200   4.953   0.558  0.2923 -0.1772  0.1653
 6751TIP3    H141744   4.218   4.908   0.476  1.4935 -0.3045  0.4857
 6751TIP3    H241745   4.284   4.988   0.586 -0.7602  3.7624 -0.8967
 6752TIP3   OH241746   4.528   3.803  11.168  0.2400 -0.3960 -0.8128
 6752TIP3    H141747   4.508   3.868  11.102  0.7335 -0.4913 -1.0634
 6752TIP3    H241748   4.468   3.730  11.150 -0.8732  0.2937 -0.0358
 6753TIP3   OH241749   0.973   5.378   3.923  0.1759 -0.3260  0.2907
 6753TIP3    H141750   1.048   5.333   3.884 -0.1497  0.8863 -1.8795
 6753TIP3    H241751   1.013   5.446   3.979  0.7400  0.5839 -1.1671
 6754TIP3   OH241752   0.417   4.003  15.138 -0.4498 -0.5185 -0.5940
 6754TIP3    H141753   0.368   3.940  15.085 -0.9577 -0.3540 -0.3301
 6754TIP3    H241754   0.500   4.014  15.092 -1.4703  0.8309 -2.2683
 6755TIP3   OH241755   3.718   0.778  13.323  0.2498 -0.7389 -0.3904
 6755TIP3    H141756   3.807   0.813  13.317 -0.3029  0.5595 -1.7643
 6755TIP3    H241757   3.670   0.841  13.376 -0.5626  0.2772 -2.2187
 6756TIP3   OH241758   4.266   0.328   4.064  0.3195 -0.4249  0.2256
 6756TIP3    H141759   4.344   0.379   4.084 -0.7102  0.4207  2.4829
 6756TIP3    H241760   4.193   0.385   4.089 -0.9994 -1.6961 -0.5409
 6757TIP3   OH241761   1.838   4.174   4.423  0.2943  0.3375 -0.4330
 6757TIP3    H141762   1.902   4.129   4.369  1.0444 -1.3270  1.6933
 6757TIP3    H241763   1.881   4.255   4.450  0.6899  0.2124 -0.6896
 6758TIP3   OH241764   3.239   3.940   4.229 -0.1383 -0.4618 -0.4366
 6758TIP3    H141765   3.259   4.034   4.231 -2.0338  0.0616 -2.4418
 6758TIP3    H241766   3.249   3.912   4.320  2.4350  1.1887 -0.1191
 6759TIP3   OH241767   2.905   2.013   5.089 -0.2578 -0.5578  0.2617
 6759TIP3    H141768   2.921   2.099   5.128 -1.6720  0.7404 -1.8174
 6759TIP3    H241769   2.836   1.974   5.143  0.7182 -0.6397  1.4979
 6760TIP3   OH241770   6.463   4.450   0.115 -0.3729  0.6792 -0.2119
 6760TIP3    H141771   6.483   4.516   0.049  1.4816  1.0907  0.6732
 6760TIP3    H241772   6.373   4.469   0.142 -0.1542  2.3691 -0.5399
 6761TIP3   OH241773   5.740   1.109  12.160  0.1954  0.2027  0.5931
 6761TIP3    H141774   5.746   1.038  12.224  0.3063  0.8036  1.2584
 6761TIP3    H241775   5.708   1.066  12.080 -0.2418 -0.5054  1.1296
 6762TIP3   OH241776   5.546   4.397  14.850 -0.0127  0.2897 -0.2791
 6762TIP3    H141777   5.595   4.464  14.899 -0.2132  1.1519 -1.2389
 6762TIP3    H241778   5.589   4.393  14.765  0.8511 -1.7924  0.2005
 6763TIP3   OH241779   1.568   3.674   5.930 -0.2338  0.5756  0.2995
 6763TIP3    H141780   1.605   3.634   5.851  0.1072  2.1988 -0.3887
 6763TIP3    H241781   1.486   3.627   5.945  0.4363 -0.7745 -0.1168
 6764TIP3   OH241782   6.147   5.057  13.219 -0.3591 -0.4248 -0.2813
 6764TIP3    H141783   6.085   5.024  13.154  1.3612 -1.8487 -1.2740
 6764TIP3    H241784   6.091   5.091  13.289 -2.2843  0.5331 -2.1313
 6765TIP3   OH241785   4.625   3.518   3.446  0.2517  0.4159  0.1585
 6765TIP3    H141786   4.582   3.547   3.526  1.2037  3.1094 -0.1918
 6765TIP3    H241787   4.553   3.493   3.388 -0.6242  1.1669  0.8927
 6766TIP3   OH241788   6.745   5.106   6.149 -0.2674  0.4010  0.0107
 6766TIP3    H141789   6.806   5.152   6.207 -1.3006  1.9868 -0.1115
 6766TIP3    H241790   6.704   5.041   6.205 -1.5354  2.1613  1.2331
 6767TIP3   OH241791   1.815   0.948  16.101 -0.2073  0.5503  0.0591
 6767TIP3    H141792   1.795   0.896  16.023 -0.3924  0.9606 -0.1694
 6767TIP3    H241793   1.828   0.883  16.170 -0.8042  0.2077 -0.1400
 6768TIP3   OH241794   5.570   4.785   0.823 -0.0561  0.1075 -0.1401
 6768TIP3    H141795   5.606   4.696   0.826  1.8008  0.8617  1.8844
 6768TIP3    H241796   5.582   4.819   0.912  0.0036  2.6647 -1.0560
 6769TIP3   OH241797   0.692   2.071   5.314  0.6365 -0.6116 -0.2897
 6769TIP3    H141798   0.625   2.121   5.266  1.0500  1.3476  1.0704
 6769TIP3    H241799   0.765   2.065   5.253  1.4997  2.6306  0.2454
 6770TIP3   OH241800   4.349   0.777   3.264  0.4152 -0.3554  0.2467
 6770TIP3    H141801   4.332   0.735   3.348  3.2862 -1.3412  0.4505
 6770TIP3    H241802   4.365   0.869   3.286  0.3839 -0.4447  0.6546
 6771TIP3   OH241803   0.523   1.258  16.600  0.4023 -0.7144  0.1861
 6771TIP3    H141804   0.487   1.340  16.633  0.7053 -0.9100  1.0314
 6771TIP3    H241805   0.571   1.283  16.521 -1.6760 -0.4775 -1.0576
 6772TIP3   OH241806   3.602   2.125   2.563  0.3385  0.3636  0.3546
 6772TIP3    H141807   3.656   2.050   2.539 -0.0653  0.2506 -0.2235
 6772TIP3    H241808   3.525   2.087   2.605 -0.2715  0.3838 -0.7017
 6773TIP3   OH241809   4.513   1.488   2.761  0.4450  0.2480 -0.2691
 6773TIP3    H141810   4.497   1.398   2.731  0.6473 -0.2350  1.0125
 6773TIP3    H241811   4.598   1.510   2.724 -0.0256  0.2889 -1.3888
 6774TIP3   OH241812   4.213   2.492  16.068  0.2400 -0.9992 -0.4640
 6774TIP3    H141813   4.277   2.489  15.996  0.4313 -0.9868 -0.2955
 6774TIP3    H241814   4.168   2.576  16.057  1.1982 -0.3688  0.2232
 6775TIP3   OH241815   2.481   3.663  15.407  0.0572  0.4806  0.0346
 6775TIP3    H141816   2.517   3.746  15.375  0.2809  0.2305 -0.3677
 6775TIP3    H241817   2.408   3.689  15.463  0.6104  0.9759  0.5412
 6776TIP3   OH241818   2.806   6.743   3.252  0.1384  0.4338  0.0439
 6776TIP3    H141819   2.838   6.712   3.337 -0.1278 -0.4095 -0.1525
 6776TIP3    H241820   2.812   6.666   3.195 -2.5532  0.0965  0.0840
 6777TIP3   OH241821   0.429   2.281   4.740 -0.9491 -0.3141  0.2859
 6777TIP3    H141822   0.506   2.338   4.739 -1.7411  0.7951 -1.2975
 6777TIP3    H241823   0.380   2.305   4.661 -0.5990 -4.2097 -1.3252
 6778TIP3   OH241824   5.957   3.178   1.518  0.5214 -0.0299  0.6542
 6778TIP3    H141825   5.950   3.272   1.536  0.3236  0.2081 -0.5922
 6778TIP3    H241826   6.034   3.150   1.568  1.3562  1.0566  0.0267
 6779TIP3   OH241827   1.733   5.000  11.024  0.0761  0.2641 -0.0167
 6779TIP3    H141828   1.640   5.020  11.036 -0.3575 -1.3679 -0.2957
 6779TIP3    H241829   1.746   4.917  11.071  0.8836 -0.5945 -1.6399
 6780TIP3   OH241830   0.943   5.679  17.111  0.0030  0.7382 -0.0881
 6780TIP3    H141831   0.986   5.681  17.025 -0.0936  1.8118 -0.1223
 6780TIP3    H241832   0.852   5.657  17.091 -0.1012  1.3554 -0.2973
 6781TIP3   OH241833   5.499   5.098   2.696 -0.3984  0.0462  0.3853
 6781TIP3    H141834   5.594   5.092   2.705 -0.1555  2.1352 -0.1100
 6781TIP3    H241835   5.464   5.052   2.773  1.0291 -0.3105  0.8423
 6782TIP3   OH241836   3.727   4.282   0.106 -0.1892 -0.2955 -0.2874
 6782TIP3    H141837   3.813   4.245   0.126 -0.8858 -1.5075  0.5967
 6782TIP3    H241838   3.733   4.308   0.014  1.4105  0.5186  0.0246
 6783TIP3   OH241839   1.357   4.728  15.191  0.0628 -0.9222  0.0959
 6783TIP3    H141840   1.384   4.722  15.099 -0.1484 -0.9459  0.0357
 6783TIP3    H241841   1.277   4.676  15.195 -1.1604  0.8605 -0.1781
 6784TIP3   OH241842   4.323   0.401   1.867 -0.0481 -0.1941 -0.2102
 6784TIP3    H141843   4.357   0.476   1.820  0.5899 -0.5448 -0.3272
 6784TIP3    H241844   4.394   0.376   1.927 -0.8359  0.2415  0.9446
 6785TIP3   OH241845   5.848   6.680   0.469  0.1769  0.1024  0.4004
 6785TIP3    H141846   5.940   6.657   0.458 -0.1859 -1.0999 -0.4365
 6785TIP3    H241847   5.803   6.595   0.468 -0.9342  0.6691  0.8813
 6786TIP3   OH241848   4.134   3.576  16.950 -0.1411  0.6644 -0.7792
 6786TIP3    H141849   4.057   3.621  16.986  0.6384  0.5376  1.1775
 6786TIP3    H241850   4.206   3.637  16.966  0.6419 -0.4834  0.2982
 6787TIP3   OH241851   5.145   3.739  11.189 -0.0405 -1.2086  0.1895
 6787TIP3    H141852   5.071   3.681  11.168  0.4361 -2.1999  1.1200
 6787TIP3    H241853   5.145   3.804  11.119 -1.8846 -1.0897  0.2366
 6788TIP3   OH241854   2.663   5.763  12.866  0.7752 -0.2409  0.2255
 6788TIP3    H141855   2.704   5.680  12.889 -0.0984 -0.5488  0.7306
 6788TIP3    H241856   2.621   5.793  12.947  0.7375  0.4855 -0.0545
 6789TIP3   OH241857   1.890   1.868   0.437 -0.3120  0.0589 -0.7010
 6789TIP3    H141858   1.966   1.820   0.403  1.6736  0.4140  2.7299
 6789TIP3    H241859   1.907   1.959   0.415 -0.8229 -0.0671 -1.6729
 6790TIP3   OH241860   2.056   5.480   0.130  0.1394  0.0856  0.6694
 6790TIP3    H141861   2.132   5.470   0.073  0.2711  1.1604  0.6328
 6790TIP3    H241862   2.000   5.543   0.085 -2.2190 -2.7551 -0.7487
 6791TIP3   OH241863   1.994   5.498   2.749 -0.3964  0.7639 -0.1867
 6791TIP3    H141864   2.041   5.524   2.670 -2.6113  1.6181 -1.3049
 6791TIP3    H241865   1.945   5.420   2.724  1.9620 -1.4792  1.5954
 6792TIP3   OH241866   2.110   6.158  11.681 -0.1945  0.2071 -0.2286
 6792TIP3    H141867   2.047   6.111  11.626  0.2246  1.5006 -1.8895
 6792TIP3    H241868   2.091   6.250  11.666  0.0579  0.6199  1.7169
 6793TIP3   OH241869   0.608   4.020  11.999 -0.3073 -0.6377 -0.1461
 6793TIP3    H141870   0.625   3.934  12.036  1.0816  0.2308  1.3800
 6793TIP3    H241871   0.526   4.010  11.951 -0.6212 -2.5809  0.7017
 6794TIP3   OH241872   3.906   5.814  16.130  0.2514 -0.3753  0.1944
 6794TIP3    H141873   3.933   5.882  16.191  1.2262  0.2203 -0.8425
 6794TIP3    H241874   3.883   5.861  16.050  2.1001 -1.2673 -0.9540
 6795TIP3   OH241875   0.868   4.782  12.327  0.4212 -0.3752 -0.1208
 6795TIP3    H141876   0.875   4.693  12.293 -2.0868 -0.4405 -0.7039
 6795TIP3    H241877   0.934   4.831  12.279  0.4615 -1.5343 -1.3078
 6796TIP3   OH241878   5.582   4.303   4.053 -0.4370  0.4912  0.5229
 6796TIP3    H141879   5.578   4.209   4.040 -2.6883  0.4505  1.0172
 6796TIP3    H241880   5.588   4.340   3.965  3.5175 -0.0563  0.3692
 6797TIP3   OH241881   5.968   2.705  13.126 -0.6276  0.2134  0.8737
 6797TIP3    H141882   5.995   2.797  13.133 -1.6203  0.5930  0.0472
 6797TIP3    H241883   5.901   2.705  13.058 -0.0458 -1.2693  0.2425
 6798TIP3   OH241884   6.640   5.675   3.298  0.6999 -0.4027  0.2014
 6798TIP3    H141885   6.662   5.762   3.266  1.5722 -1.1430 -1.3311
 6798TIP3    H241886   6.694   5.616   3.246 -0.3435 -1.9114  0.7542
 6799TIP3   OH241887   4.617   2.233   1.753  0.4788  0.0428  0.0631
 6799TIP3    H141888   4.580   2.320   1.765  0.0947 -0.0117 -0.6698
 6799TIP3    H241889   4.709   2.248   1.731  0.2076  0.3183 -0.9476
 6800TIP3   OH241890   4.588   6.436  11.121  0.4730  0.1199  0.5154
 6800TIP3    H141891   4.655   6.485  11.168 -0.0755  0.9624  0.4632
 6800TIP3    H241892   4.505   6.472  11.155  0.0668  0.1592 -0.4820
 6801TIP3   OH241893   1.023   1.508  16.413 -0.3792 -0.0100 -1.1353
 6801TIP3    H141894   1.059   1.571  16.352  0.8434 -1.2112 -1.7199
 6801TIP3    H241895   0.997   1.433  16.358 -2.8080  0.3557 -0.6021
 6802TIP3   OH241896   6.749   6.298   1.796 -0.4158 -0.2561  0.5397
 6802TIP3    H141897   6.705   6.296   1.881 -0.2753 -0.4566  0.6075
 6802TIP3    H241898   6.823   6.357   1.809 -1.3220  1.0389  0.1022
 6803TIP3   OH241899   1.203   4.226  13.046  0.8071 -0.2304  0.2334
 6803TIP3    H141900   1.270   4.202  12.982 -0.5675 -0.1450 -1.3015
 6803TIP3    H241901   1.199   4.321  13.043 -0.2687 -0.2773 -0.6935
 6804TIP3   OH241902   3.440   6.268  11.521 -0.4491  0.4576 -0.2392
 6804TIP3    H141903   3.511   6.235  11.575  0.5619  3.3953  0.4545
 6804TIP3    H241904   3.432   6.205  11.450  1.5144 -0.9861  0.7293
 6805TIP3   OH241905   2.790   6.603  16.645  0.4947  0.2925 -0.0463
 6805TIP3    H141906   2.712   6.575  16.694 -0.1043 -0.0711 -1.1745
 6805TIP3    H241907   2.777   6.697  16.631  0.5126  0.3347  0.2086
 6806TIP3   OH241908   3.378   4.127  14.291 -0.0157 -0.1525  0.2288
 6806TIP3    H141909   3.311   4.072  14.250  1.0696 -0.9603 -0.5311
 6806TIP3    H241910   3.451   4.126  14.229  1.4739 -0.9463  1.8827
 6807TIP3   OH241911   3.594   6.229  14.030 -0.0712  0.1882  0.1108
 6807TIP3    H141912   3.652   6.284  14.084 -0.0538  0.5374 -0.2667
 6807TIP3    H241913   3.653   6.188  13.966 -0.1684  0.1566  0.0416
 6808TIP3   OH241914   5.457   5.847  16.167 -0.5955 -0.9861 -0.4622
 6808TIP3    H141915   5.457   5.935  16.129 -1.8772 -0.6030  0.3582
 6808TIP3    H241916   5.530   5.848  16.229 -1.1807 -0.1705  0.2338
 6809TIP3   OH241917   1.631   3.182  11.977 -0.4866  0.1066 -0.2765
 6809TIP3    H141918   1.683   3.188  11.897 -1.2594  3.9602 -0.6621
 6809TIP3    H241919   1.552   3.134  11.951 -0.1670  0.1961 -1.4775
 6810TIP3   OH241920   0.851   4.018  11.872 -0.2473 -0.4428  0.6169
 6810TIP3    H141921   0.906   4.081  11.918  0.5803 -1.6090  1.3038
 6810TIP3    H241922   0.764   4.030  11.909 -0.6613  1.8635 -0.9313
 6811TIP3   OH241923   0.524   6.259  15.574 -0.1594  0.6870  0.3855
 6811TIP3    H141924   0.459   6.226  15.512  1.2638 -0.3144 -0.6184
 6811TIP3    H241925   0.568   6.331  15.529  0.2530  0.5699  0.5930
 6812TIP3   OH241926   1.722   5.569  12.808 -0.4704  0.0345  0.3776
 6812TIP3    H141927   1.642   5.608  12.842 -0.2608 -0.5735  1.6260
 6812TIP3    H241928   1.729   5.485  12.852 -1.0866 -1.6583 -2.4913
 6813TIP3   OH241929   4.320   4.819  16.881 -0.0051  0.1455 -0.7046
 6813TIP3    H141930   4.302   4.912  16.894  1.4705  0.2300  1.0509
 6813TIP3    H241931   4.389   4.817  16.816  0.0557  0.2821 -0.6451
 6814TIP3   OH241932   0.377   5.257  11.383 -0.3078  0.0955 -0.2058
 6814TIP3    H141933   0.296   5.308  11.381 -0.0564  0.5155  0.0873
 6814TIP3    H241934   0.424   5.282  11.303 -0.3607  0.0347 -0.2557
 6815TIP3   OH241935   2.768   0.731   4.554 -0.2993 -0.1439 -0.3279
 6815TIP3    H141936   2.842   0.687   4.595 -0.7789 -1.0576 -0.4049
 6815TIP3    H241937   2.763   0.816   4.597  0.4881 -0.2686  0.0166
 6816TIP3   OH241938   1.822   2.231   5.542 -0.3813 -0.0689 -0.8972
 6816TIP3    H141939   1.828   2.273   5.456 -2.3901 -0.1335 -1.1332
 6816TIP3    H241940   1.819   2.137   5.522 -0.8284 -0.0839 -0.7764
 6817TIP3   OH241941   3.640   1.258  14.914 -0.1544 -0.3336  0.2153
 6817TIP3    H141942   3.659   1.343  14.874  0.1772  0.1744  1.3920
 6817TIP3    H241943   3.685   1.195  14.859  1.0539  0.4302  0.2912
 6818TIP3   OH241944   5.242   5.989  15.267 -0.2991  0.6325  0.5624
 6818TIP3    H141945   5.259   6.052  15.197  0.5819  1.0661  1.1573
 6818TIP3    H241946   5.325   5.942  15.277 -1.1458 -1.1895 -0.4021
 6819TIP3   OH241947   1.011   2.464   2.137  0.2758 -0.1814  0.5137
 6819TIP3    H141948   1.057   2.462   2.220  0.9954 -1.4740  0.1134
 6819TIP3    H241949   1.058   2.529   2.084  0.6408 -0.3201  0.6665
 6820TIP3   OH241950   6.572   6.379  12.049  0.0835 -0.4974  0.7273
 6820TIP3    H141951   6.589   6.430  11.969 -0.2310  0.0154  0.9799
 6820TIP3    H241952   6.621   6.298  12.037  0.6767 -0.0925  0.3607
 6821TIP3   OH241953   0.299   1.563  12.302 -0.9717 -0.8127  0.5378
 6821TIP3    H141954   0.364   1.600  12.243 -1.3413 -1.2367 -0.1512
 6821TIP3    H241955   0.232   1.631  12.311 -0.8681 -0.7117  0.5395
 6822TIP3   OH241956   2.506   5.269  11.596  0.1719 -0.1189 -0.3670
 6822TIP3    H141957   2.468   5.230  11.518  1.8744 -0.5544 -1.0195
 6822TIP3    H241958   2.556   5.344  11.563 -0.1666  0.4832  0.4642
 6823TIP3   OH241959   4.200   0.871  12.255  0.3771 -0.0783 -0.6446
 6823TIP3    H141960   4.125   0.826  12.216 -0.4259 -0.6387  1.3932
 6823TIP3    H241961   4.162   0.923  12.326  1.9350 -0.7712  0.7639
 6824TIP3   OH241962   2.974   4.736  12.016  0.4510 -0.0560  0.2908
 6824TIP3    H141963   2.950   4.817  12.060  0.2395 -0.8086  1.6184
 6824TIP3    H241964   3.067   4.725  12.035  0.3952 -0.3056  0.4258
 6825TIP3   OH241965   4.384   1.750  13.227 -1.0119  0.3781  0.2577
 6825TIP3    H141966   4.454   1.787  13.282 -0.0351  1.7033 -1.7631
 6825TIP3    H241967   4.316   1.724  13.289  0.8378 -0.0275  2.2381
 6826TIP3   OH241968   4.275   5.594   2.336  0.2386  0.5982 -0.1723
 6826TIP3    H141969   4.327   5.515   2.345  0.9440  1.1044  0.2415
 6826TIP3    H241970   4.234   5.586   2.250  4.3445  2.1502 -2.5059
 6827TIP3   OH241971   1.360   3.300  13.169  0.0081 -0.1620 -0.1925
 6827TIP3    H141972   1.297   3.349  13.115  1.7528  1.4896 -0.8250
 6827TIP3    H241973   1.445   3.324  13.134  1.1553 -0.1654  2.3887
 6828TIP3   OH241974   0.640   4.039  14.541  0.1362 -0.4810  0.1427
 6828TIP3    H141975   0.598   4.125  14.551  2.2013  1.0222 -2.6785
 6828TIP3    H241976   0.733   4.055  14.557  1.1401 -1.2516 -3.9272
 6829TIP3   OH241977   3.774   2.338  12.160  0.1499 -0.2469  0.8199
 6829TIP3    H141978   3.709   2.343  12.091  0.1223 -2.0334  0.6718
 6829TIP3    H241979   3.724   2.318  12.239  0.4369 -0.9637  0.8282
 6830TIP3   OH241980   1.493   0.445   4.777  0.1666  0.3645 -0.0116
 6830TIP3    H141981   1.465   0.536   4.770  0.0031  0.3095 -0.0739
 6830TIP3    H241982   1.579   0.443   4.736  0.3000  0.5512  0.2540
 6831TIP3   OH241983   2.896   0.244  16.719 -0.5148  0.0221  0.8021
 6831TIP3    H141984   2.849   0.308  16.773  2.0712  1.0187  2.0370
 6831TIP3    H241985   2.896   0.164  16.770 -1.7157 -0.3062  0.3187
 6832TIP3   OH241986   3.071   4.991  17.143 -0.1231 -0.0444  0.6087
 6832TIP3    H141987   3.128   4.960  17.213 -0.9114  0.2988  1.4160
 6832TIP3    H241988   3.078   5.086  17.146  0.8088 -0.0468 -0.6130
 6833TIP3   OH241989   4.019   4.930   3.179 -0.4350 -0.1158  0.4027
 6833TIP3    H141990   4.074   5.006   3.161 -0.6052 -0.5135 -2.0821
 6833TIP3    H241991   4.063   4.887   3.253  0.5003  1.5411  0.8756
 6834TIP3   OH241992   1.459   0.826  10.392  0.0540  0.3461  0.7614
 6834TIP3    H141993   1.526   0.758  10.384 -1.5377 -1.1071 -1.1784
 6834TIP3    H241994   1.498   0.902  10.349  1.3103  0.2749  1.6967
 6835TIP3   OH241995   5.955   1.953  11.799 -0.4045 -0.5915  0.0767
 6835TIP3    H141996   6.031   1.998  11.836  0.1672 -0.6557 -0.9874
 6835TIP3    H241997   5.894   1.946  11.872 -1.2996  3.4743 -0.0114
 6836TIP3   OH241998   5.777   5.764  15.738 -0.4207 -0.6409  0.2629
 6836TIP3    H141999   5.700   5.773  15.793 -1.1088 -1.8022 -0.4635
 6836TIP3    H242000   5.800   5.853  15.713 -2.2474 -0.3259 -0.4378
 6837TIP3   OH242001   5.615   4.035   3.755  0.0599  0.0965  0.1713
 6837TIP3    H142002   5.546   3.975   3.784  0.7053 -0.7687 -0.0484
 6837TIP3    H242003   5.572   4.120   3.750 -0.9258 -0.3785  0.2958
 6838TIP3   OH242004   4.144   0.947   3.510  0.0861 -0.3069 -0.5572
 6838TIP3    H142005   4.076   1.000   3.552  0.7792  0.9189 -0.9459
 6838TIP3    H242006   4.141   0.863   3.556 -1.4772 -0.1694 -0.3690
 6839TIP3   OH242007   1.864   3.396  12.996 -0.5328  0.4524  0.2035
 6839TIP3    H142008   1.882   3.480  13.039 -0.8082  1.2179 -1.0965
 6839TIP3    H242009   1.929   3.392  12.925  0.1637 -0.9473  0.8780
 6840TIP3   OH242010   6.066   2.392   1.369  0.0578 -0.1516  0.3456
 6840TIP3    H142011   6.141   2.451   1.365 -0.1299  0.0755  0.1811
 6840TIP3    H242012   6.063   2.365   1.461 -0.0034  0.2886  0.4763
 6841TIP3   OH242013   3.418   2.030   2.748  0.1090  0.3590  0.0689
 6841TIP3    H142014   3.438   1.943   2.714  2.7762  0.1274  1.8682
 6841TIP3    H242015   3.465   2.034   2.831 -0.8407  3.1418  0.5771
 6842TIP3   OH242016   1.793   2.795   1.637  0.2051  0.2973 -0.2585
 6842TIP3    H142017   1.775   2.877   1.683 -1.0829  0.4667 -0.9972
 6842TIP3    H242018   1.868   2.758   1.682 -0.5876  0.7636  1.5443
 6843TIP3   OH242019   0.558   4.721   2.164  0.2858  0.1959  0.3450
 6843TIP3    H142020   0.493   4.670   2.116  0.8205  0.6305 -0.8784
 6843TIP3    H242021   0.561   4.681   2.250 -1.2074 -0.1696  0.2491
 6844TIP3   OH242022   2.733   3.056  14.266  0.2026 -0.1284 -0.0743
 6844TIP3    H142023   2.753   3.042  14.358  1.9632  0.3519 -0.3536
 6844TIP3    H242024   2.639   3.041  14.260  0.2509 -1.4078  1.5556
 6845TIP3   OH242025   3.765   3.954   4.438 -0.2723 -0.3277  0.1789
 6845TIP3    H142026   3.671   3.950   4.457 -0.5331  1.8913 -0.3226
 6845TIP3    H242027   3.807   3.915   4.515 -1.5621  0.7760  1.5226
 6846TIP3   OH242028   5.947   4.876   1.135  0.3691 -0.2346 -0.2182
 6846TIP3    H142029   5.893   4.945   1.098 -0.2560  0.0506  1.1482
 6846TIP3    H242030   5.944   4.805   1.071 -0.1789  0.4495 -0.9620
 6847TIP3   OH242031   0.050   3.001   4.829 -0.0454 -0.2265 -0.2575
 6847TIP3    H142032   0.125   3.049   4.794 -0.7799 -0.3568 -2.0994
 6847TIP3    H242033   0.061   3.007   4.924  2.3596 -0.3664 -0.4521
 6848TIP3   OH242034   5.180   3.073   2.103 -0.3255 -0.2377  0.0743
 6848TIP3    H142035   5.218   3.022   2.175 -0.5831 -0.1116  0.3031
 6848TIP3    H242036   5.252   3.126   2.070 -0.1209 -0.5456  0.0136
 6849TIP3   OH242037   3.774   0.627  16.597 -0.1851  0.0434  0.4090
 6849TIP3    H142038   3.688   0.662  16.571 -0.2678 -1.2567 -1.2482
 6849TIP3    H242039   3.834   0.700  16.585 -0.7906  0.4666 -0.1464
 6850TIP3   OH242040   0.462   4.494  13.944  0.1097  1.0208 -0.3281
 6850TIP3    H142041   0.504   4.500  14.030 -0.3162  1.3407 -0.1403
 6850TIP3    H242042   0.373   4.466  13.962  1.3386 -4.4171 -0.9840
 6851TIP3   OH242043   4.834   1.051  13.445 -0.1579  0.0452 -0.4504
 6851TIP3    H142044   4.823   1.110  13.371  0.7494 -0.4404 -1.0043
 6851TIP3    H242045   4.866   1.107  13.516  0.3087  0.2944 -0.8496
 6852TIP3   OH242046   0.428   6.110   4.808  0.1933 -1.0080  0.2468
 6852TIP3    H142047   0.451   6.182   4.750  1.7945 -0.4996  1.4389
 6852TIP3    H242048   0.336   6.091   4.788  0.3566 -0.0864 -1.5839
 6853TIP3   OH242049   4.240   1.890  12.004  0.1803  0.0125  0.0866
 6853TIP3    H142050   4.221   1.962  12.064  1.9451  0.4315  0.2032
 6853TIP3    H242051   4.284   1.825  12.058  2.2790  0.6167 -0.7956
 6854TIP3   OH242052   6.790   1.279  14.611  0.6500  0.6187  0.2814
 6854TIP3    H142053   6.857   1.217  14.582 -0.2430 -0.8234  1.1732
 6854TIP3    H242054   6.805   1.357  14.558  2.3214 -0.0581 -0.3166
 6855TIP3   OH242055   6.604   3.570  10.683 -0.2634 -0.5648  0.4330
 6855TIP3    H142056   6.538   3.598  10.747 -1.8590 -1.8265 -0.5550
 6855TIP3    H242057   6.553   3.522  10.617  1.1160  1.5506 -2.3674
 6856TIP3   OH242058   3.430   6.693  14.672  0.5753  0.3877 -0.3267
 6856TIP3    H142059   3.449   6.729  14.585 -0.4013  0.1102 -0.6659
 6856TIP3    H242060   3.494   6.622  14.683  0.0330 -0.2696 -1.2698
 6857TIP3   OH242061   6.171   3.132   2.369 -0.5471 -0.6223 -0.7166
 6857TIP3    H142062   6.197   3.070   2.300  0.3290 -0.0611 -0.9120
 6857TIP3    H242063   6.245   3.130   2.431 -0.6711 -0.0322 -0.5467
 6858TIP3   OH242064   5.466   0.852  11.051  0.5402  0.2398 -0.6954
 6858TIP3    H142065   5.463   0.943  11.082  3.0330 -0.7495  3.2739
 6858TIP3    H242066   5.540   0.849  10.991 -0.2204  0.9554 -1.7064
 6859TIP3   OH242067   2.072   5.731  15.939 -0.1743  0.0158 -0.0883
 6859TIP3    H142068   2.014   5.655  15.931  1.7052 -1.4090 -1.2333
 6859TIP3    H242069   2.051   5.785  15.863  0.1752 -0.6599 -0.6811
 6860TIP3   OH242070   2.031   3.623  12.221 -0.4074  0.3287 -0.1333
 6860TIP3    H142071   2.101   3.681  12.251 -0.7877  1.9852 -2.1956
 6860TIP3    H242072   1.999   3.664  12.140 -1.8685 -1.8775 -0.7653
 6861TIP3   OH242073   0.528   6.194   1.130  0.3426  0.0474 -0.2619
 6861TIP3    H142074   0.478   6.135   1.185  1.6779  0.0445  0.9943
 6861TIP3    H242075   0.596   6.230   1.187 -0.8888  3.4612 -0.7074
 6862TIP3   OH242076   6.552   1.267  12.677 -0.0144 -0.6022 -0.5548
 6862TIP3    H142077   6.512   1.263  12.590  1.2769  0.2731 -1.2168
 6862TIP3    H242078   6.530   1.354  12.710  0.2929 -0.5769 -0.4139
 6863TIP3   OH242079   6.450   0.816   0.006 -0.1086 -0.1567 -0.5536
 6863TIP3    H142080   6.357   0.792   0.007 -0.1180 -0.1009  0.1180
 6863TIP3    H242081   6.488   0.763  -0.064 -0.7116  0.0756 -1.0701
 6864TIP3   OH242082   5.176   1.915  12.109  0.1611  0.3244 -0.2459
 6864TIP3    H142083   5.206   1.826  12.089 -0.0431  0.0307  0.6929
 6864TIP3    H242084   5.247   1.952  12.162  0.2529  0.7384 -0.6467
 6865TIP3   OH242085   0.636   2.013  15.044  0.7535  0.9314 -1.3513
 6865TIP3    H142086   0.631   1.960  14.964 -0.4927  0.6731 -1.1117
 6865TIP3    H242087   0.545   2.029  15.069  1.0911  0.0458  0.6528
 6866TIP3   OH242088   6.730   4.913   5.331  0.4650  0.0429  0.1457
 6866TIP3    H142089   6.759   4.992   5.376  0.7477 -0.0909  0.1995
 6866TIP3    H242090   6.755   4.841   5.389 -0.2832 -0.0533  0.3555
 6867TIP3   OH242091   1.213   3.151  12.396 -0.0673 -0.4368  0.1440
 6867TIP3    H142092   1.298   3.143  12.439  0.2568  1.8197  0.0235
 6867TIP3    H242093   1.229   3.118  12.307 -0.0315 -2.4810  0.8645
 6868TIP3   OH242094   4.347   2.071  14.980 -0.0493 -0.2151  0.0268
 6868TIP3    H142095   4.398   2.068  14.899 -0.0899  0.2283 -0.0158
 6868TIP3    H242096   4.286   1.998  14.973  1.2910 -1.4467  0.5580
 6869TIP3   OH242097   4.431   2.974  14.192  0.1849 -0.0119  0.3694
 6869TIP3    H142098   4.414   2.886  14.226 -1.2453 -0.3475 -1.0320
 6869TIP3    H242099   4.356   3.026  14.220 -1.1471 -0.3469 -2.2059
 6870TIP3   OH242100   1.707   6.808   6.134 -0.4408 -0.2271  0.2569
 6870TIP3    H142101   1.720   6.888   6.084  0.2430  0.4204  1.4440
 6870TIP3    H242102   1.730   6.738   6.073 -0.7986  0.4805 -0.7136
 6871TIP3   OH242103   4.091   2.757  12.606  0.7389  0.6956 -0.5470
 6871TIP3    H142104   4.024   2.783  12.542  0.3467  0.1529 -0.3629
 6871TIP3    H242105   4.050   2.687  12.656  1.3313  0.5875 -0.2083
 6872TIP3   OH242106   1.892   5.899  16.315 -0.1354  0.4162  0.0273
 6872TIP3    H142107   1.817   5.955  16.298 -0.3262  0.1103 -0.1264
 6872TIP3    H242108   1.945   5.905  16.236 -0.7619 -0.5880 -0.4754
 6873TIP3   OH242109   4.606   4.259   4.165  0.0032 -0.0535 -0.1429
 6873TIP3    H142110   4.686   4.303   4.193 -0.1045 -0.1870  0.3995
 6873TIP3    H242111   4.633   4.203   4.092 -0.1451  2.0457 -1.8949
 6874TIP3   OH242112   5.469   1.174  11.573 -0.2179 -0.4674  0.4152
 6874TIP3    H142113   5.462   1.266  11.547  0.9482 -0.0226  1.5556
 6874TIP3    H242114   5.417   1.169  11.654 -0.3775 -0.8429  0.2905
 6875TIP3   OH242115   2.182   0.107   0.668  0.2677  0.1577  0.2945
 6875TIP3    H142116   2.090   0.081   0.667  0.1940  0.4033 -1.4734
 6875TIP3    H242117   2.223   0.045   0.728 -0.4438 -2.1704 -1.5132
 6876TIP3   OH242118   3.015   6.718   0.089  0.2345 -0.0245 -0.4527
 6876TIP3    H142119   3.003   6.747  -0.002 -0.1970 -0.0903 -0.4178
 6876TIP3    H242120   2.971   6.784   0.142 -1.8820 -1.3640 -0.4375
 6877TIP3   OH242121   0.270   4.502  15.556 -0.2335 -0.4209 -0.4811
 6877TIP3    H142122   0.177   4.482  15.547 -0.9500  1.4236  1.8205
 6877TIP3    H242123   0.280   4.589  15.516  0.6704 -0.9071 -1.3471
 6878TIP3   OH242124   0.909   0.311   4.790  1.1986 -0.0774  0.3125
 6878TIP3    H142125   0.918   0.220   4.763  2.8824  0.2027 -0.1756
 6878TIP3    H242126   0.871   0.307   4.878  0.7449 -1.2082  0.0800
 6879TIP3   OH242127   6.767   4.573  16.014 -0.1877  0.5344  0.3067
 6879TIP3    H142128   6.847   4.523  15.999  0.0753  0.9657  0.2239
 6879TIP3    H242129   6.709   4.514  16.061 -0.1911 -0.1130 -0.4977
 6880TIP3   OH242130   0.729   1.879  13.088 -0.5112  0.2157 -0.6099
 6880TIP3    H142131   0.649   1.923  13.117 -0.4885 -0.5547  0.6810
 6880TIP3    H242132   0.799   1.923  13.136 -0.6907 -2.7717  2.8218
 6881TIP3   OH242133   4.313   2.257   4.205  0.2019 -0.3909  0.2751
 6881TIP3    H142134   4.299   2.164   4.189  0.2498 -0.3105 -0.2406
 6881TIP3    H242135   4.405   2.273   4.182 -0.3894  0.2385 -1.9053
 6882TIP3   OH242136   6.113   4.925   4.264  0.3389 -0.3306  0.0927
 6882TIP3    H142137   6.206   4.946   4.277 -0.0943  1.9356  0.0315
 6882TIP3    H242138   6.080   4.904   4.351  1.0497 -1.9884 -0.0004
 6883TIP3   OH242139   3.034   1.426   5.545 -0.3256 -0.4855 -0.2443
 6883TIP3    H142140   3.099   1.406   5.613 -0.1477 -1.0270 -0.5745
 6883TIP3    H242141   2.987   1.503   5.579  0.9714  0.3701 -0.3406
 6884TIP3   OH242142   0.947   5.248  14.357 -0.3464 -0.1044  0.1373
 6884TIP3    H142143   0.915   5.185  14.293 -2.3135  0.5667  0.3807
 6884TIP3    H242144   0.983   5.195  14.428 -0.6851 -0.9128 -0.2816
 6885TIP3   OH242145   6.674   1.849   5.806  0.3876  0.2206 -0.0130
 6885TIP3    H142146   6.760   1.811   5.825 -0.3184 -1.8678 -0.7377
 6885TIP3    H242147   6.619   1.825   5.880  0.2966  1.2081  0.2595
 6886TIP3   OH242148   3.763   2.119   5.955 -0.0953  0.5535  0.2071
 6886TIP3    H142149   3.795   2.029   5.961  2.2275  1.2507 -0.7805
 6886TIP3    H242150   3.747   2.144   6.046 -1.3790 -1.0149  0.4589
 6887TIP3   OH242151   1.419   5.950  14.155 -0.2524 -0.2601 -0.8983
 6887TIP3    H142152   1.415   5.988  14.067 -1.7538 -1.1618 -1.2659
 6887TIP3    H242153   1.424   6.025  14.214 -2.1409  0.5057 -1.6473
 6888TIP3   OH242154   4.333   3.351  16.154 -0.1891 -0.5071 -0.3437
 6888TIP3    H142155   4.347   3.445  16.160  0.2418 -0.6446  4.3755
 6888TIP3    H242156   4.239   3.339  16.168 -0.0330 -0.7795  0.5538
 6889TIP3   OH242157   1.285   4.982   0.295 -0.0755  0.1580  0.2917
 6889TIP3    H142158   1.195   4.997   0.266  0.4182  2.7800 -0.1446
 6889TIP3    H242159   1.335   4.970   0.214 -0.0490 -1.7940  0.5484
 6890TIP3   OH242160   2.132   0.181  14.768 -0.6178 -0.3345 -0.3231
 6890TIP3    H142161   2.196   0.134  14.715 -0.0975  0.3693 -0.3202
 6890TIP3    H242162   2.179   0.201  14.850 -0.7013  0.5618 -0.4931
 6891TIP3   OH242163   0.312   5.701  12.844  0.1969 -0.0446 -0.2907
 6891TIP3    H142164   0.404   5.674  12.845  0.8237  1.9612 -0.1450
 6891TIP3    H242165   0.298   5.737  12.757  0.5208  2.6236  0.6695
 6892TIP3   OH242166   6.256   3.271  13.754 -0.0764  0.4335  0.4778
 6892TIP3    H142167   6.231   3.353  13.798 -0.8968  0.2174  0.4308
 6892TIP3    H242168   6.285   3.214  13.825 -0.6801  0.3450  0.6565
 6893TIP3   OH242169   0.229   3.905  10.247 -0.6257  0.3085 -0.2463
 6893TIP3    H142170   0.156   3.968  10.249  0.3306  1.5076 -1.3251
 6893TIP3    H242171   0.299   3.948  10.295  0.1177  0.1815 -1.1809
 6894TIP3   OH242172   4.643   6.057  16.709  0.1242  0.8609  0.5647
 6894TIP3    H142173   4.619   6.038  16.618  3.5687 -0.7692 -0.2121
 6894TIP3    H242174   4.585   6.002  16.762  0.5666 -1.1837 -0.9540
 6895TIP3   OH242175   3.696   3.137  12.217 -0.1101  0.3948 -0.3173
 6895TIP3    H142176   3.720   3.121  12.125  0.0128 -0.8149 -0.1001
 6895TIP3    H242177   3.722   3.056  12.262 -0.3970  0.8815  0.7397
 6896TIP3   OH242178   3.708   6.686   4.021 -0.3982 -0.2622  0.3287
 6896TIP3    H142179   3.614   6.705   4.023 -0.5317 -0.9544  0.6460
 6896TIP3    H242180   3.715   6.602   3.976  0.1582  0.2921 -0.6553
 6897TIP3   OH242181   5.955   6.560   1.181  0.4488  0.5023  0.5683
 6897TIP3    H142182   5.979   6.479   1.136 -2.1946 -0.5499  0.8760
 6897TIP3    H242183   5.927   6.619   1.111  2.1687  1.1585  0.3664
 6898TIP3   OH242184   1.626   1.586   0.033 -0.5215 -0.1995 -0.1679
 6898TIP3    H142185   1.616   1.567  -0.061  0.7094  0.6447 -0.4869
 6898TIP3    H242186   1.597   1.677   0.042 -0.3977 -0.1995  0.2362
 6899TIP3   OH242187   4.693   1.064  13.104  0.0121  0.0988  0.0454
 6899TIP3    H142188   4.636   0.990  13.125  1.1957 -0.6772  0.5900
 6899TIP3    H242189   4.761   1.027  13.048 -0.7902  1.3183 -1.8291
 6900TIP3   OH242190   3.894   3.566  13.933  0.2200 -0.6790  0.4765
 6900TIP3    H142191   3.827   3.631  13.910 -2.3024 -2.7445  1.4804
 6900TIP3    H242192   3.880   3.494  13.871  1.2229 -1.3363  0.9790
 6901TIP3   OH242193   5.522   0.923   1.631  0.1130  0.2427  0.1735
 6901TIP3    H142194   5.569   0.899   1.711  1.1980  0.1791 -0.4621
 6901TIP3    H242195   5.585   0.975   1.581 -0.0136 -0.9752 -1.3153
 6902TIP3   OH242196   0.776   2.593   5.165 -0.6533  0.4420 -0.0764
 6902TIP3    H142197   0.813   2.660   5.107 -0.3698  2.9548  2.7514
 6902TIP3    H242198   0.688   2.578   5.132  0.5174 -0.6655 -2.9783
 6903TIP3   OH242199   4.475   5.040   1.198 -0.2099  0.4378 -0.6427
 6903TIP3    H142200   4.495   5.077   1.112  0.5698  1.0203 -0.2251
 6903TIP3    H242201   4.397   5.088   1.227 -0.4962  0.2125 -1.0394
 6904TIP3   OH242202   0.103   5.667   2.230  0.7511 -0.5110  0.0020
 6904TIP3    H142203   0.043   5.681   2.157  1.2083 -1.4430 -0.5632
 6904TIP3    H242204   0.135   5.754   2.252  0.1338 -0.1504 -0.4953
 6905TIP3   OH242205   0.451   4.478   2.771 -0.1687 -0.2474 -0.2492
 6905TIP3    H142206   0.453   4.383   2.759  0.7555 -0.2878  0.1204
 6905TIP3    H242207   0.360   4.503   2.756 -0.4146 -1.1905 -0.3554
 6906TIP3   OH242208   6.348   1.853  16.834 -0.5307  0.3812  0.5229
 6906TIP3    H142209   6.276   1.811  16.882 -1.2060 -1.0306 -1.5610
 6906TIP3    H242210   6.416   1.868  16.900 -2.0714  0.1991  2.2256
 6907TIP3   OH242211   0.881   5.478   2.729 -0.3321  0.1206 -0.3922
 6907TIP3    H142212   0.849   5.389   2.745 -3.0954  0.9311 -0.9283
 6907TIP3    H242213   0.892   5.516   2.817 -1.1691 -0.0881 -0.1953
 6908TIP3   OH242214   3.878   4.351   1.998  0.0807  0.6045 -0.0590
 6908TIP3    H142215   3.798   4.302   2.018  0.8398 -0.2184  1.1280
 6908TIP3    H242216   3.930   4.291   1.943  1.0498 -0.0430  1.4708
 6909TIP3   OH242217   5.376   6.054   3.809  0.2082  0.2624  0.1445
 6909TIP3    H142218   5.427   5.984   3.768  0.8324  0.8898 -0.1696
 6909TIP3    H242219   5.433   6.087   3.879 -0.5677 -0.3294  1.0773
 6910TIP3   OH242220   3.673   6.148  11.610 -0.3024 -0.6265 -0.1729
 6910TIP3    H142221   3.743   6.138  11.674 -0.9317 -1.5004  0.3999
 6910TIP3    H242222   3.711   6.113  11.529  0.3692  0.1448 -0.2021
 6911TIP3   OH242223   3.726   3.346   4.978  0.3176 -0.3162  0.1462
 6911TIP3    H142224   3.819   3.366   4.987  0.2985  0.3918 -0.9616
 6911TIP3    H242225   3.695   3.332   5.067  1.5015 -0.6342  0.5201
 6912TIP3   OH242226   1.755   3.379  13.885 -0.0919 -0.5727 -0.0803
 6912TIP3    H142227   1.775   3.297  13.929  2.1460  0.3621  0.8079
 6912TIP3    H242228   1.686   3.419  13.937  0.1931 -1.0116  0.6421
 6913TIP3   OH242229   1.739   5.965   5.395 -0.4041 -0.2947 -0.3037
 6913TIP3    H142230   1.755   5.875   5.424  1.3709  0.0323 -0.2016
 6913TIP3    H242231   1.751   6.019   5.473  1.0060  0.2574 -0.8782
 6914TIP3   OH242232   0.652   3.055   2.589  0.1257  1.1751 -0.1726
 6914TIP3    H142233   0.732   3.011   2.560 -0.4058 -0.0688  0.1898
 6914TIP3    H242234   0.681   3.117   2.656  0.8372  1.0802 -0.3879
 6915TIP3   OH242235   6.831   2.807   3.578 -0.3022 -0.6297  0.0191
 6915TIP3    H142236   6.861   2.863   3.650  0.2951 -1.3658  0.3538
 6915TIP3    H242237   6.869   2.847   3.499 -0.3964 -0.2097  0.1831
 6916TIP3   OH242238   6.473   2.281  16.777 -0.4833 -0.5313  0.3678
 6916TIP3    H142239   6.391   2.238  16.753 -1.9699  1.5965  1.3373
 6916TIP3    H242240   6.521   2.214  16.826 -2.3383 -1.3744  1.1212
 6917TIP3   OH242241   2.855   0.578   1.481 -0.6455 -0.2683 -0.0203
 6917TIP3    H142242   2.769   0.536   1.482 -1.0917  0.6042  0.3764
 6917TIP3    H242243   2.875   0.591   1.388 -1.3523  0.2908 -0.1064
 6918TIP3   OH242244   5.852   6.416   1.640  0.0982  0.2074  0.2996
 6918TIP3    H142245   5.830   6.429   1.547 -0.5687 -0.3315  0.3795
 6918TIP3    H242246   5.781   6.459   1.687  0.2630  0.1912  0.5617
 6919TIP3   OH242247   5.343   1.841   4.662  0.3243 -0.1583 -0.5923
 6919TIP3    H142248   5.351   1.857   4.756  1.4944 -1.3573 -0.4597
 6919TIP3    H242249   5.370   1.924   4.621 -0.3399  0.4209  0.1172
 6920TIP3   OH242250   2.027   3.870   1.137 -0.2170 -0.0425  0.1326
 6920TIP3    H142251   2.105   3.888   1.084  0.2737  0.3174  0.9597
 6920TIP3    H242252   1.978   3.952   1.135  0.5910  0.5104  1.5188
 6921TIP3   OH242253   1.316   4.187   5.309  0.4815 -0.6736  0.0341
 6921TIP3    H142254   1.233   4.160   5.350  0.0473  0.9655  0.2760
 6921TIP3    H242255   1.355   4.104   5.279 -1.4057 -1.4696 -0.4116
 6922TIP3   OH242256   5.478   4.045   4.062 -0.6780 -0.5922  0.3223
 6922TIP3    H142257   5.427   4.106   4.115 -1.8898 -1.4759  0.2391
 6922TIP3    H242258   5.457   3.959   4.099 -0.2347 -1.0793 -0.5309
 6923TIP3   OH242259   3.396   2.411  13.750  0.3398  0.5216 -0.5661
 6923TIP3    H142260   3.322   2.469  13.729 -0.4758 -0.6566 -1.0498
 6923TIP3    H242261   3.408   2.358  13.672  1.9556  0.9241 -0.6179
 6924TIP3   OH242262   0.955   2.230   0.657 -0.3759 -0.8100  0.1578
 6924TIP3    H142263   1.036   2.230   0.605  0.5484 -0.3730  1.5374
 6924TIP3    H242264   0.966   2.158   0.718 -0.3124  0.2304  1.4039
 6925TIP3   OH242265   0.420   1.782   5.087  0.6710  0.5687 -0.0895
 6925TIP3    H142266   0.444   1.823   5.170 -0.5560 -0.4406  0.8093
 6925TIP3    H242267   0.335   1.741   5.104  0.0254  0.9609 -2.0627
 6926TIP3   OH242268   0.241   4.235   3.658  0.1236  0.5032  0.0989
 6926TIP3    H142269   0.235   4.261   3.750 -1.1370  0.8573 -0.0637
 6926TIP3    H242270   0.241   4.139   3.660 -1.1201  0.4850  0.4335
 6927TIP3   OH242271   5.072   5.274   0.515  0.5568 -0.2870 -0.0213
 6927TIP3    H142272   4.997   5.262   0.456 -0.6619 -0.8008  1.5798
 6927TIP3    H242273   5.033   5.283   0.602  2.4336 -2.5531  1.1547
 6928TIP3   OH242274   1.572   2.328  12.515  0.3954  0.3572  0.4880
 6928TIP3    H142275   1.639   2.263  12.535  1.5170  1.1866 -0.4242
 6928TIP3    H242276   1.510   2.282  12.459  0.6861 -0.1777  0.5967
 6929TIP3   OH242277   0.477   1.416  15.941 -0.2993 -0.3016 -0.1669
 6929TIP3    H142278   0.497   1.485  15.878  1.2457  1.9544  2.5556
 6929TIP3    H242279   0.550   1.355  15.933  1.5171  1.5123  1.2713
 6930TIP3   OH242280   4.405   1.568   0.544  0.3910  0.4378  0.5750
 6930TIP3    H142281   4.367   1.582   0.630  0.1289  1.5456  0.3000
 6930TIP3    H242282   4.429   1.475   0.543 -3.3957 -0.7179  0.3515
 6931TIP3   OH242283   2.648   0.217   5.005 -0.0770 -0.6238  0.1314
 6931TIP3    H142284   2.563   0.219   4.960  0.4781 -2.0833 -1.0637
 6931TIP3    H242285   2.658   0.126   5.034  1.9669 -1.0472 -1.6225
 6932TIP3   OH242286   1.625   5.753   2.238  0.0482  0.1904 -0.0821
 6932TIP3    H142287   1.585   5.797   2.163  1.4977 -0.2618 -1.1421
 6932TIP3    H242288   1.713   5.790   2.244 -0.1763  0.5577  1.6998
 6933TIP3   OH242289   3.793   4.341  15.862  0.0113  0.1465 -0.1073
 6933TIP3    H142290   3.827   4.388  15.938  2.0508  0.7973 -1.3256
 6933TIP3    H242291   3.722   4.396  15.829  0.2903  0.7687  0.3199
 6934TIP3   OH242292   2.764   1.905  13.954 -0.2459 -0.7350 -0.1810
 6934TIP3    H142293   2.735   1.994  13.933 -1.8008 -0.8531  1.2832
 6934TIP3    H242294   2.758   1.899  14.049  1.8551 -1.7712 -0.0569
 6935TIP3   OH242295   3.101   1.643   3.947 -0.0009  0.7489  0.5502
 6935TIP3    H142296   3.106   1.556   3.986  0.7229  1.3187  1.8119
 6935TIP3    H242297   3.056   1.630   3.864 -1.3872 -0.5621  1.4638
 6936TIP3   OH242298   1.486   1.832   2.303  0.1370 -0.3384 -0.1347
 6936TIP3    H142299   1.397   1.823   2.338 -0.3597  0.8985 -1.0214
 6936TIP3    H242300   1.537   1.868   2.377 -0.1050 -0.9542  0.3423
 6937TIP3   OH242301   3.978   3.829  15.947  0.2962  0.4954 -0.3377
 6937TIP3    H142302   3.899   3.861  15.903  0.0115  1.6578  0.9659
 6937TIP3    H242303   4.025   3.781  15.878 -2.1098 -1.3410 -0.8939
 6938TIP3   OH242304   1.754   3.158   4.853 -0.0147  0.6145  0.1018
 6938TIP3    H142305   1.749   3.240   4.803 -0.4079  0.5722  0.0697
 6938TIP3    H242306   1.686   3.102   4.815  0.1571  0.3208  0.2154
 6939TIP3   OH242307   5.098   6.048  16.990  0.0849 -0.1845 -0.0822
 6939TIP3    H142308   5.090   5.962  17.033  0.0454 -0.1458 -0.0116
 6939TIP3    H242309   5.024   6.098  17.023  1.5256  0.7709  1.9915
 6940TIP3   OH242310   3.836   1.045   1.307 -0.3763 -0.3222 -0.4345
 6940TIP3    H142311   3.875   0.998   1.381  0.4786  0.2716 -0.4880
 6940TIP3    H242312   3.865   0.996   1.230 -1.6865 -1.2371 -0.3683
 6941TIP3   OH242313   1.684   2.875   4.020 -0.0969  0.1161 -0.8206
 6941TIP3    H142314   1.635   2.957   4.021 -1.5977 -0.7085 -1.5891
 6941TIP3    H242315   1.679   2.842   4.110 -2.7029 -0.8609 -1.2229
 6942TIP3   OH242316   0.671   5.487  14.210  0.5665  0.0038 -0.2993
 6942TIP3    H142317   0.665   5.436  14.291 -0.4897  0.7228  0.0995
 6942TIP3    H242318   0.594   5.543  14.211  1.6934  1.6597 -0.6928
 6943TIP3   OH242319   0.671   6.158  14.623 -0.4969  0.3682 -0.7523
 6943TIP3    H142320   0.623   6.125  14.547 -1.1474 -0.4017 -0.0221
 6943TIP3    H242321   0.628   6.240  14.645 -1.0727  0.0055 -0.5013
 6944TIP3   OH242322   4.546   1.973   2.753  0.3669  0.2407 -0.5239
 6944TIP3    H142323   4.593   1.958   2.672  0.7243  0.7005 -0.4046
 6944TIP3    H242324   4.462   2.011   2.726 -0.2382 -1.2082 -0.7794
 6945TIP3   OH242325   0.963   3.165  16.795 -0.5322  0.4132  0.4220
 6945TIP3    H142326   0.996   3.152  16.706 -0.4523  0.1413  0.4932
 6945TIP3    H242327   0.942   3.077  16.826  2.7960  0.0227  1.9835
 6946TIP3   OH242328   2.242   5.230   3.045 -0.8620  0.2497  0.0969
 6946TIP3    H142329   2.258   5.324   3.033 -0.7522  0.6707  2.7693
 6946TIP3    H242330   2.294   5.207   3.122 -1.3879 -1.8779 -0.1209
 6947TIP3   OH242331   0.265   2.351   2.570  0.2543 -0.3222  0.3924
 6947TIP3    H142332   0.207   2.343   2.494  0.2930  0.3230  0.2864
 6947TIP3    H242333   0.266   2.264   2.609  0.5691 -0.7675 -0.5949
 6948TIP3   OH242334   4.681   6.591   3.082 -0.0005  0.5378 -0.4428
 6948TIP3    H142335   4.716   6.650   3.149  3.0350  0.2117 -1.5901
 6948TIP3    H242336   4.636   6.522   3.132 -0.2033  1.7102  1.0762
 6949TIP3   OH242337   1.683   6.171   3.724 -0.5832  0.0329  0.5464
 6949TIP3    H142338   1.649   6.103   3.782 -2.3615  0.1648 -0.2581
 6949TIP3    H242339   1.720   6.237   3.782 -1.0696 -0.4871  1.4595
 6950TIP3   OH242340   5.532   5.628  15.547 -0.2845 -0.0337  0.3351
 6950TIP3    H142341   5.517   5.561  15.614  0.0923  0.4999  0.9649
 6950TIP3    H242342   5.485   5.705  15.579  0.1960  0.3343  0.1666
 6951TIP3   OH242343   3.226   1.309   6.243 -0.0817 -0.0028  0.1054
 6951TIP3    H142344   3.254   1.371   6.310  0.0113  0.1147 -0.0392
 6951TIP3    H242345   3.148   1.348   6.205  1.2201  1.1661 -1.5201
 6952TIP3   OH242346   2.605   3.066  17.173  0.3978  0.4113  0.2354
 6952TIP3    H142347   2.548   3.048  17.248  0.7435 -1.1738  0.1528
 6952TIP3    H242348   2.692   3.036  17.201  0.3829 -0.9285 -1.0394
 6953TIP3   OH242349   0.727   0.356  16.028  0.0205 -0.4546 -0.1077
 6953TIP3    H142350   0.807   0.407  16.032 -0.7519  0.7174  1.4222
 6953TIP3    H242351   0.708   0.332  16.119 -2.3532  0.9624 -0.1541
 6954TIP3   OH242352   6.622   5.536  13.892 -0.2224 -0.2829 -0.4866
 6954TIP3    H142353   6.662   5.575  13.970 -1.0172  1.1255 -0.7639
 6954TIP3    H242354   6.604   5.445  13.918 -1.8466  0.5238  1.5239
 6955TIP3   OH242355   4.910   2.859   4.212  0.2426  0.2161  0.7823
 6955TIP3    H142356   4.912   2.909   4.130 -0.4393 -0.9743  0.0150
 6955TIP3    H242357   4.992   2.811   4.213 -0.4767 -1.0821 -0.0758
 6956TIP3   OH242358   5.888   5.314   3.359  0.2346  0.2920 -0.4131
 6956TIP3    H142359   5.972   5.275   3.333  0.2914  0.3896 -0.3757
 6956TIP3    H242360   5.881   5.394   3.306 -1.1880 -1.1606 -2.6169
 6957TIP3   OH242361   2.906   3.207  13.874  0.2309  0.0273  0.3996
 6957TIP3    H142362   2.914   3.213  13.970  0.1078  0.4386  0.3866
 6957TIP3    H242363   2.995   3.218  13.842  0.5157 -1.6414  0.5278
 6958TIP3   OH242364   2.586   2.256  15.587  0.0020 -0.1142  0.2653
 6958TIP3    H142365   2.638   2.253  15.507 -0.2290 -2.4444  0.1362
 6958TIP3    H242366   2.651   2.259  15.658  0.2250  0.6547  0.0359
 6959TIP3   OH242367   4.736   6.072  14.226 -0.6791  0.0304 -0.2113
 6959TIP3    H142368   4.708   6.164  14.229 -1.8855 -0.3326  1.5514
 6959TIP3    H242369   4.729   6.043  14.317  1.6420 -1.2662 -0.3903
 6960TIP3   OH242370   2.278   6.732   4.620  0.8729 -0.1170 -0.2796
 6960TIP3    H142371   2.270   6.755   4.528  0.1352  0.2683 -0.1295
 6960TIP3    H242372   2.304   6.814   4.663  2.7999 -0.6543 -0.3426
 6961TIP3   OH242373   1.452   0.124  16.144  0.2085  0.2344  0.1007
 6961TIP3    H142374   1.358   0.119  16.162  0.5224 -0.5152  1.7219
 6961TIP3    H242375   1.468   0.216  16.120 -1.0332  0.2034 -0.9395
 6962TIP3   OH242376   5.432   2.545   0.667 -0.0290  0.4699 -0.0281
 6962TIP3    H142377   5.460   2.515   0.580 -1.3274 -0.4833 -0.1479
 6962TIP3    H242378   5.481   2.627   0.681  1.7137 -0.3919 -0.7731
 6963TIP3   OH242379   5.549   3.841   2.116  0.0883  0.0026 -0.5910
 6963TIP3    H142380   5.542   3.745   2.108  0.3429  0.1511 -3.4385
 6963TIP3    H242381   5.584   3.854   2.204 -1.5976 -2.4072  0.5747
 6964TIP3   OH242382   1.535   6.378  16.624  0.0959 -0.3997  0.3185
 6964TIP3    H142383   1.459   6.436  16.635  0.8998  1.0390 -1.1976
 6964TIP3    H242384   1.506   6.311  16.563  0.5271  1.3119 -1.9255
 6965TIP3   OH242385   3.635   2.125   1.862  0.4758  0.5598 -0.1075
 6965TIP3    H142386   3.686   2.181   1.804  1.4414  0.3652  0.5294
 6965TIP3    H242387   3.653   2.158   1.950  0.5853 -0.3594  0.2303
 6966TIP3   OH242388   4.179   3.093  12.451 -0.1638 -0.2376  0.2123
 6966TIP3    H142389   4.216   3.021  12.503 -0.3329 -0.6341 -0.2090
 6966TIP3    H242390   4.244   3.163  12.458  0.5185 -0.8049 -0.2303
 6967TIP3   OH242391   0.207   1.361  12.120  0.5855 -0.3243 -0.3260
 6967TIP3    H142392   0.237   1.413  12.046  0.7255  0.8839  0.5563
 6967TIP3    H242393   0.220   1.417  12.196 -0.6864 -1.0846  0.4901
 6968TIP3   OH242394   3.824   1.285  14.262 -0.7542  0.1413  0.3732
 6968TIP3    H142395   3.875   1.314  14.337  0.5893 -4.4016  1.5075
 6968TIP3    H242396   3.886   1.283  14.189 -0.5063 -0.8957  0.5998
 6969TIP3   OH242397   5.072   1.367   5.073 -0.3710  0.3003  0.1522
 6969TIP3    H142398   4.990   1.411   5.096  0.0939  1.1300  0.2546
 6969TIP3    H242399   5.053   1.274   5.086 -1.8978  0.2819 -1.6483
 6970TIP3   OH242400   3.353   1.474   1.464  0.4821 -0.3451 -0.6309
 6970TIP3    H142401   3.422   1.418   1.499  1.3001  0.3175 -1.1494
 6970TIP3    H242402   3.380   1.491   1.373  0.8391  1.7881 -0.1676
 6971TIP3   OH242403   6.830   1.631   6.091  0.5919  0.1317 -0.1183
 6971TIP3    H142404   6.895   1.571   6.127  2.2664  1.7904 -0.1846
 6971TIP3    H242405   6.759   1.575   6.060  1.4919 -1.6845  0.9619
 6972TIP3   OH242406   5.252   2.881  14.536  0.1073  0.2761  0.0857
 6972TIP3    H142407   5.298   2.939  14.475 -1.4563  0.9503 -0.4928
 6972TIP3    H242408   5.301   2.799  14.532  1.8444  1.2586  0.2598
 6973TIP3   OH242409   4.759   2.210   0.927  0.0258 -0.2604 -0.0906
 6973TIP3    H142410   4.713   2.286   0.893 -1.6280 -0.4177  1.6098
 6973TIP3    H242411   4.706   2.181   1.001  1.2200 -2.3922  0.0140
 6974TIP3   OH242412   6.669   5.918   6.042 -0.2982 -0.1450 -0.3288
 6974TIP3    H142413   6.658   5.913   6.137 -0.9455  0.5078 -0.3651
 6974TIP3    H242414   6.628   6.000   6.017  2.0587  0.9674 -0.8644
 6975TIP3   OH242415   0.788   3.311  15.637 -0.2896  0.2756 -0.5825
 6975TIP3    H142416   0.731   3.245  15.597  0.6711 -0.6257 -0.5189
 6975TIP3    H242417   0.834   3.351  15.563  2.5275 -2.3539 -0.4720
 6976TIP3   OH242418   3.836   2.997   2.394  0.8930 -0.0952  0.2543
 6976TIP3    H142419   3.759   3.024   2.343  1.7146  2.1443  0.0598
 6976TIP3    H242420   3.910   3.011   2.335  1.7431  1.2180  1.5459
 6977TIP3   OH242421   3.308   5.953   1.619 -0.1233 -0.1030 -0.3629
 6977TIP3    H142422   3.295   5.916   1.532  1.7202 -0.2082 -0.6482
 6977TIP3    H242423   3.338   5.879   1.672 -3.0006 -0.4759  0.9212
 6978TIP3   OH242424   1.634   5.396   3.642  0.1080  0.3778  0.3376
 6978TIP3    H142425   1.705   5.405   3.706  0.3652 -1.5728  0.4048
 6978TIP3    H242426   1.678   5.402   3.557  0.0736  0.9467  0.3573
 6979TIP3   OH242427   5.384   2.339  11.252  0.0518  0.4662  0.4361
 6979TIP3    H142428   5.453   2.300  11.197  0.4911  0.7713  0.7618
 6979TIP3    H242429   5.403   2.432  11.253 -1.0056  0.7058 -0.3428
 6980TIP3   OH242430   5.708   0.156  14.914  0.5248  0.6161  0.2718
 6980TIP3    H142431   5.643   0.187  14.976 -0.3194 -0.9180  0.1942
 6980TIP3    H242432   5.690   0.205  14.834  0.5980  1.4378  0.7385
 6981TIP3   OH242433   3.611   2.401   6.541  1.0512  0.1469  0.0436
 6981TIP3    H142434   3.604   2.479   6.486 -1.6491 -0.6421 -0.8779
 6981TIP3    H242435   3.688   2.356   6.508 -0.1510 -0.0229 -2.8275
 6982TIP3   OH242436   0.839   1.329  10.825 -0.8793  0.0044 -0.3740
 6982TIP3    H142437   0.816   1.421  10.840  0.8842  0.1663  1.8550
 6982TIP3    H242438   0.846   1.321  10.730 -2.1735  1.8713 -0.6780
 6983TIP3   OH242439   5.383   6.757  16.179 -0.2671  0.0172  0.0510
 6983TIP3    H142440   5.398   6.849  16.198 -1.1298 -0.0247  1.0608
 6983TIP3    H242441   5.372   6.753  16.084 -1.6844  1.1961  0.1328
 6984TIP3   OH242442   2.394   1.663   3.134 -0.0817 -0.3524 -0.3958
 6984TIP3    H142443   2.404   1.721   3.210  1.9653 -0.5534 -0.4740
 6984TIP3    H242444   2.318   1.698   3.088 -0.5549  0.5918  1.0250
 6985TIP3   OH242445   5.799   2.751  12.905 -0.0507  0.2771  0.0350
 6985TIP3    H142446   5.733   2.723  12.968  1.7003 -2.0241  1.0281
 6985TIP3    H242447   5.782   2.698  12.827 -0.7473  1.3596 -0.5611
 6986TIP3   OH242448   3.493   1.440  14.484 -0.5854  0.2213  0.5712
 6986TIP3    H142449   3.550   1.512  14.511 -0.2918 -0.1288  0.8769
 6986TIP3    H242450   3.404   1.474  14.499 -0.4629  0.6883  0.2817
 6987TIP3   OH242451   3.770   1.855   6.218 -0.1227  0.5176 -0.0549
 6987TIP3    H142452   3.703   1.808   6.269  1.5747 -1.3030  0.6718
 6987TIP3    H242453   3.765   1.945   6.250 -0.1682 -0.2279  2.2941
 6988TIP3   OH242454   1.665   3.502  14.227  0.0723 -0.1024 -0.7276
 6988TIP3    H142455   1.720   3.425  14.219 -0.5358 -0.4583 -1.6585
 6988TIP3    H242456   1.609   3.500  14.149 -0.2138  1.0660 -0.5761
 6989TIP3   OH242457   0.011   3.889  16.359  0.1658  0.0265 -0.1933
 6989TIP3    H142458   0.056   3.846  16.286  1.7522  1.3873 -0.0738
 6989TIP3    H242459   0.044   3.844  16.437 -0.1317 -0.2145 -0.2041
 6990TIP3   OH242460   0.306   5.858  13.344 -0.6472  0.0942  0.5311
 6990TIP3    H142461   0.289   5.878  13.436  0.4369 -0.9399  0.9937
 6990TIP3    H242462   0.317   5.943  13.302 -1.4236  0.5848  1.2975
 6991TIP3   OH242463   2.554   4.666   2.728  0.3005  0.9440  0.0306
 6991TIP3    H142464   2.473   4.713   2.709  0.4425  0.4525 -2.0064
 6991TIP3    H242465   2.623   4.728   2.708  0.4955 -0.0543 -2.8744
 6992TIP3   OH242466   1.331   0.224   4.933 -0.1866  0.2847 -0.0838
 6992TIP3    H142467   1.403   0.284   4.912 -0.0310 -0.0146 -0.4065
 6992TIP3    H242468   1.320   0.172   4.854 -0.0248 -0.4166  0.3479
 6993TIP3   OH242469   4.235   1.536   3.393 -0.4082 -0.2512  0.1485
 6993TIP3    H142470   4.299   1.480   3.348  0.2343 -0.6257  1.4620
 6993TIP3    H242471   4.174   1.474   3.434 -1.4197  0.0995 -0.7733
 6994TIP3   OH242472   6.584   5.309   0.822  0.1708  0.3199  0.5120
 6994TIP3    H142473   6.612   5.322   0.731 -1.1679  0.1830  0.0555
 6994TIP3    H242474   6.663   5.326   0.874  1.1824 -0.3888 -0.7179
 6995TIP3   OH242475   6.632   6.305  12.625  0.6409  0.5072 -0.3535
 6995TIP3    H142476   6.677   6.343  12.701  0.2530 -1.4740  0.9489
 6995TIP3    H242477   6.666   6.216  12.619 -0.2025  0.2509 -1.7967
 6996TIP3   OH242478   5.145   6.602  15.624 -0.3900  0.0611  0.5194
 6996TIP3    H142479   5.081   6.644  15.682  1.2955  2.0532  1.0711
 6996TIP3    H242480   5.170   6.671  15.563  0.1906 -1.1061 -0.5974
 6997TIP3   OH242481   0.636   2.705  16.160 -0.0548  0.0630 -0.2355
 6997TIP3    H142482   0.589   2.789  16.160 -0.6347 -0.2151  1.6959
 6997TIP3    H242483   0.723   2.726  16.191 -0.5496 -0.1723  1.4154
 6998TIP3   OH242484   6.169   6.302   5.423  0.4211  0.0544  0.7739
 6998TIP3    H142485   6.191   6.395   5.436 -0.6507  0.2886  1.0185
 6998TIP3    H242486   6.182   6.288   5.329 -0.2775  0.7133  0.5643
 6999TIP3   OH242487   0.868   4.050  14.990  0.0309 -0.0546 -0.2431
 6999TIP3    H142488   0.957   4.017  15.005 -0.0601 -1.8974 -2.9587
 6999TIP3    H242489   0.851   4.107  15.064  2.6725 -1.3058  1.4977
 7000TIP3   OH242490   3.952   4.680  15.829 -0.2547 -0.3060 -0.1034
 7000TIP3    H142491   3.858   4.689  15.811  0.2327  0.7485 -2.4212
 7000TIP3    H242492   3.977   4.763  15.869  0.0563  0.1939 -1.3175
 7001TIP3   OH242493   4.531   3.323   5.887  0.5813 -0.4149 -0.0678
 7001TIP3    H142494   4.616   3.368   5.883  0.4561 -0.0478  1.0811
 7001TIP3    H242495   4.471   3.390   5.920  0.0410 -0.9567  0.0526
 7002TIP3   OH242496   1.123   5.120   4.996  0.4381  0.1706 -0.1997
 7002TIP3    H142497   1.212   5.094   5.021  0.0787  0.0568  0.9940
 7002TIP3    H242498   1.075   5.125   5.078 -0.6656  0.2544 -0.8311
 7003TIP3   OH242499   5.856   4.198  15.443 -0.3328  0.0414  0.0536
 7003TIP3    H142500   5.873   4.233  15.356  0.6739  1.9871  0.9784
 7003TIP3    H242501   5.768   4.227  15.464  1.0453  3.7429  1.4676
 7004TIP3   OH242502   0.043   5.659   6.273 -0.5005 -0.3263 -0.3434
 7004TIP3    H142503   0.035   5.718   6.348 -1.2605 -1.4677  0.4919
 7004TIP3    H242504   0.082   5.714   6.205 -1.0626  1.1202  0.4391
 7005TIP3   OH242505   5.664   4.066   4.391 -0.2477 -0.3322 -0.8762
 7005TIP3    H142506   5.718   3.987   4.380  0.9601  0.2194  0.6182
 7005TIP3    H242507   5.575   4.033   4.403  0.0859 -1.4123 -1.2297
 7006TIP3   OH242508   1.049   5.166   5.717 -0.4799  0.2304  0.2609
 7006TIP3    H142509   1.013   5.196   5.800  0.8663  1.7612  0.3412
 7006TIP3    H242510   1.127   5.116   5.741  0.5464  1.6051 -0.0685
 7007TIP3   OH242511   0.933   2.925  13.729  0.0066 -0.1539  0.4417
 7007TIP3    H142512   0.953   2.832  13.737 -1.0885 -0.5597 -1.1623
 7007TIP3    H242513   1.002   2.960  13.672  0.9620  0.2587  1.7873
 7008TIP3   OH242514   0.025   4.345  16.763  0.2402  0.3679  0.3209
 7008TIP3    H142515   0.077   4.419  16.732 -0.2963  0.7133  0.2299
 7008TIP3    H242516  -0.026   4.381  16.836 -1.0825  0.4747 -0.6231
 7009TIP3   OH242517   1.620   5.499  13.689 -0.3889  0.0496  0.0445
 7009TIP3    H142518   1.568   5.568  13.648 -0.4772  0.9168  1.5322
 7009TIP3    H242519   1.677   5.545  13.751 -0.5356 -1.2014  1.1648
 7010TIP3   OH242520   4.738   1.916   2.540  0.3528 -0.0238 -0.1391
 7010TIP3    H142521   4.760   1.961   2.622  1.0639  0.0131 -0.3468
 7010TIP3    H242522   4.822   1.883   2.507 -0.2824 -2.8582  0.7848
 7011TIP3   OH242523   1.588   2.738  11.023  0.2889 -0.1829  0.1741
 7011TIP3    H142524   1.677   2.731  10.989  0.4618 -1.1196  0.7945
 7011TIP3    H242525   1.556   2.648  11.025 -0.6791  0.1436 -0.0418
 7012TIP3   OH242526   1.967   2.141  16.181  0.9510 -0.1348 -0.5073
 7012TIP3    H142527   2.055   2.106  16.165  1.5690 -0.1007  2.1848
 7012TIP3    H242528   1.981   2.235  16.196  0.0915  0.3078 -2.2901
 7013TIP3   OH242529   2.366   6.049   2.799  0.1918 -0.0437  0.0797
 7013TIP3    H142530   2.312   5.971   2.788  0.1065  0.2222 -1.7147
 7013TIP3    H242531   2.352   6.075   2.890 -0.9582 -1.2463  0.2849
 7014TIP3   OH242532   2.129   6.517  16.864 -0.4017  0.7086  0.4503
 7014TIP3    H142533   2.218   6.503  16.832 -0.2660  1.0460  0.6666
 7014TIP3    H242534   2.141   6.570  16.943 -0.8631  1.8981 -0.2504
 7015TIP3   OH242535   3.755   4.844  11.549 -0.2132  0.4262 -0.1320
 7015TIP3    H142536   3.806   4.817  11.473 -1.4596  0.7425 -1.1170
 7015TIP3    H242537   3.760   4.940  11.549  0.5210  0.4020  0.7308
 7016TIP3   OH242538   0.647   4.192  11.681 -0.0248 -0.7096 -0.3720
 7016TIP3    H142539   0.618   4.216  11.769 -3.1161  0.0193 -1.4405
 7016TIP3    H242540   0.616   4.102  11.669 -0.4250 -0.5052 -0.9644
 7017TIP3   OH242541   1.455   6.156  16.464  0.0943  0.0674 -0.7064
 7017TIP3    H142542   1.387   6.203  16.416 -0.0898 -0.3590 -0.8774
 7017TIP3    H242543   1.505   6.111  16.396  0.6187  0.4656 -0.5881
 7018TIP3   OH242544   0.500   5.090  15.280  0.2552  0.1713  0.5289
 7018TIP3    H142545   0.455   5.174  15.280 -0.5232 -0.2193  1.2650
 7018TIP3    H242546   0.430   5.026  15.299  0.7717 -0.6678 -0.2934
 7019TIP3   OH242547   0.207   5.046  12.439  0.4471  0.3012  0.1485
 7019TIP3    H142548   0.122   5.078  12.409  0.4812  1.3010  1.0566
 7019TIP3    H242549   0.187   4.979  12.504  0.3277  0.8103  0.6507
 7020TIP3   OH242550   3.715   2.881  12.310  0.6928 -0.3974 -0.1363
 7020TIP3    H142551   3.691   2.909  12.398 -0.2971 -1.0857 -0.1732
 7020TIP3    H242552   3.633   2.885  12.260  1.5710  1.8549 -1.5624
 7021TIP3   OH242553   0.057   6.806   6.713 -0.4419 -0.1146  0.2039
 7021TIP3    H142554  -0.039   6.797   6.718 -0.2825 -2.1135  0.5959
 7021TIP3    H242555   0.086   6.723   6.676  1.2070  0.1797  0.7853
 7022TIP3   OH242556   6.777   0.433   2.121 -0.3152 -0.2259 -0.0830
 7022TIP3    H142557   6.710   0.376   2.159 -0.6259 -0.9092 -1.5849
 7022TIP3    H242558   6.807   0.386   2.043  0.2933  1.1123 -0.6799
 7023TIP3   OH242559   6.180   2.834   2.713 -0.2335  0.1421  0.2549
 7023TIP3    H142560   6.163   2.896   2.784  0.0323 -1.3313  1.6506
 7023TIP3    H242561   6.094   2.801   2.689 -0.1781 -0.9262  1.4001
 7024TIP3   OH242562   6.186   4.941  12.271 -0.2125  0.6207  0.1716
 7024TIP3    H142563   6.214   5.021  12.313 -0.4590  1.0965 -0.5485
 7024TIP3    H242564   6.126   4.900  12.334  2.1317 -0.4985  1.7946
 7025TIP3   OH242565   4.127   2.794  15.607 -0.0972 -0.2450 -0.3985
 7025TIP3    H142566   4.060   2.814  15.542 -0.3744 -0.4357 -0.1749
 7025TIP3    H242567   4.138   2.876  15.656  2.7224  1.0891 -2.9518
 7026TIP3   OH242568   1.174   2.167  15.242  0.0854  0.3759  0.4961
 7026TIP3    H142569   1.161   2.101  15.173  0.2942  2.0156 -1.1729
 7026TIP3    H242570   1.266   2.194  15.233  0.2111  0.3944  1.6499
 7027TIP3   OH242571   4.414   2.839  15.229 -0.3561 -0.0090  0.7086
 7027TIP3    H142572   4.370   2.922  15.212 -0.3940 -0.0655  0.5371
 7027TIP3    H242573   4.352   2.772  15.202  0.9096 -0.0994 -2.3002
 7028TIP3   OH242574   2.418   0.977   1.421  0.5576 -0.3149 -0.1048
 7028TIP3    H142575   2.369   1.002   1.499  0.1046 -0.8534 -0.2126
 7028TIP3    H242576   2.499   0.939   1.455  1.4310  1.5755  0.0600
 7029TIP3   OH242577   4.633   4.623   4.283  0.2915 -0.8380  0.1610
 7029TIP3    H142578   4.559   4.566   4.265 -0.3099 -0.2313  0.6685
 7029TIP3    H242579   4.637   4.683   4.208 -1.1084  0.5399  1.1373
 7030TIP3   OH242580   6.431   1.558  15.680  0.2952 -0.2262 -0.5017
 7030TIP3    H142581   6.510   1.509  15.703  0.6109  0.9534  1.0945
 7030TIP3    H242582   6.449   1.593  15.593  0.4667 -2.0573 -1.2418
 7031TIP3   OH242583   6.181   4.481   2.860 -0.0072  0.4052 -0.1013
 7031TIP3    H142584   6.211   4.533   2.934  1.8334  1.7147 -1.6552
 7031TIP3    H242585   6.151   4.399   2.899 -1.3835  1.9127  2.2734
 7032TIP3   OH242586   3.007   5.655   0.058 -0.3850 -0.2220 -0.1132
 7032TIP3    H142587   3.041   5.708  -0.014  0.0324  0.7762  0.7946
 7032TIP3    H242588   3.073   5.588   0.072  0.6892  0.9717  0.8306
 7033TIP3   OH242589   6.799   5.256  11.685 -0.5065  0.3467 -0.1016
 7033TIP3    H142590   6.845   5.197  11.625 -0.1709  0.3582  0.1441
 7033TIP3    H242591   6.724   5.204  11.716 -1.0831  0.5778 -1.0591
 7034TIP3   OH242592   0.842   3.428   5.077 -0.5765  0.0646  0.3026
 7034TIP3    H142593   0.793   3.460   5.001 -0.1676 -0.4836 -0.2033
 7034TIP3    H242594   0.779   3.377   5.127 -0.3279 -1.4367 -0.8420
 7035TIP3   OH242595   3.636   3.481  14.634 -0.0276  1.0566 -0.0994
 7035TIP3    H142596   3.651   3.566  14.592  0.5286  0.7420 -0.5390
 7035TIP3    H242597   3.722   3.439  14.636 -0.5957 -0.3088 -1.6477
 7036TIP3   OH242598   0.301   5.500   0.558 -0.7392  0.1253 -0.0241
 7036TIP3    H142599   0.340   5.543   0.634  0.1567  0.9494 -0.9074
 7036TIP3    H242600   0.213   5.477   0.585 -0.4418  0.4284  1.2471
 7037TIP3   OH242601   4.757   3.801  13.910 -0.0234 -0.0578  0.7310
 7037TIP3    H142602   4.737   3.722  13.960 -1.2444 -0.3520 -0.1689
 7037TIP3    H242603   4.770   3.869  13.976 -1.0975 -0.5405  1.4607
 7038TIP3   OH242604   1.081   4.271   2.012  0.0854  0.4462  0.0803
 7038TIP3    H142605   1.111   4.203   1.952  2.8195  1.1566  0.5268
 7038TIP3    H242606   0.996   4.240   2.043 -0.2385 -1.1497 -2.1806
 7039TIP3   OH242607   4.799   1.917  13.066 -0.0382  0.5277  0.1817
 7039TIP3    H142608   4.724   1.930  13.009 -1.5773  0.7363  2.1559
 7039TIP3    H242609   4.805   1.997  13.117  1.7437  0.6304 -0.1030
 7040TIP3   OH242610   2.877   6.334  13.763 -0.3914  0.3164 -0.1501
 7040TIP3    H142611   2.906   6.329  13.672 -0.1583  0.3453 -0.0790
 7040TIP3    H242612   2.943   6.284  13.811 -0.4202  0.4465  0.0236
 7041TIP3   OH242613   6.795   1.840  14.067  0.1950  0.0723  0.3358
 7041TIP3    H142614   6.730   1.841  14.138  0.7042 -1.3924  0.8713
 7041TIP3    H242615   6.877   1.814  14.110  0.3274 -1.7615 -0.8808
 7042TIP3   OH242616   2.707   3.321  12.809 -0.4825 -0.2090 -0.2741
 7042TIP3    H142617   2.663   3.268  12.743  1.3324 -3.4792  0.9345
 7042TIP3    H242618   2.796   3.286  12.813  0.5310  2.2289  1.4927
 7043TIP3   OH242619   1.991   2.778   2.478  0.2238 -0.0884 -0.0364
 7043TIP3    H142620   2.077   2.814   2.501  0.8311 -0.6347 -1.3661
 7043TIP3    H242621   1.932   2.815   2.544  1.7088 -0.9378  1.8633
 7044TIP3   OH242622   1.882   3.848  13.051  0.1853  0.3801 -0.1879
 7044TIP3    H142623   1.800   3.810  13.083 -0.0385  0.6257 -0.4635
 7044TIP3    H242624   1.873   3.848  12.956  0.5984  0.2050 -0.2254
 7045TIP3   OH242625   5.591   6.529   1.143  0.3526 -0.1637 -0.1164
 7045TIP3    H142626   5.610   6.611   1.188 -1.5351  0.4767 -0.4316
 7045TIP3    H242627   5.675   6.502   1.106  0.9914  1.6436 -0.0537
 7046TIP3   OH242628   5.687   1.501   4.411 -0.4371 -0.0337 -0.6253
 7046TIP3    H142629   5.623   1.530   4.347  0.8110 -2.2215 -3.0469
 7046TIP3    H242630   5.756   1.459   4.360  0.8992 -1.4919  2.1182
 7047TIP3   OH242631   2.849   2.066  16.434 -0.5177  0.4112 -0.5081
 7047TIP3    H142632   2.831   2.138  16.494  0.0152 -1.2812  1.8009
 7047TIP3    H242633   2.820   1.988  16.480  0.1820 -1.0211 -2.3514
 7048TIP3   OH242634   5.768   2.616  14.979  0.3353  0.0311 -0.2740
 7048TIP3    H142635   5.783   2.522  14.981  1.0495  0.1471  0.1923
 7048TIP3    H242636   5.694   2.627  14.920 -0.5236 -0.9322  0.5774
 7049TIP3   OH242637   2.312   4.328  12.897  0.3636 -0.5072 -0.1398
 7049TIP3    H142638   2.303   4.382  12.818  0.6717  0.2425  0.3234
 7049TIP3    H242639   2.238   4.354  12.952 -0.3307 -1.6299 -0.5108
 7050TIP3   OH242640   6.811   4.802  15.862 -0.6188  0.2544  0.2829
 7050TIP3    H142641   6.758   4.763  15.792 -0.3491  0.8911 -0.2947
 7050TIP3    H242642   6.814   4.736  15.931  0.8652 -1.2673 -1.1625
 7051TIP3   OH242643   5.585   1.611   2.812  0.0251 -0.4281  0.4193
 7051TIP3    H142644   5.595   1.643   2.902  2.1193 -0.0949  0.1346
 7051TIP3    H242645   5.580   1.516   2.821  1.6345 -0.5091  0.8624
 7052TIP3   OH242646   2.540   5.243   2.027 -0.0702 -0.2417  0.4648
 7052TIP3    H142647   2.539   5.320   1.970  1.0683 -0.6759 -0.1849
 7052TIP3    H242648   2.448   5.218   2.036 -0.3190  0.1440 -0.7843
 7053TIP3   OH242649   0.255   1.061  17.149 -0.2234 -0.5889  0.0395
 7053TIP3    H142650   0.345   1.090  17.164 -0.0203 -1.9591  1.7372
 7053TIP3    H242651   0.254   1.034  17.057  1.1413 -0.6763  0.0248
 7054TIP3   OH242652   1.457   2.637   1.822 -0.2998  0.1244 -0.1707
 7054TIP3    H142653   1.453   2.733   1.819  0.0938  0.1435 -0.1407
 7054TIP3    H242654   1.408   2.609   1.744 -0.0457  0.3634 -0.4220
 7055TIP3   OH242655   5.311   2.921  12.231  0.6348 -0.2235 -0.9202
 7055TIP3    H142656   5.334   3.013  12.243 -1.7303  0.5270 -1.5617
 7055TIP3    H242657   5.318   2.906  12.137 -1.0713 -0.0160 -1.1202
 7056TIP3   OH242658   4.328   6.317   0.139  0.0762 -0.3088  0.4894
 7056TIP3    H142659   4.267   6.303   0.212  0.5851 -0.6395  0.8506
 7056TIP3    H242660   4.279   6.374   0.079 -0.6568 -0.7030  0.6916
 7057TIP3   OH242661   3.190   5.242   0.918  0.1460 -0.4946 -0.5842
 7057TIP3    H142662   3.159   5.315   0.865 -1.2975 -0.6023  0.0593
 7057TIP3    H242663   3.177   5.271   1.009  0.4783 -1.1750 -0.3060
 7058TIP3   OH242664   1.644   5.215  16.970 -0.6769  0.2534 -0.5991
 7058TIP3    H142665   1.662   5.157  17.044  0.0425 -1.6128 -2.1709
 7058TIP3    H242666   1.698   5.293  16.987 -0.2646 -0.2749  0.6524
 7059TIP3   OH242667   6.436   1.607   4.338  0.0895  0.1748 -0.8012
 7059TIP3    H142668   6.439   1.513   4.359 -1.2711  0.2672 -0.0483
 7059TIP3    H242669   6.480   1.614   4.254 -1.1385 -1.3936 -1.6333
 7060TIP3   OH242670   2.082   1.086   6.241 -0.4243  0.0268  0.4259
 7060TIP3    H142671   2.089   1.155   6.175 -2.4553  0.2795  0.4006
 7060TIP3    H242672   1.999   1.103   6.285 -0.1411 -1.3937  1.6157
 7061TIP3   OH242673   3.503   0.048   5.150  0.2351  0.1256  0.2101
 7061TIP3    H142674   3.412   0.021   5.157 -0.4804  2.3538  0.2305
 7061TIP3    H242675   3.512   0.119   5.214  1.6304  0.7887 -0.6798
 7062TIP3   OH242676   4.007   5.601  12.698  0.2150 -0.5633  0.3182
 7062TIP3    H142677   4.077   5.665  12.685 -1.1017  0.9198  0.1933
 7062TIP3    H242678   4.035   5.551  12.775  0.1763  1.8085  1.9910
 7063TIP3   OH242679   5.925   5.200   4.543  0.1152 -0.2432  0.3137
 7063TIP3    H142680   5.974   5.274   4.506 -1.4055  1.0513  0.7537
 7063TIP3    H242681   5.850   5.241   4.586 -0.4632 -2.0294  1.0950
 7064TIP3   OH242682   2.312   0.139  12.390  0.2223 -0.2604 -0.3148
 7064TIP3    H142683   2.338   0.116  12.479  1.6820 -0.0040 -0.6538
 7064TIP3    H242684   2.219   0.159  12.397 -0.1608 -2.1420  0.7760
 7065TIP3   OH242685   6.733   4.884   1.371 -0.1972  0.1826 -0.3775
 7065TIP3    H142686   6.796   4.854   1.306 -0.7723 -0.4879 -0.6506
 7065TIP3    H242687   6.648   4.874   1.327 -0.4395  2.0928 -0.4166
 7066TIP3   OH242688   0.592   6.444  14.954  0.1961 -0.6916 -0.2717
 7066TIP3    H142689   0.602   6.493  15.035  1.4373 -0.5015 -0.5183
 7066TIP3    H242690   0.680   6.440  14.917 -0.5760  0.6697 -2.4537
 7067TIP3   OH242691   1.085   3.411   3.230 -0.7072 -0.2113 -0.1694
 7067TIP3    H142692   1.112   3.495   3.267 -1.4658 -0.2433  0.4858
 7067TIP3    H242693   1.166   3.361   3.221 -0.2578  0.5654 -0.5083
 7068TIP3   OH242694   3.938   5.106  14.160  0.2204  0.0417 -0.1061
 7068TIP3    H142695   3.855   5.148  14.137 -0.0150 -0.1155  0.4317
 7068TIP3    H242696   3.919   5.012  14.156 -0.8255 -0.1232  3.8485
 7069TIP3   OH242697   6.138   1.431   0.192 -0.1034  0.2592  0.0918
 7069TIP3    H142698   6.062   1.461   0.242  0.5185  0.5604  0.8686
 7069TIP3    H242699   6.160   1.345   0.230 -0.4783 -0.1540 -0.6025
 7070TIP3   OH242700   1.300   4.306   2.292 -0.3688  0.1340  0.0282
 7070TIP3    H142701   1.353   4.346   2.223  0.6154  0.9320  1.2016
 7070TIP3    H242702   1.244   4.244   2.246 -0.1465  1.0473 -1.5530
 7071TIP3   OH242703   0.748   6.738  13.610  0.7145  0.7370  0.0054
 7071TIP3    H142704   0.701   6.760  13.530 -0.4546  1.8696  0.9451
 7071TIP3    H242705   0.779   6.649  13.596 -0.6567  0.3959 -1.1712
 7072TIP3   OH242706   3.860   3.555   1.336 -0.2329 -0.0929  0.2282
 7072TIP3    H142707   3.804   3.560   1.259 -0.7238  0.3144  0.6040
 7072TIP3    H242708   3.815   3.492   1.394 -0.6558  0.7245  0.8052
 7073TIP3   OH242709   1.808   6.800  11.413  0.2900  0.3596  0.0707
 7073TIP3    H142710   1.718   6.832  11.401 -0.2461 -1.1494 -0.1452
 7073TIP3    H242711   1.839   6.845  11.491 -1.2650 -0.3270  1.1310
 7074TIP3   OH242712   5.591   2.494  16.048  0.3561  0.0321  0.6762
 7074TIP3    H142713   5.515   2.525  16.099  1.8298  1.5710  2.0845
 7074TIP3    H242714   5.557   2.483  15.960 -1.2607  1.9740  0.9618
 7075TIP3   OH242715   0.646   1.076  15.172  0.1495 -0.0228 -0.5775
 7075TIP3    H142716   0.716   1.017  15.201  1.1880  1.6316  0.4623
 7075TIP3    H242717   0.683   1.163  15.182 -1.8563  0.8909 -0.6283
 7076TIP3   OH242718   6.375   2.628   5.336  0.1141 -0.1970  0.0724
 7076TIP3    H142719   6.281   2.645   5.338 -0.2478 -1.8866 -0.6693
 7076TIP3    H242720   6.390   2.571   5.412  0.4884 -0.1523  0.0317
 7077TIP3   OH242721   4.351   2.149   2.397 -0.0396  0.1551  0.2100
 7077TIP3    H142722   4.397   2.120   2.319 -1.1747 -0.7437 -0.1614
 7077TIP3    H242723   4.258   2.143   2.373 -0.3886  0.3669  1.4529
 7078TIP3   OH242724   3.700   5.048  11.307  0.8717  0.0845 -0.4848
 7078TIP3    H142725   3.757   5.108  11.259 -0.3660  0.5565 -1.4189
 7078TIP3    H242726   3.636   5.105  11.348 -0.0064 -0.5489 -0.9475
 7079TIP3   OH242727   1.262   5.913  11.313  0.6507 -0.5384  0.1623
 7079TIP3    H142728   1.261   5.860  11.392  1.4779 -1.2113 -0.2617
 7079TIP3    H242729   1.267   5.849  11.241  1.6143  0.0947 -0.3652
 7080TIP3   OH242730   5.714   3.070   0.068 -0.0370 -0.0748  0.0462
 7080TIP3    H142731   5.628   3.050   0.105  0.6590 -0.6048  1.4684
 7080TIP3    H242732   5.776   3.028   0.128  1.1936 -0.3177 -1.3372
 7081TIP3   OH242733   2.397   1.080   6.374  0.3340 -0.2724  0.0258
 7081TIP3    H142734   2.489   1.062   6.355  0.6254  2.6009 -1.8755
 7081TIP3    H242735   2.381   1.166   6.334 -3.3718 -0.9937 -0.3000
 7082TIP3   OH242736   5.520   2.096  15.378  0.2432 -0.5517  0.0811
 7082TIP3    H142737   5.444   2.095  15.437  0.3306 -0.5887  0.1936
 7082TIP3    H242738   5.538   2.188  15.363  0.9997 -0.5167  1.1203
 7083TIP3   OH242739   0.070   4.882  12.911  0.0954 -0.0514 -0.1858
 7083TIP3    H142740   0.060   4.902  13.004 -0.8986 -1.1465 -0.0242
 7083TIP3    H242741   0.090   4.966  12.870  2.4172  0.1651  1.2361
 7084TIP3   OH242742   3.497   5.604   6.863 -0.0745 -0.2623  0.0688
 7084TIP3    H142743   3.412   5.574   6.896 -0.1154 -1.1729 -0.8308
 7084TIP3    H242744   3.493   5.699   6.873 -0.9756 -0.3303  0.5518
 7085TIP3   OH242745   1.841   1.511  15.592 -0.1196  0.1541 -0.9408
 7085TIP3    H142746   1.925   1.529  15.635  0.5068 -1.2927 -1.4900
 7085TIP3    H242747   1.789   1.590  15.607  1.0823  0.8034  0.0206
 7086TIP3   OH242748   0.503   3.075   3.457 -0.8359  0.1505  0.2899
 7086TIP3    H142749   0.527   3.080   3.550 -2.5023 -1.8813  0.8850
 7086TIP3    H242750   0.486   3.166   3.432 -0.4291  0.7275  1.9757
 7087TIP3   OH242751   6.558   5.039  14.142 -0.0537  0.2902  0.3231
 7087TIP3    H142752   6.601   5.121  14.166 -0.6254  0.1054  2.1253
 7087TIP3    H242753   6.465   5.061  14.135 -0.3100 -0.3393  1.5764
 7088TIP3   OH242754   1.010   1.241   5.003 -0.0432  0.1702 -0.5531
 7088TIP3    H142755   0.927   1.287   5.018 -0.8218 -1.4596  0.3669
 7088TIP3    H242756   0.987   1.170   4.942  1.1783  1.0482 -2.1069
 7089TIP3   OH242757   1.719   5.958   1.407  0.1931  0.4464 -0.4755
 7089TIP3    H142758   1.675   5.931   1.327  0.1370 -2.0003  0.2966
 7089TIP3    H242759   1.651   5.956   1.474  0.8432 -0.5424  0.1844
 7090TIP3   OH242760   5.433   4.042  11.454 -0.7390 -0.0996  0.0822
 7090TIP3    H142761   5.414   3.950  11.432 -0.8567 -0.3687  1.2481
 7090TIP3    H242762   5.392   4.092  11.384 -0.9295 -0.9281 -0.4129
 7091TIP3   OH242763   0.363   5.256   5.641 -0.4053  0.7380 -0.3822
 7091TIP3    H142764   0.357   5.319   5.713 -0.2886  1.2902 -0.8439
 7091TIP3    H242765   0.449   5.271   5.603 -0.2166  0.0072 -0.2415
 7092TIP3   OH242766   6.120   4.000   3.786 -0.3166  0.0076 -0.5518
 7092TIP3    H142767   6.136   4.034   3.698  0.1133  0.2809 -0.3735
 7092TIP3    H242768   6.027   3.979   3.788 -0.1327 -0.9643 -1.4051
 7093TIP3   OH242769   4.089   1.378   3.539  0.5000 -0.5361 -0.0962
 7093TIP3    H142770   3.994   1.380   3.538  0.4934 -0.5938 -1.3318
 7093TIP3    H242771   4.112   1.342   3.624 -0.5822 -0.4784  0.2255
 7094TIP3   OH242772   1.743   1.898  11.261 -0.3323 -0.6527  0.0739
 7094TIP3    H142773   1.731   1.835  11.190 -0.3987 -1.0063  0.3953
 7094TIP3    H242774   1.773   1.978  11.218 -1.7135 -0.4282 -0.5112
 7095TIP3   OH242775   4.106   2.494   0.852  0.3239  0.0757  0.5009
 7095TIP3    H142776   4.120   2.401   0.872 -1.4600 -0.0081  1.6254
 7095TIP3    H242777   4.012   2.500   0.834  0.4402  1.6478  0.3485
 7096TIP3   OH242778   3.920   2.363   5.179  0.0058  0.0399  0.1635
 7096TIP3    H142779   3.862   2.289   5.164  0.2626 -1.0477  3.5265
 7096TIP3    H242780   3.868   2.440   5.155 -1.3980 -1.0749 -0.5048
 7097TIP3   OH242781   3.646   2.648   3.173 -0.2582  0.0896  0.1787
 7097TIP3    H142782   3.665   2.732   3.214 -0.8229 -0.2060  1.0798
 7097TIP3    H242783   3.680   2.656   3.084  2.0269  0.3680  1.0204
 7098TIP3   OH242784   2.529   6.051   0.252  0.1795  0.0155 -0.0168
 7098TIP3    H142785   2.438   6.035   0.229 -0.1601 -0.5372  1.5999
 7098TIP3    H242786   2.576   5.975   0.216 -0.6096 -1.8310  2.6033
 7099TIP3   OH242787   2.377   0.522  14.463 -0.2443 -0.0959 -0.0657
 7099TIP3    H142788   2.420   0.457  14.518 -1.4427 -0.8125  0.0518
 7099TIP3    H242789   2.330   0.471  14.397 -0.2132  0.6971 -0.7141
 7100TIP3   OH242790   6.056   5.582   2.574  0.1741 -0.3473  0.0556
 7100TIP3    H142791   6.105   5.625   2.503 -0.5370  1.3388  0.5398
 7100TIP3    H242792   6.123   5.559   2.639  0.3686  2.6674  1.0934
 7101TIP3   OH242793   0.694   4.819  14.939 -0.3195  0.3167 -0.1866
 7101TIP3    H142794   0.640   4.890  14.974  0.8025  1.8907 -1.5328
 7101TIP3    H242795   0.661   4.806  14.850  0.9102  0.6673 -0.7030
 7102TIP3   OH242796   1.542   6.205   4.932  0.4172  0.5005  0.0674
 7102TIP3    H142797   1.498   6.134   4.980  1.6376 -0.8831 -0.7620
 7102TIP3    H242798   1.529   6.183   4.840 -0.1071  1.9770 -0.2377
 7103TIP3   OH242799   6.629   2.705  17.140 -0.3629 -0.0912 -0.4111
 7103TIP3    H142800   6.635   2.621  17.187 -2.2220 -0.0673 -0.0541
 7103TIP3    H242801   6.659   2.684  17.052  2.3968 -0.3287  0.4955
 7104TIP3   OH242802   4.033   4.793   5.566  0.7797  0.4832  0.0626
 7104TIP3    H142803   4.012   4.764   5.478 -1.3219  2.2260 -0.0939
 7104TIP3    H242804   4.062   4.714   5.611  1.1947 -0.5768 -1.9690
 7105TIP3   OH242805   2.501   5.495   3.447 -0.2617 -0.6224  0.1806
 7105TIP3    H142806   2.556   5.434   3.496  0.8541  0.2664  0.0834
 7105TIP3    H242807   2.475   5.561   3.511 -0.2183 -0.3868 -0.0424
 7106TIP3   OH242808   4.801   1.031   3.155 -0.1118  0.1260  0.0257
 7106TIP3    H142809   4.844   1.072   3.231  0.7190  0.7904 -0.7774
 7106TIP3    H242810   4.781   1.104   3.097  1.4740 -0.5731 -1.4891
 7107TIP3   OH242811   0.486   6.339  12.974 -0.2417 -0.0213  0.3022
 7107TIP3    H142812   0.564   6.335  13.029 -0.4443  0.6470  0.6447
 7107TIP3    H242813   0.520   6.335  12.885  0.2380  0.8737  0.4329
 7108TIP3   OH242814   4.128   0.959  10.691  0.0018 -0.0324  0.4169
 7108TIP3    H142815   4.166   0.918  10.769 -0.4625 -1.9034 -0.2915
 7108TIP3    H242816   4.050   1.004  10.723  1.2513  1.5044  1.4351
 7109TIP3   OH242817   4.585   2.781  16.588  0.0550  0.1352  0.4187
 7109TIP3    H142818   4.547   2.837  16.520 -0.5119  1.2071  1.5742
 7109TIP3    H242819   4.522   2.711  16.600  0.7862 -0.8175 -1.0736
 7110TIP3   OH242820   2.434   1.810  13.428 -0.3555 -0.0925 -0.5582
 7110TIP3    H142821   2.380   1.758  13.488  0.8001  0.2560  0.8370
 7110TIP3    H242822   2.373   1.870  13.386 -1.1268 -0.0102  0.6480
 7111TIP3   OH242823   2.092   3.105  13.023  0.8172 -0.5941 -0.4309
 7111TIP3    H142824   2.038   3.120  12.946  1.0628  0.2594 -0.4413
 7111TIP3    H242825   2.170   3.060  12.989  0.2490 -1.5972 -0.4497
 7112TIP3   OH242826   2.170   6.228  12.147 -0.2492  0.1028 -0.1739
 7112TIP3    H142827   2.098   6.166  12.133 -0.0145  0.2140 -2.1636
 7112TIP3    H242828   2.140   6.310  12.109  0.5323  0.4359 -0.1031
 7113TIP3   OH242829   5.617   3.048  12.099  0.0211 -0.4624 -0.2351
 7113TIP3    H142830   5.664   3.083  12.023  2.1320 -0.8109  0.8342
 7113TIP3    H242831   5.543   3.106  12.110 -1.4376 -1.4414 -3.6155
 7114TIP3   OH242832   3.804   5.400  12.204 -0.2672  0.0623 -0.3453
 7114TIP3    H142833   3.881   5.353  12.171  0.0234  0.0744  0.2909
 7114TIP3    H242834   3.838   5.452  12.278 -0.4724  1.6565 -1.3141
 7115TIP3   OH242835   2.409   6.701  16.733  0.2214 -0.3990  0.0763
 7115TIP3    H142836   2.324   6.671  16.765  0.8158  0.2085  2.4030
 7115TIP3    H242837   2.463   6.621  16.732 -0.3396 -0.7913 -1.4336
 7116TIP3   OH242838   1.614   0.306  10.882  0.5876  0.2078 -0.3477
 7116TIP3    H142839   1.617   0.270  10.970 -0.7674 -1.6651 -1.0002
 7116TIP3    H242840   1.705   0.321  10.859  0.9398  1.1231  1.4960
 7117TIP3   OH242841   4.890   3.218   0.970  0.2985 -0.6055  0.1995
 7117TIP3    H142842   4.859   3.287   0.913  1.5826  0.5895  0.8712
 7117TIP3    H242843   4.898   3.141   0.914 -1.3956 -0.2933 -0.5043
 7118TIP3   OH242844   5.467   6.005  11.075 -0.1076  0.1039 -0.1696
 7118TIP3    H142845   5.381   6.023  11.114  1.2279 -0.7837  3.5762
 7118TIP3    H242846   5.448   5.949  10.999 -2.8232  0.1958  0.3588
 7119TIP3   OH242847   5.867   1.469  16.629  0.2436 -0.4152 -0.3010
 7119TIP3    H142848   5.773   1.452  16.625 -0.0007  0.6955  0.4332
 7119TIP3    H242849   5.883   1.500  16.718  1.1868  0.0758 -0.6235
 7120TIP3   OH242850   5.112   3.272  16.418  0.2730  0.6103 -0.0657
 7120TIP3    H142851   5.017   3.282  16.425 -0.0371 -1.2481 -1.0896
 7120TIP3    H242852   5.133   3.198  16.475  1.2498  1.4939  0.7597
 7121TIP3   OH242853   2.910   1.193  14.113  0.2960 -0.3519  0.1102
 7121TIP3    H142854   2.942   1.278  14.140  1.0752 -0.3686 -0.7163
 7121TIP3    H242855   2.980   1.156  14.060 -0.7778 -0.6852 -1.1561
 7122TIP3   OH242856   3.537   2.621   6.369 -0.1964  0.7064  0.5662
 7122TIP3    H142857   3.476   2.683   6.410 -0.8962 -0.4098  1.2778
 7122TIP3    H242858   3.507   2.615   6.278 -0.8989  0.4792  0.8073
 7123TIP3   OH242859   0.742   4.646  10.426 -0.2772 -0.4079  0.0898
 7123TIP3    H142860   0.809   4.712  10.413 -0.6855  0.3285  1.5294
 7123TIP3    H242861   0.660   4.688  10.399 -0.5696 -0.2049  1.2132
 7124TIP3   OH242862   5.399   2.822   5.661  0.2251 -0.4403  0.4854
 7124TIP3    H142863   5.475   2.764   5.656 -0.6083 -1.5743  0.5872
 7124TIP3    H242864   5.354   2.796   5.741 -0.6895 -0.3165  0.0218
 7125TIP3   OH242865   1.853   0.947  12.012  0.1165 -0.0937 -0.4142
 7125TIP3    H142866   1.777   0.999  11.984 -0.1129  0.2313  0.7584
 7125TIP3    H242867   1.924   0.976  11.956 -0.2449  0.7814 -0.4391
 7126TIP3   OH242868   3.690   5.676   4.860 -0.1545 -0.0544 -0.8478
 7126TIP3    H142869   3.658   5.760   4.828 -1.2840 -0.5118 -0.9756
 7126TIP3    H242870   3.646   5.664   4.945  0.8382 -0.0244 -0.3192
 7127TIP3   OH242871   1.315   2.944   3.105 -0.3880 -1.3356  0.8987
 7127TIP3    H142872   1.383   2.889   3.067 -0.3327 -0.8257  0.2302
 7127TIP3    H242873   1.250   2.954   3.035 -0.5404 -0.8035  1.1075
 7128TIP3   OH242874   3.476   2.639  12.870 -0.1245  0.4428 -0.7195
 7128TIP3    H142875   3.504   2.549  12.852  3.4980  1.1627  0.3810
 7128TIP3    H242876   3.410   2.629  12.939 -0.4461 -1.3709 -1.2135
 7129TIP3   OH242877   3.314   6.766  10.762 -0.4661  0.7112 -0.1053
 7129TIP3    H142878   3.315   6.818  10.681  3.4158 -3.8176 -3.5472
 7129TIP3    H242879   3.258   6.691  10.741  0.4598 -0.4805  1.4900
 7130TIP3   OH242880   4.338   4.792  15.605  0.5814  0.2598  0.1673
 7130TIP3    H142881   4.373   4.802  15.517  0.0538  0.1976 -0.0543
 7130TIP3    H242882   4.244   4.778  15.592  0.7319 -1.3891  0.6421
 7131TIP3   OH242883   6.817   0.698  10.541 -0.2491 -0.2564  0.2352
 7131TIP3    H142884   6.822   0.638  10.467 -1.2257 -1.9651  1.5074
 7131TIP3    H242885   6.904   0.738  10.544  0.2408 -1.1604 -0.9829
 7132TIP3   OH242886   4.493   4.232  11.055  0.0254 -0.2677  0.1139
 7132TIP3    H142887   4.581   4.206  11.080 -0.3401 -1.6567  0.0514
 7132TIP3    H242888   4.505   4.298  10.987  1.0102 -0.3412  0.2046
 7133TIP3   OH242889   5.139   2.706  12.298  0.8276 -0.3162  0.6380
 7133TIP3    H142890   5.187   2.789  12.295  0.8013 -0.2875  0.9482
 7133TIP3    H242891   5.208   2.639  12.303  0.8868 -0.3888 -0.7230
 7134TIP3   OH242892   5.587   1.421  16.346  0.1225 -0.0709 -0.2711
 7134TIP3    H142893   5.585   1.410  16.441  3.2747  0.9492  0.0525
 7134TIP3    H242894   5.506   1.469  16.326  0.1683  1.2442  2.1763
 7135TIP3   OH242895   0.656   2.189   1.959 -0.0921  0.7339 -0.1284
 7135TIP3    H142896   0.751   2.199   1.964  0.0744 -0.3372 -0.7672
 7135TIP3    H242897   0.635   2.121   2.024 -0.3459  0.5497 -0.3988
 7136TIP3   OH242898   5.541   6.113  14.137 -0.1564 -0.0371 -0.6329
 7136TIP3    H142899   5.609   6.108  14.204 -1.1556  2.0559  0.6261
 7136TIP3    H242900   5.483   6.039  14.154  0.3744 -0.3365 -0.1072
 7137TIP3   OH242901   0.387   6.436   0.700  0.4325  0.2934  0.4391
 7137TIP3    H142902   0.406   6.422   0.792 -3.6660 -1.8310  1.1799
 7137TIP3    H242903   0.455   6.387   0.653  1.9913  0.5862  2.2804
 7138TIP3   OH242904   0.411   3.435  14.380  0.5056 -0.2708 -0.0286
 7138TIP3    H142905   0.326   3.394  14.364  0.1873  0.1376  0.5442
 7138TIP3    H242906   0.471   3.394  14.318 -0.1435 -0.4682 -0.5284
 7139TIP3   OH242907   5.896   3.893   4.320 -0.3232 -0.4899  0.1895
 7139TIP3    H142908   5.886   3.850   4.406 -1.9881  1.2034  0.9059
 7139TIP3    H242909   5.989   3.917   4.317 -0.2903 -0.3335  1.6426
 7140TIP3   OH242910   3.448   5.120  15.081 -0.1045 -0.0065  0.1144
 7140TIP3    H142911   3.393   5.149  15.009 -0.1931  0.6168  0.4203
 7140TIP3    H242912   3.404   5.044  15.117 -1.3708  1.1109  1.0348
 7141TIP3   OH242913   6.560   3.493  12.942 -0.0567  0.1192 -0.0431
 7141TIP3    H142914   6.610   3.422  12.982  1.3360  1.1048  0.0047
 7141TIP3    H242915   6.519   3.453  12.865  0.7387 -0.7173 -0.0410
 7142TIP3   OH242916   1.691   1.405   1.402 -0.5482 -0.3969 -0.2311
 7142TIP3    H142917   1.769   1.351   1.397 -0.6053 -0.4543 -0.4898
 7142TIP3    H242918   1.691   1.440   1.492  0.1876  0.2315 -0.4649
 7143TIP3   OH242919   0.397   5.103  14.682 -0.6178 -0.0154  0.3433
 7143TIP3    H142920   0.388   5.183  14.631  0.0625  2.4439  3.7511
 7143TIP3    H242921   0.334   5.042  14.642 -3.0326  3.0258 -0.9093
 7144TIP3   OH242922   6.418   6.587  16.599  0.2070 -0.0354  0.0975
 7144TIP3    H142923   6.467   6.604  16.519 -0.7029  0.5483 -0.3634
 7144TIP3    H242924   6.326   6.592  16.572 -0.2127  2.6356  1.5903
 7145TIP3   OH242925   2.083   4.435  13.050  0.4454 -0.1389 -0.0078
 7145TIP3    H142926   2.094   4.407  13.140  1.6482 -0.0273 -0.0974
 7145TIP3    H242927   2.063   4.529  13.056 -0.2866 -0.3060  0.1688
 7146TIP3   OH242928   2.391   4.639   0.130 -0.5543  0.2789  0.4688
 7146TIP3    H142929   2.327   4.628   0.060 -1.1216  0.6321  0.9252
 7146TIP3    H242930   2.451   4.564   0.119  0.8430  1.6083 -1.8804
 7147TIP3   OH242931   6.003   5.586  12.663  0.4116 -0.0790  0.0885
 7147TIP3    H142932   6.050   5.506  12.684 -0.8343 -1.0929 -0.8824
 7147TIP3    H242933   5.993   5.585  12.568  1.2573  1.7555 -0.0805
 7148TIP3   OH242934   5.010   2.706  12.753 -0.4865  0.2170 -0.3999
 7148TIP3    H142935   4.927   2.706  12.800  0.6657 -0.1682  1.7341
 7148TIP3    H242936   5.004   2.781  12.694 -2.1547  0.4675  0.0369
 7149TIP3   OH242937   6.754   5.955  12.367 -0.3170 -0.4823 -0.2931
 7149TIP3    H142938   6.751   5.860  12.378  1.3377 -0.5109  0.2047
 7149TIP3    H242939   6.725   5.990  12.451  0.7176 -0.5861  0.1225
 7150TIP3   OH242940   1.028   3.058   6.001 -0.8881  0.7112 -0.4570
 7150TIP3    H142941   1.001   3.107   6.079 -1.7932 -0.2978 -0.1141
 7150TIP3    H242942   0.947   3.039   5.956 -0.2789  2.8936 -2.7088
 7151TIP3   OH242943   2.124   3.200   0.222 -0.6680 -0.3124 -0.2439
 7151TIP3    H142944   2.182   3.268   0.256 -0.5128 -0.8483  0.6046
 7151TIP3    H242945   2.110   3.223   0.130  0.0142  0.4172 -0.1718
 7152TIP3   OH242946   6.417   3.709   2.602 -0.0982  0.0844 -0.0285
 7152TIP3    H142947   6.405   3.625   2.646 -1.5654  0.5783  0.5588
 7152TIP3    H242948   6.329   3.738   2.579 -0.0002  2.8318  2.4140
 7153TIP3   OH242949   2.495   5.728  12.604 -0.3650 -0.7745 -0.6513
 7153TIP3    H142950   2.430   5.724  12.534 -1.0002 -3.2330 -0.0515
 7153TIP3    H242951   2.457   5.675  12.674  1.1128 -0.0046  0.7985
 7154TIP3   OH242952   3.676   4.700  11.305 -0.1152 -0.6313 -0.0517
 7154TIP3    H142953   3.671   4.795  11.310 -1.1295 -0.6083 -0.9459
 7154TIP3    H242954   3.751   4.676  11.359  1.0738  0.7840 -0.9991
 7155TIP3   OH242955   4.080   6.830   2.399  0.9249  0.3066  0.1211
 7155TIP3    H142956   4.070   6.867   2.311  0.2790  1.2623  0.5693
 7155TIP3    H242957   4.112   6.741   2.385 -0.2057  0.0673 -1.1213
 7156TIP3   OH242958   3.513   1.554   3.829 -0.1927  0.4351 -0.3411
 7156TIP3    H142959   3.589   1.501   3.804 -0.8300 -0.5870 -0.1756
 7156TIP3    H242960   3.549   1.640   3.850  0.6155  0.7169 -2.6744
 7157TIP3   OH242961   0.040   0.846   2.327  0.1882  0.1895  0.2142
 7157TIP3    H142962   0.135   0.838   2.317 -0.1656 -1.9743 -2.5082
 7157TIP3    H242963   0.005   0.821   2.242 -2.8223  2.4563  0.6355
 7158TIP3   OH242964   2.755   0.075   2.028 -0.3110 -0.1674 -0.2683
 7158TIP3    H142965   2.701   0.011   2.074  0.7759 -1.8896 -1.2690
 7158TIP3    H242966   2.692   0.137   1.990 -1.3927 -0.6060  0.7667
 7159TIP3   OH242967   3.961   6.442  11.834 -0.1930  0.3576  0.1305
 7159TIP3    H142968   4.019   6.450  11.758  0.0624  1.6582  0.4425
 7159TIP3    H242969   4.020   6.444  11.910 -0.3636 -1.7796  0.3839
 7160TIP3   OH242970   2.177   2.296   4.106 -0.1003  0.0817  0.0330
 7160TIP3    H142971   2.195   2.387   4.130  0.1755 -0.0182  0.2059
 7160TIP3    H242972   2.082   2.294   4.090 -0.0001  0.5766 -0.7162
 7161TIP3   OH242973   0.521   1.795   2.517 -0.2395  0.2897  0.3446
 7161TIP3    H142974   0.611   1.815   2.490 -0.6743  4.5567  1.3320
 7161TIP3    H242975   0.493   1.726   2.456  3.6541 -1.3701  0.1318
 7162TIP3   OH242976   2.367   5.646   5.066 -0.3533  0.0880 -0.1328
 7162TIP3    H142977   2.316   5.691   5.134  0.8778 -0.7652  1.4415
 7162TIP3    H242978   2.422   5.585   5.115  1.9037  0.6989 -1.7726
 7163TIP3   OH242979   2.873   3.850   1.096 -0.4260  0.4202  0.6785
 7163TIP3    H142980   2.818   3.906   1.151 -0.0473  2.0272 -0.4819
 7163TIP3    H242981   2.843   3.867   1.007  2.2479  1.8408 -0.0740
 7164TIP3   OH242982   2.197   3.462   5.555  0.2469  0.3325 -0.0065
 7164TIP3    H142983   2.117   3.515   5.551  0.7985  1.0869 -1.8265
 7164TIP3    H242984   2.268   3.523   5.534  1.1010 -0.7349 -0.3256
 7165TIP3   OH242985   1.260   4.404   4.755 -0.5426 -0.2031  0.5593
 7165TIP3    H142986   1.190   4.351   4.716 -0.7902 -0.1602  0.9415
 7165TIP3    H242987   1.337   4.387   4.700 -0.7945 -0.4293  0.2754
 7166TIP3   OH242988   3.991   4.821  16.961  0.6696 -0.2444  0.0816
 7166TIP3    H142989   3.945   4.803  17.043  1.9083  0.2771  0.9259
 7166TIP3    H242990   4.010   4.735  16.924 -1.6861 -0.4667 -0.7344
 7167TIP3   OH242991   6.094   5.696  11.276  0.0794 -0.3159  0.2329
 7167TIP3    H142992   6.187   5.716  11.272 -0.0001 -0.0602 -0.3642
 7167TIP3    H242993   6.062   5.708  11.186 -0.6554  0.2290  0.5538
 7168TIP3   OH242994   3.046   2.188  11.080  0.9212  0.3392 -0.1431
 7168TIP3    H142995   3.087   2.274  11.095 -0.1035  1.0076 -1.0047
 7168TIP3    H242996   3.055   2.174  10.986  1.2561 -0.6172  0.0176
 7169TIP3   OH242997   0.587   0.488   1.569 -0.0711 -0.0465  0.0822
 7169TIP3    H142998   0.602   0.541   1.647 -0.6604  1.2644 -0.6518
 7169TIP3    H242999   0.532   0.543   1.513 -0.7361 -1.4676 -0.7140
 7170TIP3   OH243000   4.928   0.895   1.369  0.4793  0.6922  0.4534
 7170TIP3    H143001   5.014   0.869   1.401  0.5272  0.7263  0.3554
 7170TIP3    H243002   4.882   0.926   1.446  0.3090  0.0241  0.6247
 7171TIP3   OH243003   4.986   3.507  11.549 -0.0714  0.6300  0.2098
 7171TIP3    H143004   4.917   3.528  11.485 -0.8658 -0.0275  0.8252
 7171TIP3    H243005   5.048   3.580  11.542 -0.4467  0.8661 -0.8816
 7172TIP3   OH243006   5.107   4.437   4.375  0.2858  0.6329 -0.3099
 7172TIP3    H143007   5.169   4.481   4.433  0.3775 -0.4543  0.4529
 7172TIP3    H243008   5.034   4.498   4.367 -0.4361  0.2434  2.2183
 7173TIP3   OH243009   2.443   4.149  11.852  0.6652  0.2446 -0.1340
 7173TIP3    H143010   2.409   4.218  11.909 -1.8633 -0.0843 -1.1045
 7173TIP3    H243011   2.419   4.177  11.764  2.9379 -0.1214 -0.9297
 7174TIP3   OH243012   2.113   6.689   1.961 -0.3658 -0.4046 -0.3738
 7174TIP3    H143013   2.103   6.637   2.041  0.6004 -0.6215 -0.3812
 7174TIP3    H243014   2.166   6.764   1.987  1.2635 -1.2523 -1.1110
 7175TIP3   OH243015   4.569   6.028   1.913 -0.1091  0.2876 -0.0274
 7175TIP3    H143016   4.570   5.952   1.971 -1.4950  0.6555  0.5131
 7175TIP3    H243017   4.476   6.047   1.901  0.2036  1.1908 -1.0930
 7176TIP3   OH243018   1.534   1.400  14.290  0.0565 -0.1648 -0.8943
 7176TIP3    H143019   1.605   1.439  14.342 -0.1998  1.9660 -2.0387
 7176TIP3    H243020   1.568   1.314  14.264  1.3212 -0.0934  0.3834
 7177TIP3   OH243021   4.329   1.822  10.468  0.3155 -0.0920 -0.1710
 7177TIP3    H143022   4.292   1.846  10.382 -0.6335  1.8642  0.7050
 7177TIP3    H243023   4.290   1.885  10.528  1.3953 -1.0757  1.6306
 7178TIP3   OH243024   0.810   1.744   6.222  0.3967 -0.0154 -0.5870
 7178TIP3    H143025   0.822   1.764   6.315  1.0898 -1.0166 -0.4441
 7178TIP3    H243026   0.854   1.816   6.176 -1.2248  1.3048 -0.2080
 7179TIP3   OH243027   4.312   6.090  14.046  0.4375  0.1279 -0.6064
 7179TIP3    H143028   4.378   6.158  14.035 -1.3141  1.7370 -1.7768
 7179TIP3    H243029   4.342   6.017  13.993  1.4673  0.6647 -0.7740
 7180TIP3   OH243030   3.991   6.382  12.748 -0.3535 -0.0268  0.0959
 7180TIP3    H143031   3.970   6.297  12.712  0.2347 -0.5329  0.9015
 7180TIP3    H243032   4.084   6.376  12.772 -0.5328  0.5202  0.9961
 7181TIP3   OH243033   0.821   6.061  12.449 -0.4928 -0.3387  0.1959
 7181TIP3    H143034   0.771   6.080  12.370 -0.8808  0.5597  0.6468
 7181TIP3    H243035   0.816   5.965  12.458 -3.7853 -0.1919  1.2679
 7182TIP3   OH243036   0.052   0.985  15.505 -0.5150 -0.3897  0.5326
 7182TIP3    H143037   0.132   1.035  15.493 -2.1630  3.0039  2.4415
 7182TIP3    H243038   0.075   0.917  15.568  0.5018  1.7566  2.6046
 7183TIP3   OH243039   1.845   6.513   3.374 -0.3044 -0.6819 -0.5007
 7183TIP3    H143040   1.871   6.453   3.444  0.6736  0.3777  0.0972
 7183TIP3    H243041   1.795   6.460   3.313 -0.2703 -1.8771  0.4783
 7184TIP3   OH243042   2.091   5.924  13.183  0.3581 -0.1335  0.4662
 7184TIP3    H143043   2.112   6.011  13.149  0.2723 -0.8678 -1.6040
 7184TIP3    H243044   2.167   5.870  13.159 -0.2730 -0.9757  0.3112
 7185TIP3   OH243045   0.681   5.976  15.418 -0.3707 -0.1996  0.9490
 7185TIP3    H143046   0.774   6.001  15.422 -0.2022 -0.2109 -1.5285
 7185TIP3    H243047   0.634   6.058  15.412 -0.2450 -0.2319 -1.0703
 7186TIP3   OH243048   4.348   6.335   2.997 -0.0448 -0.1190 -0.0956
 7186TIP3    H143049   4.275   6.397   2.994  0.8216  0.9815  0.7470
 7186TIP3    H243050   4.371   6.320   2.906  1.2698  2.7078 -0.3179
 7187TIP3   OH243051   5.099   2.658  14.669  0.4623  0.0381 -0.0497
 7187TIP3    H143052   5.158   2.597  14.713 -0.1625 -0.4889  0.0724
 7187TIP3    H243053   5.152   2.736  14.654  1.1019 -0.3167  0.3227
 7188TIP3   OH243054   0.493   4.504   1.150  1.1758  0.3968  0.1984
 7188TIP3    H143055   0.508   4.443   1.078 -0.3022 -1.4884  1.3600
 7188TIP3    H243056   0.436   4.571   1.113  2.2680  0.7314 -0.9358
 7189TIP3   OH243057   1.435   1.946  11.498 -0.5477 -0.3207 -0.2086
 7189TIP3    H143058   1.412   1.870  11.551 -2.1414  0.2860  0.0338
 7189TIP3    H243059   1.531   1.945  11.495 -0.5221 -2.1035  0.0946
 7190TIP3   OH243060   3.338   5.344   5.754  0.1320 -0.1533 -0.1800
 7190TIP3    H143061   3.405   5.286   5.789  0.1675 -0.8038 -1.2614
 7190TIP3    H243062   3.386   5.417   5.715  0.1670 -0.1336 -0.0984
 7191TIP3   OH243063   5.738   5.827  10.945 -0.0454  0.5189 -0.1870
 7191TIP3    H143064   5.679   5.790  10.879 -1.0796 -0.7537  1.3794
 7191TIP3    H243065   5.762   5.913  10.910 -2.0476  0.6713 -1.3310
 7192TIP3   OH243066   4.271   4.272   2.022  0.3914 -0.1450  0.5131
 7192TIP3    H143067   4.284   4.362   1.994  0.1282 -0.0531  0.6767
 7192TIP3    H243068   4.334   4.260   2.093 -0.7613  0.4843  1.6982
 7193TIP3   OH243069   6.783   0.987   6.614  0.0520 -0.6828 -0.7323
 7193TIP3    H143070   6.832   1.050   6.561 -1.1336  0.8856 -0.0352
 7193TIP3    H243071   6.707   0.964   6.559 -0.7631  0.3481 -0.0783
 7194TIP3   OH243072   0.955   0.536   2.144  0.2682  0.2201  0.9802
 7194TIP3    H143073   0.969   0.545   2.050 -1.3368  0.4082  0.7224
 7194TIP3    H243074   0.871   0.580   2.159 -0.5034 -1.5599  2.1552
 7195TIP3   OH243075   6.457   1.840  12.510  0.4427 -0.2191  0.9275
 7195TIP3    H143076   6.371   1.881  12.518  0.2873 -0.6816  1.7459
 7195TIP3    H243077   6.480   1.815  12.600  1.7913  0.6166  0.8408
 7196TIP3   OH243078   6.156   0.380  10.695  0.5416 -0.3712  0.1243
 7196TIP3    H143079   6.204   0.321  10.637 -0.2206 -0.6846 -0.1883
 7196TIP3    H243080   6.153   0.334  10.779 -0.4787 -1.0052 -0.2511
 7197TIP3   OH243081   6.708   1.273  17.070  0.2259  0.2347 -0.1336
 7197TIP3    H143082   6.657   1.266  16.989 -0.9444 -2.8365  0.7361
 7197TIP3    H243083   6.700   1.187  17.111  1.9988  1.2264  2.5595
 7198TIP3   OH243084   0.400   6.147  13.294  0.5984  0.2008 -0.4219
 7198TIP3    H143085   0.481   6.195  13.310  0.2186  0.6665  0.1822
 7198TIP3    H243086   0.337   6.185  13.356  0.7080 -2.1940  1.3097
 7199TIP3   OH243087   4.860   6.211  16.003  0.5470  0.2311 -0.2105
 7199TIP3    H143088   4.887   6.297  16.037 -0.5763  1.0866 -1.3782
 7199TIP3    H243089   4.764   6.216  16.000  0.5026 -0.8297 -0.9076
 7200TIP3   OH243090   2.700   2.564  10.525  0.5315  0.2804  0.3708
 7200TIP3    H143091   2.728   2.641  10.476  1.1319 -0.4477 -0.4511
 7200TIP3    H243092   2.760   2.559  10.599  0.7668  0.3577  0.1847
 7201TIP3   OH243093   4.637   0.749  12.896 -0.8913  0.1079 -0.2654
 7201TIP3    H143094   4.572   0.736  12.826  0.2502 -1.3042 -1.1292
 7201TIP3    H243095   4.588   0.737  12.977 -1.7580 -0.7475 -0.8910
 7202TIP3   OH243096   5.052   0.633   5.172  0.7370 -0.1338 -0.3793
 7202TIP3    H143097   5.063   0.624   5.267 -0.7847 -3.0991 -0.3633
 7202TIP3    H243098   4.993   0.708   5.162 -2.1335 -1.9546  1.3931
 7203TIP3   OH243099   5.753   6.360  14.533 -0.4571  0.1548  0.0830
 7203TIP3    H143100   5.830   6.383  14.584 -0.0653 -0.9667  0.0207
 7203TIP3    H243101   5.681   6.359  14.596 -0.0125 -1.0097  0.5955
 7204TIP3   OH243102   6.579   0.584  11.128  0.2000  0.1574  0.0682
 7204TIP3    H143103   6.664   0.545  11.107 -0.2235 -1.8036  1.7191
 7204TIP3    H243104   6.582   0.602  11.222 -1.5236 -0.8770  0.3666
 7205TIP3   OH243105   6.498   1.394   2.845  0.5292 -1.0145  0.2644
 7205TIP3    H143106   6.480   1.303   2.868  1.2251 -1.0314  0.7851
 7205TIP3    H243107   6.543   1.430   2.922  1.5824 -0.6498 -0.5005
 7206TIP3   OH243108   3.858   1.550   1.450 -0.2564  0.2895  0.0545
 7206TIP3    H143109   3.887   1.487   1.385 -1.2560  1.6750 -1.8387
 7206TIP3    H243110   3.931   1.613   1.456 -0.3200  0.3710 -0.0227
 7207TIP3   OH243111   5.194   2.795   1.834  0.0774  0.2265  0.3492
 7207TIP3    H143112   5.207   2.713   1.786 -0.5341  0.2609  0.1197
 7207TIP3    H243113   5.252   2.787   1.910  2.1291  0.7547 -1.0725
 7208TIP3   OH243114   4.826   4.929   0.471  0.3057  0.2100 -0.0721
 7208TIP3    H143115   4.880   4.990   0.522  0.8554 -2.2444  2.5252
 7208TIP3    H243116   4.773   4.884   0.537 -2.2872 -0.0520 -2.1901
 7209TIP3   OH243117   3.115   5.949   0.654  0.3422  0.0354  0.3368
 7209TIP3    H143118   3.105   6.013   0.724 -0.7304  1.6809 -1.2145
 7209TIP3    H243119   3.036   5.895   0.661  0.5311 -0.1860  0.7661
 7210TIP3   OH243120   1.259   2.469  14.783  0.2338 -0.8701 -0.4120
 7210TIP3    H143121   1.313   2.487  14.706 -1.1644 -0.4292 -1.3351
 7210TIP3    H243122   1.295   2.527  14.851 -0.0122  0.5506 -1.4401
 7211TIP3   OH243123   6.826   5.203   4.447  0.3245  0.0386 -0.4720
 7211TIP3    H143124   6.847   5.275   4.388  0.5840 -0.5551 -1.1166
 7211TIP3    H243125   6.862   5.125   4.404  1.3762 -0.2848  0.9388
 7212TIP3   OH243126   0.513   4.459   0.304  0.1272  0.2213  0.0165
 7212TIP3    H143127   0.596   4.417   0.327 -0.8275 -1.5473  0.3692
 7212TIP3    H243128   0.448   4.390   0.312 -1.2645  1.3314 -1.1902
 7213TIP3   OH243129   2.360   5.518   2.279  0.0020 -0.3546  0.6389
 7213TIP3    H143130   2.404   5.603   2.285 -1.0887  0.2066  1.0437
 7213TIP3    H243131   2.430   5.456   2.259  0.4136  1.1438 -3.9039
 7214TIP3   OH243132   2.893   0.966  11.526  0.1152  0.6102  0.1720
 7214TIP3    H143133   2.964   0.921  11.480 -1.3020 -2.5888  0.8721
 7214TIP3    H243134   2.902   0.937  11.617 -1.8472  0.4358  0.3475
 7215TIP3   OH243135   3.049   5.921  12.457 -0.1644 -0.0521 -0.2996
 7215TIP3    H143136   3.118   5.858  12.439 -0.9283 -1.2872  0.8499
 7215TIP3    H243137   3.064   5.948  12.548 -0.1182  1.0990 -0.6319
 7216TIP3   OH243138   5.334   6.780   1.870  0.2023 -0.2015  0.4998
 7216TIP3    H143139   5.376   6.752   1.951 -1.0967 -0.7800  1.0122
 7216TIP3    H243140   5.273   6.710   1.850 -0.2600  0.4392 -0.3928
 7217TIP3   OH243141   2.992   1.394  14.483  0.0992 -0.5048 -0.2900
 7217TIP3    H143142   3.029   1.481  14.498 -2.7018  0.5341  1.1417
 7217TIP3    H243143   2.974   1.391  14.389 -0.9283  0.9967 -0.1652
 7218TIP3   OH243144   6.134   6.461  13.336  0.3093 -0.1106 -0.9594
 7218TIP3    H143145   6.128   6.555  13.353  2.5672  0.9035 -4.4746
 7218TIP3    H243146   6.052   6.438  13.292  0.9168  1.0648 -2.8296
 7219TIP3   OH243147   1.524   5.957  14.563 -0.1204 -0.0704  0.5375
 7219TIP3    H143148   1.466   6.033  14.551 -0.8497 -0.3673  1.9066
 7219TIP3    H243149   1.596   5.971  14.502  0.3104  2.2812  1.4744
 7220TIP3   OH243150   2.689   6.108  11.679  0.2804 -0.0232  0.6535
 7220TIP3    H143151   2.691   6.039  11.745  0.0277  0.3958  1.1069
 7220TIP3    H243152   2.706   6.188  11.728 -0.3429  0.3409  0.2785
 7221TIP3   OH243153   0.794   4.367   3.065 -0.3571 -0.5102 -0.2533
 7221TIP3    H143154   0.705   4.333   3.060 -0.0240 -1.3686 -0.6151
 7221TIP3    H243155   0.784   4.458   3.095 -1.4650 -0.0959 -1.7494
 7222TIP3   OH243156   1.819   3.702   5.141 -0.3413 -0.3881  0.3619
 7222TIP3    H143157   1.777   3.637   5.085 -1.5285 -0.6831  1.5572
 7222TIP3    H243158   1.796   3.676   5.230 -0.0105  1.1045  0.9164
 7223TIP3   OH243159   2.433   0.699  11.845 -0.4190 -0.2984  0.5997
 7223TIP3    H143160   2.362   0.638  11.863 -1.2068  0.9367  1.9382
 7223TIP3    H243161   2.395   0.786  11.862  0.3487  0.6895 -2.2179
 7224TIP3   OH243162   6.387   1.987  14.713 -0.1523  0.1367  0.2495
 7224TIP3    H143163   6.445   2.029  14.777 -0.3898 -1.8708  1.9205
 7224TIP3    H243164   6.423   1.898  14.704 -1.8493 -0.5508 -0.1470
 7225TIP3   OH243165   1.027   4.392   0.732  0.1899  0.6422  0.1600
 7225TIP3    H143166   1.080   4.469   0.751  0.2432  0.8669 -0.8210
 7225TIP3    H243167   1.087   4.332   0.687  0.1718 -0.0214  0.9861
 7226TIP3   OH243168   4.082   4.088   2.087 -0.1452  0.2924 -0.1575
 7226TIP3    H143169   4.139   4.164   2.099  0.1134  0.2406 -1.0326
 7226TIP3    H243170   4.077   4.075   1.993 -0.4198 -0.6077 -0.0363
 7227TIP3   OH243171   3.062   4.887  12.954 -0.1303  0.8388 -0.2776
 7227TIP3    H143172   3.097   4.851  13.036  2.0458 -1.0723 -1.9159
 7227TIP3    H243173   2.976   4.845  12.944  0.4816 -0.5240  0.0190
 7228TIP3   OH243174   1.192   2.485  15.463  0.0459  0.2727 -0.7336
 7228TIP3    H143175   1.175   2.496  15.370 -0.3110 -1.4926 -0.9062
 7228TIP3    H243176   1.181   2.392  15.479  1.5339  0.3077  0.7986
 7229TIP3   OH243177   2.433   5.941  13.800 -0.2890 -0.1350 -0.2160
 7229TIP3    H143178   2.386   5.993  13.735 -0.4087 -0.3237 -0.2807
 7229TIP3    H243179   2.421   5.988  13.882 -1.3791 -0.6595 -0.0492
 7230TIP3   OH243180   2.330   6.258   1.232  0.1173 -0.1898  0.1809
 7230TIP3    H143181   2.414   6.250   1.276  0.1277 -0.3590  0.1321
 7230TIP3    H243182   2.282   6.324   1.282  0.3798  0.1034  0.0507
 7231TIP3   OH243183   5.472   4.705   2.819 -0.0230 -0.0197 -0.3097
 7231TIP3    H143184   5.559   4.743   2.808  0.2406 -0.6935 -0.6017
 7231TIP3    H243185   5.435   4.704   2.730  0.9118 -2.6291 -0.7740
 7232TIP3   OH243186   6.315   3.088  15.649  0.1967 -0.2247  0.0600
 7232TIP3    H143187   6.297   3.165  15.596  1.4785  0.5267  0.6672
 7232TIP3    H243188   6.229   3.054  15.672 -0.4019  1.0953 -0.1392
 7233TIP3   OH243189   4.566   3.868  12.459 -0.1838  0.3061  0.2454
 7233TIP3    H143190   4.494   3.826  12.506  1.2361 -1.1546  1.2070
 7233TIP3    H243191   4.599   3.800  12.400 -0.2327  1.2947 -0.9727
 7234TIP3   OH243192   4.362   0.769   0.368  0.1341  0.4791 -0.0807
 7234TIP3    H143193   4.449   0.739   0.344 -0.4634 -0.3219 -1.3635
 7234TIP3    H243194   4.342   0.839   0.306  0.5159  1.8825  1.3031
 7235TIP3   OH243195   1.818   5.894  13.533  0.4363  0.3168 -0.1047
 7235TIP3    H143196   1.816   5.976  13.484  3.2885  1.3453  1.2615
 7235TIP3    H243197   1.868   5.834  13.477  0.1807  0.1892 -0.1962
 7236TIP3   OH243198   0.597   2.215  10.588 -0.0476 -0.0241 -0.1371
 7236TIP3    H143199   0.534   2.275  10.547  0.3678  1.1995  0.9737
 7236TIP3    H243200   0.542   2.154  10.638 -0.3688  1.5361  1.4926
 7237TIP3   OH243201   6.122   4.635  11.164 -0.1757 -0.0533  0.0167
 7237TIP3    H143202   6.128   4.601  11.254 -0.6930  0.8173  0.3865
 7237TIP3    H243203   6.033   4.612  11.136  0.5941 -2.0478 -1.0042
 7238TIP3   OH243204   2.378   0.982   5.387  0.0975 -0.3055  0.7704
 7238TIP3    H143205   2.343   0.946   5.469  0.6356 -2.6826  0.0274
 7238TIP3    H243206   2.468   1.007   5.408  0.5062 -1.6942  0.7157
 7239TIP3   OH243207   5.508   2.607  12.464  0.4637 -0.1468  0.1559
 7239TIP3    H143208   5.451   2.554  12.409 -1.9464 -0.0877  2.3699
 7239TIP3    H243209   5.584   2.627  12.409 -0.1515 -2.9066 -1.9126
 7240TIP3   OH243210   4.706   0.640   5.650  0.3172 -0.2168 -0.1298
 7240TIP3    H143211   4.662   0.555   5.656 -1.1283  0.4656 -0.5967
 7240TIP3    H243212   4.638   0.700   5.620  0.3079  1.8856  3.5038
 7241TIP3   OH243213   4.096   1.536  11.705 -0.0723 -0.2770 -0.2353
 7241TIP3    H143214   4.126   1.514  11.793  2.7378 -1.4273 -1.3700
 7241TIP3    H243215   4.022   1.477  11.689  1.0201 -1.8782  0.4357
 7242TIP3   OH243216   0.587   4.026   4.537 -0.1681  0.9549  0.0550
 7242TIP3    H143217   0.507   4.079   4.539 -0.4768  0.4780  0.6763
 7242TIP3    H243218   0.654   4.085   4.502 -0.3680  1.9436  1.2690
 7243TIP3   OH243219   0.126   5.161   5.151 -0.1629 -0.2932 -0.2093
 7243TIP3    H143220   0.175   5.179   5.231  0.2164 -0.4273 -0.4074
 7243TIP3    H243221   0.155   5.073   5.124 -2.2721 -1.4105  0.9527
 7244TIP3   OH243222   1.319   4.478  15.381  0.4779 -0.3366 -0.3972
 7244TIP3    H143223   1.304   4.572  15.376  2.8765  0.1496  0.0004
 7244TIP3    H243224   1.317   4.448  15.290 -2.1318 -0.3232 -0.4202
 7245TIP3   OH243225   1.085   1.934  14.401 -0.0551  0.0719  0.2529
 7245TIP3    H143226   1.139   1.875  14.453 -0.5207 -2.0082 -1.5009
 7245TIP3    H243227   0.995   1.910  14.422 -0.2649  0.4985 -0.1183
 7246TIP3   OH243228   2.272   4.972   4.982  0.2008 -0.6562 -0.0382
 7246TIP3    H143229   2.363   4.964   4.953 -0.0361 -1.7260 -0.5152
 7246TIP3    H243230   2.222   4.985   4.902  0.2400  4.1495  0.3793
 7247TIP3   OH243231   3.020   2.120  14.029 -0.0846 -0.1573 -0.2791
 7247TIP3    H143232   2.977   2.057  14.086 -1.1589  0.3708 -0.4761
 7247TIP3    H243233   3.098   2.148  14.078  0.1271 -1.2305  0.0274
 7248TIP3   OH243234   6.120   0.438  16.679 -0.1648  0.2941  0.0862
 7248TIP3    H143235   6.171   0.480  16.748  0.3881  0.7033 -0.5617
 7248TIP3    H243236   6.164   0.462  16.597 -0.8595 -0.1016 -0.4244
 7249TIP3   OH243237   1.151   1.112   3.349  0.1569  0.2039 -0.2077
 7249TIP3    H143238   1.124   1.021   3.363 -0.4380  0.4359  0.2222
 7249TIP3    H243239   1.078   1.150   3.300 -0.7844  1.0777  1.7414
 7250TIP3   OH243240   6.154   5.002  16.213  0.2921 -0.1085 -0.3626
 7250TIP3    H143241   6.146   5.084  16.262  1.0496 -0.0267 -0.3682
 7250TIP3    H243242   6.083   4.947  16.247 -1.6634  1.3273 -1.9380
 7251TIP3   OH243243   4.624   5.573   1.117 -0.2007  0.1395 -0.1217
 7251TIP3    H143244   4.567   5.527   1.180  0.0814  0.2153  0.1937
 7251TIP3    H243245   4.678   5.630   1.172 -1.2705  1.6599 -0.5770
 7252TIP3   OH243246   6.434   5.676  16.472  0.2130  0.9734 -0.3932
 7252TIP3    H143247   6.383   5.713  16.400 -0.2804  0.2448 -0.4305
 7252TIP3    H243248   6.496   5.745  16.496  0.1871  1.3343 -1.3182
 7253TIP3   OH243249   6.487   5.456   2.176 -0.5372  0.0559  0.3958
 7253TIP3    H143250   6.432   5.534   2.163 -1.0277 -0.3735 -0.1392
 7253TIP3    H243251   6.455   5.393   2.112 -2.4695 -1.8356  2.9728
 7254TIP3   OH243252   3.609   0.758   2.974 -0.1492  0.2074 -0.1718
 7254TIP3    H143253   3.588   0.790   2.887 -0.8343 -0.7464 -0.3661
 7254TIP3    H243254   3.529   0.715   3.004  0.4636 -0.5252  0.4412
 7255TIP3   OH243255   5.599   4.928  11.548 -0.3974 -0.1786  0.4823
 7255TIP3    H143256   5.584   4.920  11.454 -2.1144 -0.5655  0.7495
 7255TIP3    H243257   5.665   4.862  11.568  1.5443  1.2725 -0.7283
 7256TIP3   OH243258   6.114   4.806   2.897  0.1388 -0.1007  0.6723
 7256TIP3    H143259   6.167   4.748   2.951  1.1742  0.2708  0.0858
 7256TIP3    H243260   6.046   4.750   2.861  1.7652 -1.2559 -0.7922
 7257TIP3   OH243261   4.179   6.178   0.568 -0.1852  0.1004 -0.5526
 7257TIP3    H143262   4.149   6.200   0.480 -1.2840 -1.9007 -0.7386
 7257TIP3    H243263   4.107   6.204   0.626  0.0078  0.2573 -0.3801
 7258TIP3   OH243264   0.461   5.082   5.860  0.4574  0.1308 -0.0746
 7258TIP3    H143265   0.414   4.998   5.860  0.0282  0.3673  0.3446
 7258TIP3    H243266   0.428   5.128   5.937  1.2308  0.3884  0.1097
 7259TIP3   OH243267   3.585   2.239   3.593  0.6602  0.3949 -0.4272
 7259TIP3    H143268   3.500   2.195   3.599  1.2574 -1.0192 -1.6339
 7259TIP3    H243269   3.589   2.271   3.502  2.2530 -1.4708 -1.0870
 7260TIP3   OH243270   0.924   0.899  13.549  0.2549 -0.9922  0.3001
 7260TIP3    H143271   0.856   0.878  13.486  0.2519 -0.6875  0.1995
 7260TIP3    H243272   0.880   0.956  13.613  0.6820  0.1341 -0.3752
 7261TIP3   OH243273   3.322   5.865   1.365  0.0468  0.6799  0.3871
 7261TIP3    H143274   3.285   5.828   1.284  0.0533  1.1976  0.1422
 7261TIP3    H243275   3.412   5.833   1.367 -0.1167  0.2171  0.4748
 7262TIP3   OH243276   0.650   4.698   0.543 -0.2704 -0.3461 -0.0028
 7262TIP3    H143277   0.730   4.700   0.595 -0.8275 -0.4898  0.8760
 7262TIP3    H243278   0.680   4.680   0.454  0.6997 -0.0357  0.2535
 7263TIP3   OH243279   6.029   6.788   4.647 -0.5195 -0.4833 -0.2634
 7263TIP3    H143280   6.088   6.843   4.699 -0.7987 -1.4221  1.0893
 7263TIP3    H243281   5.960   6.849   4.617  0.6844  0.4604 -1.2238
 7264TIP3   OH243282   4.422   0.139  16.142  0.0129  0.2763  0.5230
 7264TIP3    H143283   4.414   0.231  16.167  0.8547 -0.0594  2.1728
 7264TIP3    H243284   4.507   0.112  16.178 -0.3400 -1.2188  0.2867
 7265TIP3   OH243285   1.984   5.926   1.540 -0.1847 -0.7683  0.7402
 7265TIP3    H143286   1.892   5.949   1.526 -0.2377 -1.5342 -0.2342
 7265TIP3    H243287   1.987   5.831   1.533  0.9254 -0.6655 -0.8735
 7266TIP3   OH243288   6.217   4.420   0.260  0.1515 -0.6562  0.2750
 7266TIP3    H143289   6.185   4.362   0.191 -1.3730 -0.6632  0.9498
 7266TIP3    H243290   6.155   4.408   0.332  0.7265  0.6296  1.0134
 7267TIP3   OH243291   3.486   6.258  15.978 -0.5084 -0.5789 -1.1341
 7267TIP3    H143292   3.496   6.269  15.884  3.2560 -0.0317 -0.8402
 7267TIP3    H243293   3.561   6.204  16.004 -1.4987 -0.8254  1.5378
 7268TIP3   OH243294   0.895   2.905   4.004  0.2662  0.4053 -0.4826
 7268TIP3    H143295   0.987   2.888   4.022 -0.0141 -0.0883  0.6227
 7268TIP3    H243296   0.882   2.877   3.914  1.2268  0.6205 -0.6913
 7269TIP3   OH243297   2.368   2.674  13.413  0.0807  0.2527  0.0790
 7269TIP3    H143298   2.458   2.703  13.427  0.7216 -2.2599  1.8948
 7269TIP3    H243299   2.375   2.579  13.404 -2.3202  0.0898 -0.7901
 7270TIP3   OH243300   3.557   5.914   6.834 -0.2320 -0.1663  0.0490
 7270TIP3    H143301   3.616   5.988   6.820 -0.2579 -0.3450 -1.1053
 7270TIP3    H243302   3.572   5.857   6.758 -0.0402 -1.4591  1.0287
 7271TIP3   OH243303   4.073   3.295   5.921 -0.2543 -0.4596  0.3169
 7271TIP3    H143304   4.128   3.230   5.965 -1.2708 -0.2374  2.0180
 7271TIP3    H243305   4.015   3.244   5.865  2.1795 -0.6494 -2.2507
 7272TIP3   OH243306   2.070   1.033   3.461 -0.0368 -0.1982  0.9394
 7272TIP3    H143307   2.144   0.974   3.451  0.1816  0.1370  0.5861
 7272TIP3    H243308   2.090   1.107   3.405 -1.2015 -0.6459 -0.1109
 7273TIP3   OH243309   6.684   1.073  10.477 -0.3837 -0.2250 -0.3278
 7273TIP3    H143310   6.598   1.106  10.452 -0.2248 -0.9946 -2.0317
 7273TIP3    H243311   6.737   1.083  10.398  1.1467  0.3715  0.7278
 7274TIP3   OH243312   5.707   3.065  12.662 -0.3471 -0.0129  0.4659
 7274TIP3    H143313   5.647   3.102  12.597  1.2318  0.6395 -0.6887
 7274TIP3    H243314   5.788   3.116  12.652  1.3009 -2.5159  0.1247
 7275TIP3   OH243315   0.377   4.252  12.889 -0.1827 -0.4465 -0.1014
 7275TIP3    H143316   0.362   4.194  12.964 -0.2794 -0.0348  0.2029
 7275TIP3    H243317   0.472   4.263  12.886 -0.1034 -1.2245 -0.6263
 7276TIP3   OH243318   2.022   6.589   3.002  0.4532  0.3376 -0.3301
 7276TIP3    H143319   1.935   6.584   3.042 -0.4348  1.3432 -2.0120
 7276TIP3    H243320   2.051   6.679   3.019  1.3048 -0.0597  0.4274
 7277TIP3   OH243321   4.215   2.545   2.004  0.4357  0.1189  0.2520
 7277TIP3    H143322   4.256   2.546   2.091  1.1818  1.4035 -0.0966
 7277TIP3    H243323   4.130   2.589   2.018  0.1608 -0.4869  0.5087
 7278TIP3   OH243324   5.280   0.319   3.652  0.1565  0.4997 -0.4007
 7278TIP3    H143325   5.308   0.347   3.740 -0.0380 -3.2973  1.0341
 7278TIP3    H243326   5.185   0.323   3.655  0.1495  0.3545 -0.4306
 7279TIP3   OH243327   1.074   2.993  13.410 -0.2757  0.5979 -0.1095
 7279TIP3    H143328   1.119   2.936  13.347  0.1602 -1.8377  2.1878
 7279TIP3    H243329   1.143   3.049  13.445 -0.0596  0.3921 -0.2019
 7280TIP3   OH243330   0.799   4.775   4.817 -0.5080  0.2952  0.0123
 7280TIP3    H143331   0.720   4.741   4.861  0.6669  0.3691  2.3002
 7280TIP3    H243332   0.848   4.819   4.886  1.9806 -0.5122 -1.1433
 7281TIP3   OH243333   3.204   0.543   4.748 -0.0609 -0.4337 -0.4746
 7281TIP3    H143334   3.260   0.494   4.808  1.9701 -1.1422 -2.7757
 7281TIP3    H243335   3.174   0.478   4.684 -0.8734  0.5407 -1.1298
 7282TIP3   OH243336   5.904   5.778   2.053  0.1339  0.1258 -1.2816
 7282TIP3    H143337   5.892   5.871   2.074 -1.0116 -0.1898 -0.5178
 7282TIP3    H243338   5.849   5.763   1.976 -1.3370 -0.3843 -0.1662
 7283TIP3   OH243339   0.442   5.174  12.646 -0.3971  0.2225  0.4295
 7283TIP3    H143340   0.505   5.229  12.692 -0.4840  0.9897 -0.3214
 7283TIP3    H243341   0.403   5.119  12.714 -1.2576  2.0189  1.4770
 7284TIP3   OH243342   2.869   2.465  17.120 -0.2935  0.3354 -0.3670
 7284TIP3    H143343   2.846   2.429  17.206 -0.5507 -1.3981 -1.1312
 7284TIP3    H243344   2.925   2.398  17.080  0.7724  1.6215 -1.1235
 7285TIP3   OH243345   3.885   2.569  13.060  0.8226  0.3804 -0.5201
 7285TIP3    H143346   3.940   2.643  13.035  0.5168  0.4530 -0.9958
 7285TIP3    H243347   3.795   2.601  13.052  0.6916  0.0145 -0.5632
 7286TIP3   OH243348   0.556   3.342   0.380 -1.0517  0.3735 -0.2761
 7286TIP3    H143349   0.614   3.407   0.341  1.5853 -2.5332 -1.6714
 7286TIP3    H243350   0.610   3.299   0.446 -2.1668 -1.3189 -0.4106
 7287TIP3   OH243351   5.333   3.822  16.781  0.2066  0.5647  0.0499
 7287TIP3    H143352   5.267   3.789  16.842  0.3510  1.4647  0.7003
 7287TIP3    H243353   5.412   3.772  16.802  0.0683  0.3641  0.0996
 7288TIP3   OH243354   6.162   5.724  13.607  0.0381  0.6174  0.5361
 7288TIP3    H143355   6.136   5.765  13.524 -1.8060  0.5925  1.0405
 7288TIP3    H243356   6.080   5.716  13.656  0.7200 -1.3911  1.4767
 7289TIP3   OH243357   2.299   2.878   2.034 -0.0090 -0.6873 -0.0265
 7289TIP3    H143358   2.320   2.960   2.079  0.0863  0.1712 -1.5704
 7289TIP3    H243359   2.373   2.820   2.053 -0.1843 -0.5225  1.2564
 7290TIP3   OH243360   2.612   6.601   5.879 -0.6830 -0.4152  0.3645
 7290TIP3    H143361   2.585   6.691   5.861 -0.2549 -0.4278 -0.3645
 7290TIP3    H243362   2.707   6.606   5.890 -0.8785 -0.3990  2.7364
 7291TIP3   OH243363   5.533   4.716  15.487 -0.5176 -0.0861  0.2200
 7291TIP3    H143364   5.536   4.623  15.510 -0.4904  0.2538  1.6887
 7291TIP3    H243365   5.547   4.762  15.570 -1.6030  1.2384 -0.2930
 7292TIP3   OH243366   2.909   3.084   0.504 -0.5251  0.6418  0.6523
 7292TIP3    H143367   2.871   3.008   0.547 -0.3210  0.2812  0.2028
 7292TIP3    H243368   3.004   3.075   0.518 -0.5146  0.9385  0.7973
 7293TIP3   OH243369   0.424   1.258   3.557  0.0584 -0.8666 -0.4405
 7293TIP3    H143370   0.459   1.313   3.628  1.3392 -0.6633 -1.2050
 7293TIP3    H243371   0.474   1.284   3.480 -1.0039 -1.4165 -1.3289
 7294TIP3   OH243372   5.895   5.975   3.578  0.4946 -0.2023  0.1033
 7294TIP3    H143373   5.921   6.053   3.627 -1.8431  0.6309  0.1395
 7294TIP3    H243374   5.852   6.009   3.500 -0.5244 -1.4213  0.0940
 7295TIP3   OH243375   0.227   0.249  10.743  0.1538 -0.1116 -0.5015
 7295TIP3    H143376   0.222   0.191  10.668  0.0019 -0.3362 -0.3209
 7295TIP3    H243377   0.139   0.246  10.781 -0.0680  0.8106 -0.9180
 7296TIP3   OH243378   6.490   3.092   3.397  0.3147  0.4796  0.1731
 7296TIP3    H143379   6.435   3.140   3.335  1.6726  0.3451 -1.2102
 7296TIP3    H243380   6.560   3.056   3.343 -0.3435 -2.6462  1.2478
 7297TIP3   OH243381   2.474   1.114  11.394 -0.0425  0.5936  0.2645
 7297TIP3    H143382   2.487   1.208  11.408 -1.9519  0.7002  1.7094
 7297TIP3    H243383   2.465   1.105  11.300 -0.7673  2.0388  0.1604
 7298TIP3   OH243384   2.807   6.819   4.195  0.8376 -0.2339 -0.1864
 7298TIP3    H143385   2.841   6.815   4.106  1.2678 -2.3035  0.0391
 7298TIP3    H243386   2.813   6.912   4.218  1.3383  0.2462 -2.0522
 7299TIP3   OH243387   3.928   5.186  14.701 -0.3343  0.2897 -0.0516
 7299TIP3    H143388   3.871   5.175  14.626  0.7920 -0.6325 -0.8022
 7299TIP3    H243389   3.989   5.255  14.676  0.3954 -0.3994 -0.2319
 7300TIP3   OH243390   1.874   4.221   0.259  0.6684 -0.6272  0.4519
 7300TIP3    H143391   1.860   4.309   0.295  0.0561 -0.9956  1.1607
 7300TIP3    H243392   1.808   4.167   0.304  1.5184 -1.5874  0.5785
 7301TIP3   OH243393   2.802   4.594   5.767  0.7424 -0.5158  0.6431
 7301TIP3    H143394   2.876   4.598   5.706 -0.2893  1.0664 -0.5813
 7301TIP3    H243395   2.764   4.507   5.751 -0.1990  0.2614 -1.8973
 7302TIP3   OH243396   4.403   1.588   4.092  0.2460 -0.2564 -0.0994
 7302TIP3    H143397   4.347   1.654   4.052  0.5203  0.1252  0.1226
 7302TIP3    H243398   4.477   1.639   4.126  0.1814 -0.6100  0.5799
 7303TIP3   OH243399   4.308   3.817  11.928 -0.3590  0.6236 -0.0609
 7303TIP3    H143400   4.389   3.867  11.939 -0.5488  0.8346  0.4102
 7303TIP3    H243401   4.285   3.827  11.836 -0.0167  0.8209 -0.1256
 7304TIP3   OH243402   0.713   0.170  14.769 -0.7352 -0.0872  0.2923
 7304TIP3    H143403   0.733   0.100  14.706  0.4831 -0.6779  1.3007
 7304TIP3    H243404   0.718   0.127  14.854 -1.0053  1.0098  0.8687
 7305TIP3   OH243405   2.496   1.914  11.473  0.4559 -0.0249  0.5562
 7305TIP3    H143406   2.567   1.953  11.525 -0.1407  1.3481  0.3908
 7305TIP3    H243407   2.416   1.938  11.519  0.0499 -0.9174  0.3319
 7306TIP3   OH243408   6.745   3.261  14.892  0.2383 -0.1428  0.5908
 7306TIP3    H143409   6.718   3.171  14.873  1.0669 -0.4164  0.6676
 7306TIP3    H243410   6.760   3.262  14.987 -1.0585  0.4397  0.8039
 7307TIP3   OH243411   3.830   0.199   5.739 -0.1433  0.0122 -0.2272
 7307TIP3    H143412   3.811   0.217   5.647  1.1999  0.4892 -0.4313
 7307TIP3    H243413   3.874   0.278   5.770 -0.0060 -0.4059  0.6572
 7308TIP3   OH243414   2.640   6.278   1.054  0.1920  0.0648  0.3675
 7308TIP3    H143415   2.558   6.327   1.047 -1.0292 -2.1370 -3.6805
 7308TIP3    H243416   2.703   6.328   1.003 -0.6828 -1.5696 -2.5512
 7309TIP3   OH243417   0.728   6.481  11.839  0.1027  0.2443  0.0799
 7309TIP3    H143418   0.646   6.523  11.866  0.0429 -0.0562  0.3721
 7309TIP3    H243419   0.721   6.475  11.743  2.0969  5.0949 -0.6675
 7310TIP3   OH243420   0.703   3.486   1.275 -0.7549 -0.2363  0.7719
 7310TIP3    H143421   0.638   3.417   1.285 -0.9075 -0.0982  0.7438
 7310TIP3    H243422   0.658   3.554   1.224 -0.0030 -0.9289 -0.9123
 7311TIP3   OH243423   4.175   4.451  14.386  0.0896 -0.6490 -0.1432
 7311TIP3    H143424   4.138   4.405  14.462 -0.6890 -0.5026 -0.4186
 7311TIP3    H243425   4.118   4.527  14.375  0.1529 -0.7108 -0.9214
 7312TIP3   OH243426   3.060   6.589   5.706 -0.0118 -0.4275  0.4760
 7312TIP3    H143427   3.150   6.620   5.699 -0.2159  0.1326  0.2897
 7312TIP3    H243428   3.043   6.545   5.623 -0.3419  0.6423 -0.0472
 7313TIP3   OH243429   5.504   1.300   4.917 -0.4694  0.1008 -0.5249
 7313TIP3    H143430   5.481   1.275   5.007  0.9804  1.0742  0.1608
 7313TIP3    H243431   5.423   1.338   4.882 -1.4321 -1.4817 -0.1102
 7314TIP3   OH243432   5.678   1.366  13.670  0.4854  0.7852  0.5294
 7314TIP3    H143433   5.697   1.306  13.743 -0.1111  0.0750  0.1168
 7314TIP3    H243434   5.750   1.428  13.671  0.5717  0.6898  1.6314
 7315TIP3   OH243435   6.641   0.945  15.290  0.0565 -0.5907  0.1127
 7315TIP3    H143436   6.616   0.870  15.343  1.5047 -0.7552  0.6159
 7315TIP3    H243437   6.720   0.979  15.332  0.6948 -0.1349 -1.3754
 7316TIP3   OH243438   0.805   4.802  11.220 -0.1772 -0.2751  0.0617
 7316TIP3    H143439   0.832   4.713  11.197  2.1784  0.4187 -0.0859
 7316TIP3    H243440   0.884   4.855  11.208 -1.0345  1.5454  1.8860
 7317TIP3   OH243441   4.479   1.501  14.711  0.0927  0.1037 -0.1933
 7317TIP3    H143442   4.398   1.546  14.688 -0.4855  0.6875  2.5723
 7317TIP3    H243443   4.466   1.474  14.802  2.4157 -1.1961 -0.1629
 7318TIP3   OH243444   2.936   0.133   0.206 -0.1052  0.2270  0.3639
 7318TIP3    H143445   2.934   0.193   0.131 -1.2862  0.3058  0.4358
 7318TIP3    H243446   3.024   0.143   0.242  0.0184  1.2459 -0.1690
 7319TIP3   OH243447   5.823   2.379   0.052  0.1370 -0.2953 -0.5071
 7319TIP3    H143448   5.896   2.340   0.005  0.3632 -0.1555 -0.2732
 7319TIP3    H243449   5.799   2.456   0.001 -0.4611 -0.8662 -1.0966
 7320TIP3   OH243450   3.858   5.901   0.374  0.3162  0.4606 -0.2567
 7320TIP3    H143451   3.762   5.905   0.374  0.2697  2.3511  2.3291
 7320TIP3    H243452   3.878   5.813   0.406 -0.6171  0.4583  0.3969
 7321TIP3   OH243453   5.393   0.766  11.293  0.0592 -0.8400 -0.0864
 7321TIP3    H143454   5.448   0.786  11.216  0.7872 -1.3288  0.2928
 7321TIP3    H243455   5.360   0.851  11.321  0.1481 -0.6039 -0.6771
 7322TIP3   OH243456   5.827   2.886  17.050 -0.0739 -0.3069 -0.4678
 7322TIP3    H143457   5.916   2.914  17.072 -0.3935  2.0694 -1.8229
 7322TIP3    H243458   5.771   2.952  17.091 -1.2272 -1.5285 -0.0037
 7323TIP3   OH243459   1.082   4.837  16.423 -0.3082 -0.2180 -0.3673
 7323TIP3    H143460   1.087   4.822  16.329 -1.3859  1.2119 -0.6761
 7323TIP3    H243461   0.991   4.815  16.446  0.7706 -4.1641  1.0735
 7324TIP3   OH243462   1.176   6.782  16.696  0.2780 -0.0249  0.5167
 7324TIP3    H143463   1.179   6.852  16.631 -1.4070  1.0343  1.4887
 7324TIP3    H243464   1.088   6.788  16.733  0.9461 -1.0394  2.4047
 7325TIP3   OH243465   5.371   3.830  15.980  0.0270  0.3444 -0.0726
 7325TIP3    H143466   5.403   3.914  15.947  2.5390 -0.3847  0.3259
 7325TIP3    H243467   5.307   3.854  16.047 -0.7174  1.8920 -1.2792
 7326TIP3   OH243468   6.155   0.956  15.815 -0.3785 -0.2568 -0.1047
 7326TIP3    H143469   6.245   0.936  15.842  0.5168 -1.7707 -3.5605
 7326TIP3    H243470   6.162   1.042  15.773 -0.4836 -0.4429 -0.5076
 7327TIP3   OH243471   4.030   5.624   1.924  0.0600 -0.5894 -0.9485
 7327TIP3    H143472   3.972   5.700   1.917 -0.8890 -1.0175  1.2464
 7327TIP3    H243473   4.117   5.659   1.906 -0.7822  0.0008 -4.7475
 7328TIP3   OH243474   0.736   6.636  12.520  0.0479 -0.1008 -0.2650
 7328TIP3    H143475   0.721   6.730  12.531 -1.1468 -0.2876 -0.1629
 7328TIP3    H243476   0.694   6.614  12.437 -0.8849 -0.7684  0.3476
 7329TIP3   OH243477   4.447   1.921   5.530 -0.6752  0.0736 -0.4057
 7329TIP3    H143478   4.381   1.931   5.599  0.0543 -0.0154  0.3314
 7329TIP3    H243479   4.512   1.861   5.569  1.0013  1.9362 -0.2003
 7330TIP3   OH243480   1.425   2.350   5.502 -0.0330 -0.7141  0.0553
 7330TIP3    H143481   1.465   2.281   5.447  0.8384 -0.6337  0.5644
 7330TIP3    H243482   1.493   2.372   5.566  1.7208  3.9310 -2.8479
 7331TIP3   OH243483   5.437   4.648  11.451  0.2270 -0.0013  0.9402
 7331TIP3    H143484   5.525   4.619  11.426 -0.5829 -1.1460 -0.7413
 7331TIP3    H243485   5.439   4.650  11.547  1.7882 -0.9829  0.9682
 7332TIP3   OH243486   2.099   3.035  16.057 -0.1708  0.2067 -0.0793
 7332TIP3    H143487   2.180   2.984  16.064  0.1965  0.4624 -2.0181
 7332TIP3    H243488   2.126   3.125  16.076 -0.6760 -0.1318  2.5784
 7333TIP3   OH243489   2.610   3.535  10.880  0.1363 -0.3503  0.7108
 7333TIP3    H143490   2.635   3.569  10.793  0.8686 -1.9346  0.2574
 7333TIP3    H243491   2.523   3.572  10.896 -0.6730 -1.1678 -1.3821
 7334TIP3   OH243492   2.445   3.301   0.134 -0.1115  0.2990 -0.1873
 7334TIP3    H143493   2.527   3.316   0.087  0.0643 -1.5944 -0.5660
 7334TIP3    H243494   2.379   3.350   0.084  0.5786  0.8252 -0.6009
 7335TIP3   OH243495   2.267   4.454  11.409 -0.0875  0.7458 -0.1870
 7335TIP3    H143496   2.276   4.534  11.460 -0.8685  1.0120 -0.4538
 7335TIP3    H243497   2.292   4.480  11.320 -0.8771  0.8388 -0.3876
 7336TIP3   OH243498   4.540   6.757  13.970 -0.0820  0.2598 -0.3969
 7336TIP3    H143499   4.615   6.812  13.950 -0.9928  1.4683 -0.6323
 7336TIP3    H243500   4.542   6.747  14.065  1.2461 -1.0327 -0.5417
 7337TIP3   OH243501   3.527   6.077   3.215 -0.4018 -0.4727 -0.2466
 7337TIP3    H143502   3.481   6.139   3.159 -1.2516  0.0643  0.9780
 7337TIP3    H243503   3.552   6.006   3.157  0.2652  0.8214 -1.6222
 7338TIP3   OH243504   2.698   5.496   5.873 -0.4294 -0.4634  0.1400
 7338TIP3    H143505   2.785   5.519   5.908  0.2403 -0.3905 -1.5057
 7338TIP3    H243506   2.637   5.525   5.941  0.6754  1.9240  0.2226
 7339TIP3   OH243507   1.928   1.795  14.503 -0.4021  0.9933  0.4383
 7339TIP3    H143508   1.880   1.824  14.580 -0.5772  1.8034  0.0387
 7339TIP3    H243509   1.912   1.863  14.437  0.5707  0.8366  0.0123
 7340TIP3   OH243510   3.299   2.631  16.695  0.2151  0.1219  0.1035
 7340TIP3    H143511   3.281   2.586  16.612  1.9912  1.1176 -0.8871
 7340TIP3    H243512   3.229   2.695  16.704 -0.4168 -0.5159 -0.2381
 7341TIP3   OH243513   0.836   1.237   6.284 -0.7673 -0.0800 -0.0483
 7341TIP3    H143514   0.821   1.257   6.376 -1.0871  1.1849 -0.3536
 7341TIP3    H243515   0.861   1.322   6.245 -0.3728 -0.6468 -1.0689
 7342TIP3   OH243516   0.244   5.677  11.416 -0.9692  0.2993 -0.3445
 7342TIP3    H143517   0.334   5.698  11.442 -1.2534  0.3933  0.5851
 7342TIP3    H243518   0.189   5.735  11.469 -1.5710  0.5655 -1.2264
 7343TIP3   OH243519   3.477   3.814  14.465 -0.2099  0.0312 -0.0750
 7343TIP3    H143520   3.414   3.752  14.427  1.3005 -1.7091  0.1194
 7343TIP3    H243521   3.548   3.816  14.401  0.9550 -0.5277  1.1629
 7344TIP3   OH243522   4.761   2.436  10.968  0.8351  0.1883  0.4376
 7344TIP3    H143523   4.735   2.352  10.930  1.2660 -0.1746  0.9337
 7344TIP3    H243524   4.678   2.478  10.992  0.6472 -0.3937  0.8180
 7345TIP3   OH243525   6.751   2.410   0.672 -0.2797 -0.4453 -0.5283
 7345TIP3    H143526   6.671   2.457   0.695 -1.4289 -2.6257  0.2301
 7345TIP3    H243527   6.752   2.410   0.576  0.4981  2.1986 -0.5882
 7346TIP3   OH243528   4.774   4.011   2.292 -0.5449  0.0382  0.4648
 7346TIP3    H143529   4.682   4.011   2.321 -0.3340 -2.4206  1.3630
 7346TIP3    H243530   4.824   3.995   2.372  0.6662  0.8758 -0.0929
 7347TIP3   OH243531   1.367   1.090  12.370 -0.4033 -0.2016  0.0463
 7347TIP3    H143532   1.422   1.079  12.293 -1.4726 -2.4195 -0.5096
 7347TIP3    H243533   1.279   1.066  12.339 -1.3121  1.2345  1.3865
 7348TIP3   OH243534   0.737   2.035   3.209  0.1568 -0.4817  0.0459
 7348TIP3    H143535   0.830   2.011   3.204  0.6029  0.6345  1.8797
 7348TIP3    H243536   0.724   2.093   3.133  0.7704 -1.1413 -0.5898
 7349TIP3   OH243537   6.346   0.988   0.577 -0.0552 -0.3195  0.3013
 7349TIP3    H143538   6.343   0.930   0.654  0.4261 -1.1852 -0.3101
 7349TIP3    H243539   6.323   1.074   0.611  0.3281 -0.6498  1.4563
 7350TIP3   OH243540   6.184   4.232   4.812  0.0732  0.4532  0.5510
 7350TIP3    H143541   6.101   4.277   4.795  0.1280  0.3391 -0.0412
 7350TIP3    H243542   6.250   4.299   4.800  0.1864  0.1196 -0.7805
 7351TIP3   OH243543   1.977   6.329  15.398  0.1829 -0.2409  0.0695
 7351TIP3    H143544   1.991   6.300  15.307 -0.7186  1.5031 -0.6724
 7351TIP3    H243545   1.997   6.252  15.451  2.2597 -0.8785 -1.4964
 7352TIP3   OH243546   4.607   6.527   2.336  0.5609  0.1894 -0.2229
 7352TIP3    H143547   4.555   6.447   2.325  0.9385 -0.1503  0.4593
 7352TIP3    H243548   4.616   6.538   2.430 -2.6681  3.0951 -0.0084
 7353TIP3   OH243549   3.650   4.818   5.301  0.6772  0.5909  0.0650
 7353TIP3    H143550   3.603   4.734   5.294  1.3165  0.2844 -0.6788
 7353TIP3    H243551   3.612   4.860   5.378  0.4236 -0.4410  0.5287
 7354TIP3   OH243552   1.288   6.322  13.879  0.3959  0.7098  0.0037
 7354TIP3    H143553   1.209   6.342  13.929  0.4651  0.3573  0.2591
 7354TIP3    H243554   1.262   6.251  13.820  0.3597  1.0111 -0.3498
 7355TIP3   OH243555   3.057   3.654  16.817  0.5433  0.1255 -0.5648
 7355TIP3    H143556   3.141   3.661  16.860  0.4173  2.2116 -0.5936
 7355TIP3    H243557   3.078   3.639  16.724  0.9834  2.5344 -0.9177
 7356TIP3   OH243558   5.231   6.668   0.468  0.2212  0.1483  0.7430
 7356TIP3    H143559   5.257   6.587   0.423 -0.3292  0.2911  0.1467
 7356TIP3    H243560   5.138   6.677   0.447  0.3827  1.1744  0.4552
 7357TIP3   OH243561   1.682   2.731   1.384 -0.1747  0.2119 -0.2874
 7357TIP3    H143562   1.713   2.737   1.475  0.9808  0.5071 -0.6875
 7357TIP3    H243563   1.757   2.757   1.331 -0.8992  0.2414 -1.3326
 7358TIP3   OH243564   2.930   6.012  11.972  0.6188 -0.7714 -0.2039
 7358TIP3    H143565   2.967   6.098  11.950 -0.5534 -0.2299 -0.1210
 7358TIP3    H243566   2.958   5.996  12.062 -1.0900  0.6170  0.6189
 7359TIP3   OH243567   4.757   2.145  11.087  0.6967  0.4174  0.0076
 7359TIP3    H143568   4.705   2.137  11.007 -0.3211 -0.9836  0.7750
 7359TIP3    H243569   4.692   2.157  11.157  1.5906  2.1964  0.5886
 7360TIP3   OH243570   1.587   3.498   1.426  0.4891 -0.1440  0.4232
 7360TIP3    H143571   1.588   3.592   1.411  0.1559  0.0814  1.7386
 7360TIP3    H243572   1.502   3.470   1.392  0.9172 -0.1254 -0.7222
 7361TIP3   OH243573   2.201   0.568   3.237 -0.1244 -0.1083 -0.1607
 7361TIP3    H143574   2.142   0.514   3.184  0.2484 -0.5512 -0.1339
 7361TIP3    H243575   2.219   0.645   3.183 -3.1152  1.5615  0.9918
 7362TIP3   OH243576   1.035   2.086   0.019  0.4869  0.1386  0.1741
 7362TIP3    H143577   1.007   2.019  -0.043 -0.2033  1.1606 -0.6676
 7362TIP3    H243578   1.011   2.169  -0.023  2.6435  0.9971  0.4789
 7363TIP3   OH243579   2.981   2.795  15.743  0.0420 -0.3646  0.3628
 7363TIP3    H143580   2.922   2.735  15.697 -1.2043  1.3157 -0.3533
 7363TIP3    H243581   2.933   2.821  15.821  0.0690  0.5602  0.0839
 7364TIP3   OH243582   5.895   0.345  14.193 -0.3142  0.0165 -0.4036
 7364TIP3    H143583   5.968   0.286  14.208 -1.1374 -0.7891  0.6033
 7364TIP3    H243584   5.931   0.414  14.137  0.8015 -1.1598 -1.2085
 7365TIP3   OH243585   6.523   3.042  11.489 -0.0545 -0.1419 -0.2358
 7365TIP3    H143586   6.563   3.114  11.440 -0.9283  1.8643  1.8117
 7365TIP3    H243587   6.549   3.057  11.580 -0.2497 -2.4843  0.2743
 7366TIP3   OH243588   1.824   0.113   5.928  0.3099  0.2342 -0.1145
 7366TIP3    H143589   1.903   0.166   5.939  1.7263 -1.4544 -1.5881
 7366TIP3    H243590   1.788   0.141   5.844 -0.0640  0.2226  0.0380
 7367TIP3   OH243591   1.099   2.308   0.207 -0.2190  0.0072 -0.4714
 7367TIP3    H143592   1.076   2.221   0.174  0.0260 -0.4242  0.4620
 7367TIP3    H243593   1.148   2.348   0.135  1.3899 -1.3767 -0.2157
 7368TIP3   OH243594   4.298   1.739  15.283  0.5153 -0.1382 -0.1291
 7368TIP3    H143595   4.220   1.776  15.324 -0.3166  0.4025 -2.0999
 7368TIP3    H243596   4.367   1.803  15.301 -0.0564  0.5582 -0.3825
 7369TIP3   OH243597   0.961   4.258  16.998  0.4624  0.0324  0.1102
 7369TIP3    H143598   0.990   4.172  16.971  0.8200  0.3427 -0.5013
 7369TIP3    H243599   0.985   4.316  16.926 -0.2944  0.5488  0.2566
 7370TIP3   OH243600   3.143   1.528   2.859  0.2936 -0.2927 -0.2521
 7370TIP3    H143601   3.219   1.480   2.892  0.6905 -0.7134 -1.6728
 7370TIP3    H243602   3.114   1.582   2.932 -0.0233 -2.5110  1.3617
 7371TIP3   OH243603   3.897   0.500  17.149  0.0805  0.7241  0.2813
 7371TIP3    H143604   3.836   0.435  17.183 -0.0284  0.7313  0.1025
 7371TIP3    H243605   3.858   0.527  17.065  0.6178  0.3225 -0.1021
 7372TIP3   OH243606   1.333   1.910  14.028 -0.2309 -0.5440 -0.3238
 7372TIP3    H143607   1.345   1.956  13.945 -0.1661 -1.2417 -0.7066
 7372TIP3    H243608   1.278   1.969  14.080 -1.0935 -0.5306 -1.2244
 7373TIP3   OH243609   5.891   6.327   0.610 -0.0219 -0.3147  0.3146
 7373TIP3    H143610   5.812   6.357   0.566  1.3322  0.0473 -2.0401
 7373TIP3    H243611   5.935   6.408   0.637  0.7672 -0.3691 -0.7344
 7374TIP3   OH243612   1.923   3.427   4.062 -0.9416 -0.1813  0.2237
 7374TIP3    H143613   1.913   3.333   4.080  1.2229 -0.3880  0.5301
 7374TIP3    H243614   2.015   3.445   4.078 -1.6515  2.4059  1.9624
 7375TIP3   OH243615   4.235   4.350   6.032  0.7471  0.4571  0.6260
 7375TIP3    H143616   4.317   4.395   6.014  0.2105  1.2249 -0.0153
 7375TIP3    H243617   4.243   4.318   6.122  2.1348 -0.3769  0.2405
 7376TIP3   OH243618   0.229   6.722  13.298 -0.0896 -0.2625 -0.8326
 7376TIP3    H143619   0.183   6.650  13.340  2.3369 -1.1583  0.4781
 7376TIP3    H243620   0.322   6.699  13.305  0.6411  1.7030 -2.8185
 7377TIP3   OH243621   6.134   4.971  14.248 -0.0923  0.2130 -0.3912
 7377TIP3    H143622   6.121   4.878  14.266 -0.1104  0.2657 -0.1169
 7377TIP3    H243623   6.049   5.011  14.268  0.4286  0.5589  1.3907
 7378TIP3   OH243624   6.344   3.841  14.588  0.2299 -0.0839 -0.6370
 7378TIP3    H143625   6.285   3.879  14.652  1.0335  0.5658 -0.2667
 7378TIP3    H243626   6.368   3.913  14.531  1.0739 -0.2184 -0.4653
 7379TIP3   OH243627   2.106   3.580  15.923  0.4882 -0.1740 -0.6246
 7379TIP3    H143628   2.091   3.611  16.012 -0.2168 -1.7119 -0.1717
 7379TIP3    H243629   2.070   3.649  15.867  1.2545  0.9724  0.2482
 7380TIP3   OH243630   6.714   4.510   5.800  0.0837  0.2848  0.0814
 7380TIP3    H143631   6.663   4.587   5.774  0.0897  0.4009  0.4151
 7380TIP3    H243632   6.674   4.481   5.881 -0.6259 -0.7275 -0.6051
 7381TIP3   OH243633   6.441   5.221  12.999  0.2803 -0.7041 -0.1872
 7381TIP3    H143634   6.529   5.239  12.968 -0.1463 -0.4960 -1.3475
 7381TIP3    H243635   6.444   5.131  13.031  0.7758 -0.8894 -0.7482
 7382TIP3   OH243636   1.151   3.955   2.575 -0.0152 -0.8352 -0.7386
 7382TIP3    H143637   1.084   4.005   2.529 -0.3420 -0.5660  0.0130
 7382TIP3    H243638   1.157   3.995   2.661  0.9753 -0.9843 -0.7165
 7383TIP3   OH243639   0.724   4.456   3.630 -0.3179 -0.1649 -0.1671
 7383TIP3    H143640   0.785   4.449   3.704 -0.5760  1.1593  0.1902
 7383TIP3    H243641   0.706   4.365   3.606  1.3941 -0.5961  0.0494
 7384TIP3   OH243642   0.701   3.020   1.110 -0.4484 -0.3360 -0.8194
 7384TIP3    H143643   0.722   3.080   1.038 -4.0531  4.6178  1.6367
 7384TIP3    H243644   0.614   2.986   1.089 -0.4814 -0.8232  0.0357
 7385TIP3   OH243645   2.016   3.124   4.438  0.5923 -0.6634 -0.5273
 7385TIP3    H143646   1.934   3.094   4.476  0.8698 -1.3622 -0.4709
 7385TIP3    H243647   2.054   3.046   4.398  0.8747 -0.1888 -1.2041
 7386TIP3   OH243648   4.973   0.571   4.544 -0.0496  0.1923  0.0879
 7386TIP3    H143649   5.027   0.621   4.606  0.0489 -0.3206  0.4309
 7386TIP3    H243650   4.883   0.594   4.566  0.0188  0.7958 -0.2626
 7387TIP3   OH243651   5.345   3.793   0.248  0.4354 -0.0836  0.4451
 7387TIP3    H143652   5.369   3.713   0.295  1.4807 -0.5895 -0.8922
 7387TIP3    H243653   5.251   3.786   0.236  0.2566 -0.2965  1.7762
 7388TIP3   OH243654   3.166   3.257  13.810 -0.2236  0.3291  0.0104
 7388TIP3    H143655   3.187   3.270  13.902 -0.6030  0.3990  0.0923
 7388TIP3    H243656   3.221   3.184  13.782  1.2920  1.5173 -0.2205
 7389TIP3   OH243657   5.094   4.014   5.256  0.3031 -0.0629  0.5189
 7389TIP3    H143658   5.040   3.937   5.268  0.2245 -0.1762 -0.4262
 7389TIP3    H243659   5.042   4.086   5.291  0.4901 -0.4655  1.6487
 7390TIP3   OH243660   0.571   4.627  11.242 -0.0462  0.2358  0.0886
 7390TIP3    H143661   0.625   4.564  11.289 -0.1472  0.5152  0.5921
 7390TIP3    H243662   0.604   4.712  11.270  0.1618  0.4133 -0.6712
 7391TIP3   OH243663   2.211   3.282  15.888 -0.5831  0.3749  0.1129
 7391TIP3    H143664   2.302   3.266  15.912 -0.7497 -0.3327  0.2866
 7391TIP3    H243665   2.172   3.323  15.965 -0.0011  2.3002 -0.5468
 7392TIP3   OH243666   2.936   6.185  13.295  0.3030 -0.3696 -0.4272
 7392TIP3    H143667   3.001   6.250  13.270 -0.8343  0.4303 -1.4803
 7392TIP3    H243668   2.854   6.235  13.300 -0.4306 -1.5491 -0.3290
 7393TIP3   OH243669   4.336   2.625   2.251 -0.3497 -0.5867 -0.1293
 7393TIP3    H143670   4.414   2.592   2.297 -0.6704  0.6252  1.3502
 7393TIP3    H243671   4.264   2.608   2.312 -1.1061 -0.7461 -1.0506
 7394TIP3   OH243672   5.267   4.179   2.608  0.4116 -0.3889  0.0398
 7394TIP3    H143673   5.301   4.221   2.528 -1.3437  1.5753  0.2266
 7394TIP3    H243674   5.320   4.217   2.678 -0.3099  0.5902  0.0834
 7395TIP3   OH243675   6.042   0.479  13.728  0.1862 -0.2519 -0.1998
 7395TIP3    H143676   6.016   0.571  13.739 -0.1613 -0.2887 -0.6721
 7395TIP3    H243677   5.960   0.430  13.735  0.2711 -0.4625 -0.6712
 7396TIP3   OH243678   4.135   4.225  16.464  0.2738 -0.2178  0.0219
 7396TIP3    H143679   4.124   4.207  16.557 -1.5982  0.5256 -0.0114
 7396TIP3    H243680   4.220   4.267  16.457  1.2259 -1.8330  1.1341
 7397TIP3   OH243681   3.254   1.926   2.296 -0.0811 -0.3479 -0.7174
 7397TIP3    H143682   3.337   1.926   2.250 -0.3627 -0.4779 -1.2367
 7397TIP3    H243683   3.227   2.018   2.298 -0.7076 -0.4882 -2.0025
 7398TIP3   OH243684   6.754   3.306   3.314  0.0056 -0.3855 -0.5089
 7398TIP3    H143685   6.715   3.305   3.227 -1.9181 -0.3048  0.2943
 7398TIP3    H243686   6.702   3.371   3.362  2.0381  0.7318  0.2822
 7399TIP3   OH243687   2.508   4.526   1.704 -0.2263  0.3661 -0.9980
 7399TIP3    H143688   2.555   4.600   1.665 -0.6805  1.4036  0.3269
 7399TIP3    H243689   2.575   4.476   1.750 -0.0360  0.3894 -1.2501
 7400TIP3   OH243690   6.335   1.069  14.650  0.0753 -0.1760  0.1128
 7400TIP3    H143691   6.266   1.117  14.603 -0.4886 -0.3276  0.7666
 7400TIP3    H243692   6.386   1.027  14.581 -0.3599  0.1180 -0.3959
 7401TIP3   OH243693   1.081   3.519   3.658 -0.4001  1.0410  0.4196
 7401TIP3    H143694   1.165   3.531   3.702  0.8749 -1.1011 -1.2004
 7401TIP3    H243695   1.087   3.574   3.580 -0.9427  1.6750  0.8213
 7402TIP3   OH243696   3.808   0.622  11.185  0.0781 -0.9494  0.2723
 7402TIP3    H143697   3.753   0.604  11.109 -1.2476  3.7056 -0.1550
 7402TIP3    H243698   3.758   0.589  11.259 -0.5039 -1.9397 -0.5323
 7403TIP3   OH243699   2.774   1.349  13.125  0.1184 -0.0146  0.0483
 7403TIP3    H143700   2.688   1.384  13.148  0.6611  0.7756  0.9904
 7403TIP3    H243701   2.758   1.256  13.105 -1.1105  0.3821 -0.9347
 7404TIP3   OH243702   5.735   6.683  16.450  0.3642  0.6136  0.1472
 7404TIP3    H143703   5.640   6.678  16.454  0.2896  0.2731 -1.3319
 7404TIP3    H243704   5.758   6.632  16.372  1.8970 -0.8077  1.4463
 7405TIP3   OH243705   1.655   6.304  15.054  0.8332 -0.4458 -0.0098
 7405TIP3    H143706   1.591   6.240  15.025  0.5650 -0.2923  0.2405
 7405TIP3    H243707   1.673   6.282  15.145  0.9724 -0.3576 -0.0147
 7406TIP3   OH243708   5.832   2.688  13.537 -0.2059 -0.0081  0.1789
 7406TIP3    H143709   5.917   2.730  13.524 -0.2655  0.7104  1.9233
 7406TIP3    H243710   5.831   2.662  13.629 -2.1565  0.6617  0.3981
 7407TIP3   OH243711   0.723   4.429   2.270 -0.7880  0.2298 -0.2214
 7407TIP3    H143712   0.683   4.494   2.328 -2.5072  1.4135 -2.5567
 7407TIP3    H243713   0.680   4.347   2.292 -0.4528  0.3636  1.0269
 7408TIP3   OH243714   6.748   3.612   0.829 -0.2821  0.1285  0.4789
 7408TIP3    H143715   6.658   3.594   0.857 -0.4757 -0.8101 -0.6577
 7408TIP3    H243716   6.738   3.668   0.752  0.1704  1.1410  1.1411
 7409TIP3   OH243717   3.280   1.443  15.860 -0.6670 -0.5676  0.2538
 7409TIP3    H143718   3.289   1.376  15.791 -0.3639  1.1006 -1.4004
 7409TIP3    H243719   3.288   1.394  15.942 -0.2303 -2.5264 -0.8960
 7410TIP3   OH243720   1.682   2.386  13.630 -0.5825 -0.0580 -0.5264
 7410TIP3    H143721   1.636   2.385  13.713 -1.0823  0.9611 -0.7799
 7410TIP3    H243722   1.659   2.303  13.589  0.0106 -0.7605  0.5233
 7411TIP3   OH243723   0.775   1.372   3.097 -0.8841  0.6196 -0.7416
 7411TIP3    H143724   0.736   1.358   3.011 -1.0544 -1.8201 -0.3257
 7411TIP3    H243725   0.865   1.398   3.079 -0.8086 -0.2305 -1.6568
 7412TIP3   OH243726   0.677   1.407   5.617  0.0645 -0.6502 -0.3274
 7412TIP3    H143727   0.711   1.341   5.678 -0.0702 -0.5991 -0.1969
 7412TIP3    H243728   0.595   1.437   5.657  1.7101  2.0006  1.3645
 7413TIP3   OH243729   2.247   2.123   5.629  0.2558  0.5970 -0.5211
 7413TIP3    H143730   2.328   2.145   5.675 -0.3664  2.0149 -0.0739
 7413TIP3    H243731   2.195   2.075   5.693  1.7947 -2.8849 -1.6283
 7414TIP3   OH243732   5.152   6.599  13.564  0.3820 -0.4783 -0.3185
 7414TIP3    H143733   5.196   6.677  13.597 -0.3532  0.0053 -0.4601
 7414TIP3    H243734   5.165   6.533  13.632 -1.2932  0.5477  1.0893
 7415TIP3   OH243735   1.400   3.420   4.395 -0.1226 -0.2639  0.2665
 7415TIP3    H143736   1.424   3.378   4.477  1.7782 -0.3277 -0.2653
 7415TIP3    H243737   1.455   3.499   4.392 -0.6083  0.0527 -0.6547
 7416TIP3   OH243738   0.373   0.040   2.680  0.4338 -0.1737  0.0616
 7416TIP3    H143739   0.279   0.029   2.697  0.3942  0.3523  0.1917
 7416TIP3    H243740   0.381   0.129   2.646  0.7703 -0.5458 -0.8473
 7417TIP3   OH243741   3.372   6.803  13.518 -0.4221  0.1908 -0.4272
 7417TIP3    H143742   3.354   6.770  13.606  1.5759 -2.2167 -0.8047
 7417TIP3    H243743   3.452   6.855  13.527  1.2214 -2.0564 -1.0734
 7418TIP3   OH243744   5.340   0.825  15.099  0.4234  0.4460 -0.9774
 7418TIP3    H143745   5.292   0.744  15.111 -0.3313  1.0067 -0.0806
 7418TIP3    H243746   5.428   0.806  15.131  0.0813  0.1513 -0.1825
 7419TIP3   OH243747   3.208   2.407   3.305  0.5951  0.6218 -0.0532
 7419TIP3    H143748   3.222   2.501   3.315  0.8319  0.6237 -0.3656
 7419TIP3    H243749   3.271   2.381   3.238  1.9432 -0.1136  1.4332
 7420TIP3   OH243750   0.366   4.652   3.875  0.4513 -0.3784  0.2090
 7420TIP3    H143751   0.299   4.583   3.878  0.4607 -0.3880  0.2049
 7420TIP3    H243752   0.317   4.734   3.876  0.4774 -0.3593  1.5054
 7421TIP3   OH243753   1.464   4.195   1.877  0.3767 -0.4807 -0.1389
 7421TIP3    H143754   1.392   4.133   1.889 -0.0931 -0.3382 -1.9805
 7421TIP3    H243755   1.509   4.164   1.799  0.8405  0.8230 -0.4033
 7422TIP3   OH243756   1.822   6.678  11.155 -0.0108 -0.3689  0.7589
 7422TIP3    H143757   1.911   6.657  11.126 -0.0362 -2.4429  2.0220
 7422TIP3    H243758   1.835   6.730  11.235  0.0382  0.9611 -0.0881
 7423TIP3   OH243759   3.139   3.009   0.896 -0.3117  0.1270 -0.1766
 7423TIP3    H143760   3.223   3.004   0.849 -0.3015  0.4847 -0.1987
 7423TIP3    H243761   3.151   3.080   0.958  0.4837 -1.7599  1.9925
 7424TIP3   OH243762   1.712   3.212  14.104  0.3453  0.8610  0.2538
 7424TIP3    H143763   1.621   3.202  14.131  1.1201  1.1394  3.2280
 7424TIP3    H243764   1.763   3.169  14.173  2.5062  0.9010 -1.2116
 7425TIP3   OH243765   5.634   4.966  11.821 -0.7111  0.5883  0.1781
 7425TIP3    H143766   5.623   5.060  11.837 -1.2109  0.5668 -0.0123
 7425TIP3    H243767   5.597   4.952  11.734 -1.2905  0.1026  0.4866
 7426TIP3   OH243768   6.092   6.388   2.744 -0.3385 -0.7334  0.6253
 7426TIP3    H143769   6.130   6.374   2.657 -2.6422  0.8828 -0.7678
 7426TIP3    H243770   6.162   6.428   2.795  1.4310 -2.7358 -0.0650
 7427TIP3   OH243771   6.291   2.337  14.784 -0.2002  0.6628  0.8248
 7427TIP3    H143772   6.313   2.362  14.874  0.3456 -0.6934  1.0876
 7427TIP3    H243773   6.197   2.354  14.777 -0.4139  0.0356  1.9183
 7428TIP3   OH243774   0.440   6.325   0.057 -0.2301 -0.0542  0.1609
 7428TIP3    H143775   0.413   6.408   0.097  0.9412  0.5219 -0.1950
 7428TIP3    H243776   0.361   6.293   0.013 -0.5434  1.1861 -0.2131
 7429TIP3   OH243777   3.195   1.227  12.819  0.7374 -0.4359  0.0011
 7429TIP3    H143778   3.183   1.148  12.766 -0.6236  0.4539 -1.0956
 7429TIP3    H243779   3.230   1.195  12.902  0.0401 -2.2152 -0.3396
 7430TIP3   OH243780   0.962   0.497   4.600 -0.0575 -0.3986 -0.1580
 7430TIP3    H143781   1.013   0.566   4.641  0.0140 -0.7560  0.3551
 7430TIP3    H243782   0.953   0.430   4.667 -0.2380 -0.8339 -0.6094
 7431TIP3   OH243783   5.423   5.945   5.813 -0.3869 -0.3188  0.1827
 7431TIP3    H143784   5.450   5.855   5.831  0.1400 -0.6720 -2.0583
 7431TIP3    H243785   5.335   5.937   5.776  0.2008 -0.1151 -1.3653
 7432TIP3   OH243786   5.076   4.021   3.498  0.7939 -0.5037 -0.3175
 7432TIP3    H143787   5.136   4.021   3.423 -0.1358 -0.7693 -1.0968
 7432TIP3    H243788   5.091   4.105   3.541  2.1219 -0.8104 -0.1492
 7433TIP3   OH243789   3.148   1.825   0.416  0.1482 -0.4783  0.6793
 7433TIP3    H143790   3.108   1.909   0.441 -1.1533 -0.0726 -2.3433
 7433TIP3    H243791   3.113   1.763   0.480  0.3926  1.0802  2.4253
 7434TIP3   OH243792   2.998   5.978   1.393 -0.1571 -0.5101  0.3959
 7434TIP3    H143793   3.068   6.042   1.379  0.5301 -1.3687 -0.2209
 7434TIP3    H243794   2.918   6.029   1.388  0.3021  0.1198 -1.4461
 7435TIP3   OH243795   3.337   0.362  16.573 -0.1364  0.5083 -0.2758
 7435TIP3    H143796   3.408   0.315  16.530 -0.2124  1.0789 -1.0456
 7435TIP3    H243797   3.259   0.338  16.524 -0.1388  1.6171 -0.8553
 7436TIP3   OH243798   1.691   0.407   2.981  0.2473 -0.0898 -0.2895
 7436TIP3    H143799   1.604   0.368   2.978  1.0380 -2.0453  0.2162
 7436TIP3    H243800   1.677   0.497   3.010 -1.4843 -0.8387  1.4363
 7437TIP3   OH243801   6.159   4.281   0.051 -0.4444  0.1003 -0.2134
 7437TIP3    H143802   6.068   4.295   0.028 -0.1416 -0.2949 -1.7619
 7437TIP3    H243803   6.168   4.186   0.060 -0.3106  0.1766  0.5396
 7438TIP3   OH243804   4.479   3.929   1.542 -0.2873 -0.9927  0.3157
 7438TIP3    H143805   4.401   3.928   1.486 -0.1932 -1.1214  0.1879
 7438TIP3    H243806   4.534   3.858   1.509  0.7731  0.3117 -0.8388
 7439TIP3   OH243807   2.484   5.572  13.712  0.5437  0.1334 -0.3120
 7439TIP3    H143808   2.469   5.512  13.784  2.5239 -0.4329 -0.3083
 7439TIP3    H243809   2.533   5.645  13.751 -0.9310  1.2931 -0.5245
 7440TIP3   OH243810   0.450   0.472  16.326 -0.5285  0.3271  0.6793
 7440TIP3    H143811   0.376   0.533  16.336  0.9009  2.1681  0.5280
 7440TIP3    H243812   0.480   0.456  16.415  0.6209  1.8814  0.6173
 7441TIP3   OH243813   2.988   2.783   2.436  0.8467 -0.1693 -0.3255
 7441TIP3    H143814   2.942   2.734   2.368 -2.8294  0.9747  1.0951
 7441TIP3    H243815   3.023   2.860   2.391 -0.9095  0.2100 -1.1406
 7442TIP3   OH243816   5.856   3.713  17.005 -0.1579 -0.6985 -0.2259
 7442TIP3    H143817   5.797   3.788  16.996  2.4775  1.5600 -0.3456
 7442TIP3    H243818   5.863   3.699  17.100  0.3699  0.1880 -0.1144
 7443TIP3   OH243819   4.585   3.710   6.497 -0.6792  0.3964  0.7504
 7443TIP3    H143820   4.610   3.735   6.585 -1.1733  0.4937  0.8678
 7443TIP3    H243821   4.494   3.741   6.488 -1.3976 -1.5384  0.9845
 7444TIP3   OH243822   1.421   0.074   1.594 -0.2550 -0.4048 -0.4022
 7444TIP3    H143823   1.403   0.120   1.675  1.1062  1.7563 -1.2201
 7444TIP3    H243824   1.341   0.083   1.542 -0.3251  0.3072 -0.1849
 7445TIP3   OH243825   4.643   3.206   1.948 -0.0712 -0.4035  0.2561
 7445TIP3    H143826   4.654   3.133   1.887  1.0051 -0.7298  0.8112
 7445TIP3    H243827   4.655   3.284   1.895 -1.3142 -0.6044 -0.3648
 7446TIP3   OH243828   1.542   3.507  13.971 -0.3049 -0.0662 -0.1813
 7446TIP3    H143829   1.496   3.565  13.910 -1.9443 -0.9556  0.1629
 7446TIP3    H243830   1.485   3.431  13.980  0.7488 -0.7476  1.1000
 7447TIP3   OH243831   1.140   3.515  16.455 -0.1114 -0.3723 -0.2303
 7447TIP3    H143832   1.090   3.519  16.374 -1.2425 -1.1221  0.3973
 7447TIP3    H243833   1.078   3.480  16.520  1.3047 -1.6495  0.5104
 7448TIP3   OH243834   2.013   3.139   6.043  0.4241  0.3622 -0.1453
 7448TIP3    H143835   2.047   3.167   6.127  1.3937 -0.4398 -0.2523
 7448TIP3    H243836   2.039   3.047   6.036  0.1722  0.3599 -1.2185
 7449TIP3   OH243837   1.127   1.781  11.521 -0.3730  0.0485 -0.4180
 7449TIP3    H143838   1.191   1.734  11.468  1.7746  1.2128  0.9741
 7449TIP3    H243839   1.088   1.845  11.461 -0.0071 -0.4914 -1.2398
 7450TIP3   OH243840   0.865   3.192   0.868 -0.9012  0.2269 -0.4715
 7450TIP3    H143841   0.877   3.232   0.954  0.9137  0.0115 -0.5994
 7450TIP3    H243842   0.899   3.257   0.806 -0.5359 -0.3465 -0.8839
 7451TIP3   OH243843   4.349   6.435  10.763 -0.4201 -0.6028 -0.3957
 7451TIP3    H143844   4.396   6.363  10.805  1.0064  0.3436 -0.3277
 7451TIP3    H243845   4.256   6.409  10.768  0.1294 -3.2431 -1.9029
 7452TIP3   OH243846   4.067   6.266   5.381  0.5692 -0.1183  0.2428
 7452TIP3    H143847   3.994   6.229   5.331  1.8602  1.6170 -3.2729
 7452TIP3    H243848   4.031   6.346   5.421  0.3751  0.4344 -1.0099
 7453TIP3   OH243849   3.361   2.046   5.670 -0.3299 -0.0066  0.1466
 7453TIP3    H143850   3.310   2.085   5.741  0.4110  1.6337 -0.1729
 7453TIP3    H243851   3.413   1.978   5.712  1.3085  1.9896  1.5331
 7454TIP3   OH243852   6.092   5.983   0.231 -0.5653 -0.0793  0.8565
 7454TIP3    H143853   6.153   5.966   0.158 -2.5022  0.9356 -1.1151
 7454TIP3    H243854   6.052   5.898   0.248 -2.0820  0.1506 -1.2321
 7455TIP3   OH243855   5.322   6.708   4.801  0.7193  0.5697 -0.0657
 7455TIP3    H143856   5.246   6.727   4.745  1.7725 -0.1391 -1.8016
 7455TIP3    H243857   5.296   6.741   4.887 -1.7262 -0.0020 -0.4936
 7456TIP3   OH243858   5.549   2.478   3.157  0.0747  0.0601 -0.7505
 7456TIP3    H143859   5.548   2.471   3.253  0.4782  0.9020 -0.6772
 7456TIP3    H243860   5.470   2.529   3.136  0.7210  1.0965 -0.7447
 7457TIP3   OH243861   4.897   5.417   5.687 -0.0570 -0.1819  0.1189
 7457TIP3    H143862   4.926   5.508   5.701  0.5645 -0.4854  0.8558
 7457TIP3    H243863   4.974   5.364   5.706 -0.9905 -0.9951  1.7823
 7458TIP3   OH243864   3.995   2.169  12.121 -0.6534 -0.1475  0.0666
 7458TIP3    H143865   4.022   2.133  12.205  0.6143 -1.3467 -0.8036
 7458TIP3    H243866   3.924   2.229  12.142 -0.2025 -0.2316  2.0070
 7459TIP3   OH243867   2.307   6.648  16.437  0.0565  0.1297 -0.2004
 7459TIP3    H143868   2.227   6.600  16.459 -1.2342  2.0965 -0.3743
 7459TIP3    H243869   2.318   6.635  16.343 -1.4881  1.7921 -0.6681
 7460TIP3   OH243870   3.868   3.870  11.423 -0.3463  0.3848 -0.5286
 7460TIP3    H143871   3.917   3.820  11.358 -0.1133 -0.5905  0.3516
 7460TIP3    H243872   3.934   3.926  11.464 -0.2792  0.2388 -0.4337
 7461TIP3   OH243873   6.050   3.896   5.103 -0.4140  1.0968 -0.0182
 7461TIP3    H143874   6.043   3.835   5.030 -1.2193 -1.7104  2.2410
 7461TIP3    H243875   5.959   3.918   5.125 -0.1526  3.7530 -1.1498
 7462TIP3   OH243876   1.442   3.314  11.418  0.5067  0.0163  0.0721
 7462TIP3    H143877   1.417   3.355  11.336  0.3195 -1.2358 -0.5165
 7462TIP3    H243878   1.375   3.342  11.481  0.7486  1.1184 -0.1401
 7463TIP3   OH243879   1.259   4.668  14.259  1.0624 -0.4078  0.0642
 7463TIP3    H143880   1.257   4.764  14.266  0.1271 -0.4279  0.1726
 7463TIP3    H243881   1.257   4.638  14.350  0.8908 -0.5301  0.0198
 7464TIP3   OH243882   6.555   0.201   0.107  0.2445 -0.8823  0.6427
 7464TIP3    H143883   6.478   0.167   0.153 -0.8851 -1.1279 -1.3183
 7464TIP3    H243884   6.559   0.293   0.133 -1.4656 -0.5521 -0.1210
 7465TIP3   OH243885   3.295   2.829   5.032  0.1859 -0.8153 -0.4523
 7465TIP3    H143886   3.263   2.791   4.950 -1.0786  0.2228 -0.4821
 7465TIP3    H243887   3.264   2.769   5.100  0.9759 -1.5183 -0.7100
 7466TIP3   OH243888   0.362   2.524  13.313 -0.0412 -0.1793  0.4122
 7466TIP3    H143889   0.387   2.452  13.255  0.8030  0.4439 -0.0117
 7466TIP3    H243890   0.402   2.502  13.397 -2.2394 -1.6955  1.1768
 7467TIP3   OH243891   3.500   5.287  12.763  0.0155  0.6806  0.2653
 7467TIP3    H143892   3.521   5.194  12.753 -1.8642  0.3398 -1.1839
 7467TIP3    H243893   3.433   5.288  12.832 -0.0567  0.9403  0.1902
 7468TIP3   OH243894   2.431   0.203  11.917 -0.0561 -0.6988  0.1359
 7468TIP3    H143895   2.427   0.127  11.859  0.8067 -0.0039 -0.8634
 7468TIP3    H243896   2.483   0.268  11.869 -1.3940  0.8150  0.6239
 7469TIP3   OH243897   5.056   2.441   4.954  0.3253  0.1894 -0.8096
 7469TIP3    H143898   4.982   2.394   4.917  0.1476 -0.4445  0.3149
 7469TIP3    H243899   5.025   2.475   5.037  0.5401  2.0972 -1.4469
 7470TIP3   OH243900   6.265   4.227   1.417  0.2835  0.1768  0.3608
 7470TIP3    H143901   6.204   4.241   1.345  2.1498  1.2604 -1.1242
 7470TIP3    H243902   6.311   4.311   1.426 -0.4839  0.3942  3.4866
 7471TIP3   OH243903   6.543   3.394   3.913  0.1685 -0.3995 -0.0875
 7471TIP3    H143904   6.508   3.307   3.932 -1.0608  0.6448  3.0186
 7471TIP3    H243905   6.637   3.385   3.929  0.2870 -1.4479 -1.2066
 7472TIP3   OH243906   2.666   4.335  12.397 -0.3328  0.0447 -0.4784
 7472TIP3    H143907   2.582   4.380  12.405 -0.6222 -0.5197 -0.2296
 7472TIP3    H243908   2.654   4.273  12.325 -0.0634  0.1112 -0.5796
 7473TIP3   OH243909   5.549   4.895  16.360  0.5668 -0.3529 -0.3919
 7473TIP3    H143910   5.576   4.872  16.449 -0.0328 -1.6377 -0.5093
 7473TIP3    H243911   5.626   4.880  16.306  0.6261 -0.6029 -0.2368
 7474TIP3   OH243912   3.767   5.787   2.094  0.4229  0.0089  0.2646
 7474TIP3    H143913   3.767   5.763   2.001  1.9705  0.3812  0.1375
 7474TIP3    H243914   3.832   5.858   2.100 -0.7934  1.0686  1.3789
 7475TIP3   OH243915   4.264   4.753   1.236 -0.5673  0.1601  0.0055
 7475TIP3    H143916   4.283   4.757   1.330  0.8992  2.8043 -0.2998
 7475TIP3    H243917   4.217   4.834   1.218  0.7093  0.5600 -1.7924
 7476TIP3   OH243918   2.433   6.166   2.089  0.2185 -0.2508  0.9471
 7476TIP3    H143919   2.449   6.142   1.998 -1.0795  2.4279 -0.1160
 7476TIP3    H243920   2.337   6.173   2.096  0.2914  4.3947  0.9075
 7477TIP3   OH243921   0.150   1.155   6.113  0.8117 -0.4703  0.2036
 7477TIP3    H143922   0.075   1.133   6.057 -0.7755 -1.0387  2.3952
 7477TIP3    H243923   0.166   1.074   6.162  1.7784  0.1761  0.9714
 7478TIP3   OH243924   3.347   5.192   0.031  0.8373  0.3894 -0.1811
 7478TIP3    H143925   3.390   5.277   0.022  0.3689  0.4963 -1.6316
 7478TIP3    H243926   3.418   5.128   0.028  1.2449  0.7232  1.4261
 7479TIP3   OH243927   0.257   3.524  16.312 -0.3438 -0.0477 -0.0260
 7479TIP3    H143928   0.344   3.543  16.277  0.6009  0.5791  2.4588
 7479TIP3    H243929   0.257   3.429  16.327  1.2087  0.2815  2.8488
 7480TIP3   OH243930   3.746   0.307  14.540 -0.1295  0.5813 -0.0101
 7480TIP3    H143931   3.842   0.300  14.541 -0.2182 -2.0300 -1.4261
 7480TIP3    H243932   3.721   0.313  14.632  1.2969 -0.8536  0.5088
 7481TIP3   OH243933   5.296   4.971   4.849 -0.1757  0.0959 -0.4077
 7481TIP3    H143934   5.263   4.900   4.793 -1.0123  0.8426 -0.8869
 7481TIP3    H243935   5.383   4.989   4.815 -0.5429  0.3082 -1.2688
 7482TIP3   OH243936   5.812   0.291  15.820  0.1046  0.5635  0.5041
 7482TIP3    H143937   5.791   0.224  15.755  1.0562  0.6372  0.1080
 7482TIP3    H243938   5.775   0.257  15.901  0.6354 -0.4964  0.3254
 7483TIP3   OH243939   1.411   5.643   4.483  0.1191 -0.0449  0.2892
 7483TIP3    H143940   1.472   5.704   4.524 -0.8267  0.3221  1.1887
 7483TIP3    H243941   1.466   5.583   4.433  1.2043  0.3234  1.0265
 7484TIP3   OH243942   2.491   0.681  13.290  0.2933 -0.0561  0.2754
 7484TIP3    H143943   2.509   0.762  13.338  0.8460 -0.5624  0.9365
 7484TIP3    H243944   2.468   0.618  13.358 -0.1029 -0.4706 -0.2357
 7485TIP3   OH243945   6.026   2.453   2.240  0.1325  0.3100 -0.0166
 7485TIP3    H143946   6.099   2.463   2.301 -0.6378  1.8090  0.7000
 7485TIP3    H243947   5.954   2.422   2.294 -0.2429  0.5337 -0.3864
 7486TIP3   OH243948   0.891   1.188  14.509  0.1530 -0.7291  0.4289
 7486TIP3    H143949   0.894   1.248  14.583  0.5979  1.2025 -1.0746
 7486TIP3    H243950   0.983   1.171  14.489  0.0895  0.1059 -0.6714
 7487TIP3   OH243951   4.979   0.066   3.484  0.2710 -0.2416 -0.0795
 7487TIP3    H143952   4.924   0.129   3.437 -1.9457 -3.0571 -1.5957
 7487TIP3    H243953   4.984   0.100   3.573 -3.3140  0.7091 -0.0653
 7488TIP3   OH243954   5.940   3.689  16.323 -0.0853 -1.0332 -0.1416
 7488TIP3    H143955   6.001   3.710  16.393  0.2368 -0.9537 -0.4412
 7488TIP3    H243956   5.862   3.655  16.367 -0.3306  0.0900  0.3270
 7489TIP3   OH243957   6.510   6.451  13.905 -0.3441  0.5966 -0.2364
 7489TIP3    H143958   6.507   6.450  14.000 -0.8586  1.1794 -0.2410
 7489TIP3    H243959   6.497   6.359  13.879  1.0918  0.2114  0.2690
 7490TIP3   OH243960   1.614   4.241   5.237  0.2876 -0.5492  0.2090
 7490TIP3    H143961   1.692   4.297   5.235 -0.1455  0.0543 -0.0447
 7490TIP3    H243962   1.541   4.301   5.248 -0.1523 -1.1114  0.4508
 7491TIP3   OH243963   2.875   1.753   6.319 -0.0103 -0.4569 -0.7528
 7491TIP3    H143964   2.878   1.837   6.365  1.0972 -1.0645  0.3480
 7491TIP3    H243965   2.965   1.719   6.324 -0.4870 -1.8281 -0.9427
 7492TIP3   OH243966   5.824   0.343  13.725  0.1240  0.0727 -0.0543
 7492TIP3    H143967   5.768   0.360  13.649  0.1547 -2.8039 -0.8443
 7492TIP3    H243968   5.833   0.248  13.727  2.3087  0.2307  2.0152
 7493TIP3   OH243969   6.264   0.733  11.334  0.5567 -0.0907  0.1752
 7493TIP3    H143970   6.269   0.683  11.416  3.5971 -0.5682 -0.1736
 7493TIP3    H243971   6.225   0.817  11.359 -0.2885 -0.8869  1.7059
 7494TIP3   OH243972   1.477   1.070  16.024 -0.0505 -0.0523  0.5299
 7494TIP3    H143973   1.505   0.986  16.061 -2.1797 -0.9606  0.1767
 7494TIP3    H243974   1.383   1.060  16.010 -0.1867  2.0918 -0.3656
 7495TIP3   OH243975   1.439   6.602   0.013 -0.6072  0.6731 -1.0479
 7495TIP3    H143976   1.516   6.657  -0.005 -0.4869  1.4919  1.5485
 7495TIP3    H243977   1.395   6.594  -0.072  1.4178  1.5948 -2.2657
 7496TIP3   OH243978   3.091   1.609   1.725 -0.3031 -0.7495 -0.5495
 7496TIP3    H143979   3.169   1.554   1.730 -0.8065 -1.5960 -1.5206
 7496TIP3    H243980   3.056   1.593   1.637 -0.1564  1.5845 -1.0800
 7497TIP3   OH243981   2.251   5.249  15.362  0.4350  0.4860  0.1396
 7497TIP3    H143982   2.228   5.157  15.347 -0.0548  0.8447 -1.6458
 7497TIP3    H243983   2.203   5.296  15.293 -0.4827  2.2461  1.8984
 7498TIP3   OH243984   6.626   5.641  11.449 -0.7702 -0.4790  0.0210
 7498TIP3    H143985   6.667   5.556  11.436 -1.8340 -0.9391 -0.4796
 7498TIP3    H243986   6.684   5.703  11.406  0.4800 -0.8164  1.1580
 7499TIP3   OH243987   1.878   2.889   2.065 -0.4019 -0.1371  0.2831
 7499TIP3    H143988   1.928   2.951   2.012  0.0682  0.3804  1.2974
 7499TIP3    H243989   1.838   2.943   2.133 -1.7365 -0.6569 -0.0668
 7500TIP3   OH243990   0.695   2.552  12.705  0.4591 -0.0381  0.6712
 7500TIP3    H143991   0.663   2.616  12.768  1.5214 -0.2525  1.4781
 7500TIP3    H243992   0.775   2.592  12.670 -0.4272  0.3267 -0.9956
 7501TIP3   OH243993   1.993   4.880   1.673 -0.6575  0.0709  0.5098
 7501TIP3    H143994   1.903   4.900   1.649 -1.1769 -0.3959  1.9725
 7501TIP3    H243995   1.990   4.792   1.711  0.9348 -1.2355 -2.0996
 7502TIP3   OH243996   6.620   4.809  16.921  0.5549  0.2718 -0.2626
 7502TIP3    H143997   6.592   4.898  16.941 -0.7561 -0.2825  0.5260
 7502TIP3    H243998   6.714   4.816  16.903  0.4270  1.8280 -0.4061
 7503TIP3   OH243999   4.042   3.908   0.124  0.7697 -0.7153  0.1344
 7503TIP3    H144000   4.116   3.873   0.174  1.0563 -1.1466 -0.5739
 7503TIP3    H244001   4.082   3.965   0.058  0.3567  0.2793  0.7345
 7504TIP3   OH244002   2.863   1.750  12.786 -0.3968 -0.0087  0.7282
 7504TIP3    H144003   2.869   1.703  12.869 -0.2613  0.2919  0.8910
 7504TIP3    H244004   2.884   1.841  12.808 -0.3308  0.0684  0.3582
 7505TIP3   OH244005   0.689   6.591  16.630  0.2118  0.1159  0.0886
 7505TIP3    H144006   0.737   6.574  16.549  0.3580 -0.1439  0.2286
 7505TIP3    H244007   0.753   6.578  16.700 -0.1340 -0.5351  0.2915
 7506TIP3   OH244008   1.951   2.113   1.738  0.1600  0.1789 -0.0923
 7506TIP3    H144009   1.977   2.197   1.702 -2.3501  0.7025 -0.8385
 7506TIP3    H244010   1.921   2.063   1.662  0.1436 -0.8317  0.5616
 7507TIP3   OH244011   0.591   4.873   3.153 -0.2286  0.4561  0.5908
 7507TIP3    H144012   0.631   4.930   3.088  2.1327  0.4233  1.9034
 7507TIP3    H244013   0.640   4.891   3.234  0.8086 -3.4938  1.0475
 7508TIP3   OH244014   6.622   3.027   3.138 -0.2692  0.1804 -0.5504
 7508TIP3    H144015   6.657   2.942   3.115  1.4346  0.6697  0.1032
 7508TIP3    H244016   6.540   3.034   3.089 -1.8736 -2.9038  1.4045
 7509TIP3   OH244017   6.312   5.967  11.921 -0.0702 -0.1202  0.5724
 7509TIP3    H144018   6.393   5.961  11.971  1.4078  1.2791 -1.4872
 7509TIP3    H244019   6.258   5.894  11.953  1.8892 -0.9620  2.1524
 7510TIP3   OH244020   2.565   2.294   4.256  0.2348  0.7988 -0.0046
 7510TIP3    H144021   2.553   2.208   4.295 -0.5158  0.9713  0.1445
 7510TIP3    H244022   2.624   2.339   4.316 -0.3773  0.8277  0.5757
 7511TIP3   OH244023   5.864   5.110  11.341 -0.5800 -0.7152 -0.3028
 7511TIP3    H144024   5.915   5.184  11.307 -1.8342  0.0387 -0.5874
 7511TIP3    H244025   5.786   5.150  11.379 -0.5442 -1.7746  0.9741
 7512TIP3   OH244026   4.218   4.682  16.056 -0.1937  0.2257  0.0478
 7512TIP3    H144027   4.204   4.618  15.986 -1.7241 -0.0728  0.6042
 7512TIP3    H244028   4.132   4.697  16.093  0.6196  0.0278  2.1838
 7513TIP3   OH244029   1.197   6.717   2.874 -0.2517 -0.0983 -0.2577
 7513TIP3    H144030   1.269   6.777   2.852 -0.2661 -0.1106 -0.3404
 7513TIP3    H244031   1.145   6.765   2.938  0.4576 -0.5313  0.6654
 7514TIP3   OH244032   0.536   1.016  16.799 -0.5233 -0.4529 -0.2470
 7514TIP3    H144033   0.536   1.083  16.731 -2.4703 -0.4316 -0.2750
 7514TIP3    H244034   0.599   0.951  16.768  0.4783  0.7562 -0.8154
 7515TIP3   OH244035   1.460   2.826   6.718 -0.0447 -0.2314  0.0118
 7515TIP3    H144036   1.487   2.810   6.627 -0.4337  0.5460 -0.2532
 7515TIP3    H244037   1.518   2.771   6.770  0.7149 -0.0974 -0.6631
 7516TIP3   OH244038   0.518   4.629   1.696 -0.0438 -0.1096 -0.2688
 7516TIP3    H144039   0.451   4.647   1.630  0.3380 -0.8773 -0.8935
 7516TIP3    H244040   0.567   4.710   1.705 -1.5312  0.7228  0.7894
 7517TIP3   OH244041   4.610   2.361   2.093 -0.7235  0.4074 -0.4741
 7517TIP3    H144042   4.658   2.283   2.064  0.1104  0.8358 -0.2900
 7517TIP3    H244043   4.679   2.422   2.119 -1.3177  1.5523 -1.4815
 7518TIP3   OH244044   4.878   6.042   5.384  0.0485  0.2091  0.1408
 7518TIP3    H144045   4.903   6.134   5.384 -0.5140  0.4031 -1.6625
 7518TIP3    H244046   4.782   6.043   5.381  0.0508 -0.4112 -0.5725
 7519TIP3   OH244047   2.572   0.755  16.182 -0.4390 -0.3011  0.5507
 7519TIP3    H144048   2.501   0.757  16.247 -1.6376 -2.1666 -0.6134
 7519TIP3    H244049   2.608   0.666  16.188  3.3616  1.1479  2.5938
 7520TIP3   OH244050   3.034   6.034   0.294 -0.5244  0.3653 -0.5365
 7520TIP3    H144051   2.955   6.086   0.311 -0.7787 -0.1733 -0.0365
 7520TIP3    H244052   3.096   6.062   0.360 -0.8846 -0.4134  0.1546
 7521TIP3   OH244053   3.473   1.033   3.685  0.0117 -0.2999  0.5711
 7521TIP3    H144054   3.546   0.971   3.686  0.5285  0.1643 -1.8626
 7521TIP3    H244055   3.405   0.989   3.634 -0.5645  0.1982  0.8944
 7522TIP3   OH244056   4.396   5.998   3.210  0.2124 -0.3296 -0.2178
 7522TIP3    H144057   4.375   6.088   3.185 -0.8970 -0.3054  0.7174
 7522TIP3    H244058   4.438   6.006   3.295  0.0436 -0.6983 -0.0993
 7523TIP3   OH244059   3.148   0.880  12.983 -0.7121  0.3323 -0.2428
 7523TIP3    H144060   3.142   0.895  12.889 -0.8697  2.6158  0.0653
 7523TIP3    H244061   3.069   0.921  13.018  0.8236  2.3347  1.1171
 7524TIP3   OH244062   2.689   2.471   4.905  0.4428  0.1295 -0.2035
 7524TIP3    H144063   2.766   2.492   4.959  0.4567  2.4191 -1.0450
 7524TIP3    H244064   2.631   2.424   4.965  1.5977  0.2149  1.0347
 7525TIP3   OH244065   5.910   2.774  16.207 -0.0805 -0.1979  0.2491
 7525TIP3    H144066   5.819   2.801  16.195  0.0268 -0.5136 -1.5590
 7525TIP3    H244067   5.918   2.759  16.301 -1.3340  1.7712  0.7329
 7526TIP3   OH244068   4.622   2.981  15.984 -0.1506  0.4483  0.0005
 7526TIP3    H144069   4.596   2.930  16.061  1.3021 -0.4459 -0.0564
 7526TIP3    H244070   4.631   3.070  16.017 -0.3654  0.2283  0.6774
 7527TIP3   OH244071   6.662   3.197  16.171 -0.1629 -0.6099  0.0435
 7527TIP3    H144072   6.739   3.165  16.125 -0.6959 -2.6522  0.4631
 7527TIP3    H244073   6.690   3.207  16.262 -0.1671 -0.5292  0.0349
 7528TIP3   OH244074   1.952   3.928   5.443 -0.0950  0.2625 -0.2919
 7528TIP3    H144075   1.905   3.885   5.515 -1.4445  0.0909 -1.2508
 7528TIP3    H244076   1.992   4.005   5.483 -1.6783  0.7273  0.4327
 7529TIP3   OH244077   4.206   2.553  10.539 -0.0336 -0.2569 -0.6134
 7529TIP3    H144078   4.253   2.482  10.583  1.0083 -0.7372 -2.4179
 7529TIP3    H244079   4.267   2.627  10.540 -0.1559 -0.1487 -0.9150
 7530TIP3   OH244080   1.815   1.717   4.553  0.5423 -0.3482 -0.6748
 7530TIP3    H144081   1.870   1.680   4.483  0.3825 -0.8838 -0.5258
 7530TIP3    H244082   1.727   1.686   4.532  0.4463 -0.2576 -0.4040
 7531TIP3   OH244083   2.350   2.690  15.009 -0.8301  0.1710  0.3254
 7531TIP3    H144084   2.257   2.713  15.008 -0.6779  0.8112 -0.6066
 7531TIP3    H244085   2.351   2.595  15.003 -1.4347  0.2376 -1.8772
 7532TIP3   OH244086   4.655   1.855  11.979  0.3770  0.2780 -0.2678
 7532TIP3    H144087   4.600   1.908  12.036 -0.0529  0.7265 -1.0711
 7532TIP3    H244088   4.742   1.895  11.984  0.5735 -0.2507  0.7745
 7533TIP3   OH244089   4.483   5.076   5.995 -0.8639  0.2896  0.1784
 7533TIP3    H144090   4.472   5.078   6.091 -2.2128 -1.0996  0.0903
 7533TIP3    H244091   4.453   4.989   5.970  1.4312 -0.1421 -1.3141
 7534TIP3   OH244092   1.972   0.348  10.549 -0.2120  0.0366  0.5842
 7534TIP3    H144093   2.013   0.410  10.610 -0.9625  0.4395  0.6918
 7534TIP3    H244094   2.028   0.271  10.551  0.8701  0.7869  0.2930
 7535TIP3   OH244095   4.634   0.961   5.238 -0.2070 -0.2941  0.7158
 7535TIP3    H144096   4.691   0.944   5.163  0.4627 -0.1429  1.1891
 7535TIP3    H244097   4.560   0.902   5.225 -1.7032  1.9000 -1.7677
 7536TIP3   OH244098   2.377   5.771  11.046  0.0425  0.5588  0.4941
 7536TIP3    H144099   2.426   5.815  11.116  1.5034  0.2543 -0.2874
 7536TIP3    H244100   2.384   5.831  10.971 -0.0746  0.1362  0.1428
 7537TIP3   OH244101   1.206   1.213   5.200 -0.8357  0.0834  0.1410
 7537TIP3    H144102   1.138   1.194   5.134  0.2244  1.8042 -1.5530
 7537TIP3    H244103   1.174   1.292   5.245 -0.7108 -0.0566  0.4761
 7538TIP3   OH244104   1.139   5.833   3.285  0.4601  0.2559 -0.2370
 7538TIP3    H144105   1.089   5.787   3.352  0.1590 -0.8934 -1.2155
 7538TIP3    H244106   1.140   5.924   3.314 -0.3418 -0.0801  0.9056
 7539TIP3   OH244107   1.456   4.555  15.893  0.3674 -0.1237 -0.0402
 7539TIP3    H144108   1.465   4.506  15.975  0.2028 -0.3538 -0.1599
 7539TIP3    H244109   1.381   4.515  15.849 -0.4549  0.9318  0.3520
 7540TIP3   OH244110   0.196   5.247   0.374 -0.4793 -0.5627 -0.0147
 7540TIP3    H144111   0.274   5.197   0.352  0.3205 -0.3797  2.1240
 7540TIP3    H244112   0.198   5.254   0.470 -3.7171 -1.5033  0.2590
 7541TIP3   OH244113   3.935   3.310  16.875 -0.3407  0.1832  0.0666
 7541TIP3    H144114   3.931   3.321  16.780 -1.6285  0.5871  0.1506
 7541TIP3    H244115   3.879   3.380  16.909  0.5211  0.3696  1.1470
 7542TIP3   OH244116   4.204   1.575  10.572 -0.6531  0.6401 -0.3247
 7542TIP3    H144117   4.252   1.517  10.513 -1.1953  1.5219 -1.6929
 7542TIP3    H244118   4.240   1.662  10.553 -0.8546  0.9397  0.6419
 7543TIP3   OH244119   2.387   3.372   0.714  0.0932 -0.3583 -0.7408
 7543TIP3    H144120   2.293   3.389   0.702  0.2168  0.7856 -0.1919
 7543TIP3    H244121   2.393   3.332   0.801  0.2309  0.6858 -0.2631
 7544TIP3   OH244122   4.503   1.430   1.957  0.6723 -0.1541  0.1382
 7544TIP3    H144123   4.548   1.411   1.874  1.5414  1.1429  0.2818
 7544TIP3    H244124   4.451   1.508   1.938 -0.8556 -1.1254  0.2290
 7545TIP3   OH244125   3.605   5.647   3.569  0.0868  0.2231  0.2083
 7545TIP3    H144126   3.515   5.668   3.594  0.0123  2.0040 -1.3592
 7545TIP3    H244127   3.658   5.716   3.608  0.8320 -0.8995  1.2460
 7546TIP3   OH244128   6.315   3.211  13.274 -0.0945 -1.1620  0.0667
 7546TIP3    H144129   6.305   3.119  13.301  0.2382 -0.8077  1.4825
 7546TIP3    H244130   6.296   3.261  13.354 -0.0746 -0.0041 -0.6392
 7547TIP3   OH244131   5.857   1.860   4.033 -0.0270  0.0361  0.3046
 7547TIP3    H144132   5.848   1.805   4.111  0.5903  0.5909  0.7789
 7547TIP3    H244133   5.776   1.910   4.029 -0.4925 -0.7224  0.0039
 7548TIP3   OH244134   6.815   3.677   3.707 -0.1000  0.4200  0.2807
 7548TIP3    H144135   6.781   3.766   3.695 -0.8505  0.0285 -0.6919
 7548TIP3    H244136   6.739   3.620   3.691  0.7472 -0.4454 -0.8178
 7549TIP3   OH244137   1.933   2.539   4.276  0.3819 -0.4414  0.3578
 7549TIP3    H144138   2.014   2.542   4.327 -0.0539 -0.7701  1.0718
 7549TIP3    H244139   1.904   2.448   4.283 -1.9223  0.3801  3.0472
 7550TIP3   OH244140   5.678   2.022   6.120  0.8645  0.0411 -0.2686
 7550TIP3    H144141   5.670   2.116   6.135  0.8961  0.4474 -2.4739
 7550TIP3    H244142   5.771   2.004   6.129  0.6483 -0.2680  2.3125
 7551TIP3   OH244143   6.354   6.291  12.865  0.3775  0.0335  0.2495
 7551TIP3    H144144   6.359   6.211  12.814 -1.3750  0.3088 -0.4268
 7551TIP3    H244145   6.276   6.336  12.832  2.0206  2.6838 -0.3255
 7552TIP3   OH244146   5.082   3.609   1.240 -0.3295  0.1737 -0.7096
 7552TIP3    H144147   5.099   3.526   1.194  0.8811  0.8750 -1.5908
 7552TIP3    H244148   4.993   3.632   1.215 -0.2824 -0.3107 -1.3591
 7553TIP3   OH244149   0.490   3.297  11.454 -0.0539  0.0275  0.0046
 7553TIP3    H144150   0.493   3.380  11.407 -0.0391  0.3768  0.6015
 7553TIP3    H244151   0.403   3.295  11.494 -0.6781 -1.0121 -1.3350
 7554TIP3   OH244152   6.296   3.251   3.685 -0.2696 -0.0735  0.0221
 7554TIP3    H144153   6.346   3.321   3.643  1.4296 -0.4748  1.2701
 7554TIP3    H244154   6.323   3.171   3.640 -0.4466 -0.1900  0.1217
 7555TIP3   OH244155   6.378   5.404   4.649 -0.5253 -0.1645 -0.9743
 7555TIP3    H144156   6.289   5.410   4.684 -0.9699 -1.6448 -1.7605
 7555TIP3    H244157   6.417   5.329   4.694  0.8731  1.3087  0.4210
 7556TIP3   OH244158   0.424   6.765   4.773 -0.2518 -0.9883  0.0607
 7556TIP3    H144159   0.418   6.670   4.756  1.3462 -1.1107  0.0711
 7556TIP3    H244160   0.517   6.782   4.779 -0.5660  0.3127  1.8136
 7557TIP3   OH244161   4.268   1.616   1.181  0.2463 -0.2216 -0.0066
 7557TIP3    H144162   4.242   1.704   1.153 -3.1022 -1.4658 -1.3874
 7557TIP3    H244163   4.230   1.558   1.114  2.9058 -2.7288  0.4804
 7558TIP3   OH244164   0.491   6.690   1.265 -0.0033  0.4406 -0.1451
 7558TIP3    H144165   0.513   6.737   1.346  0.6182 -0.1899  0.0646
 7558TIP3    H244166   0.488   6.759   1.198 -3.3099  1.4354  0.8320
 7559TIP3   OH244167   0.607   6.080   3.639 -0.1324  0.7578  0.1847
 7559TIP3    H144168   0.623   6.028   3.561 -1.5626  2.3016 -1.2100
 7559TIP3    H244169   0.611   6.017   3.711  1.5981 -0.6388 -1.0441
 7560TIP3   OH244170   6.047   0.322   2.439  0.0954  0.2359  0.2621
 7560TIP3    H144171   5.998   0.290   2.362 -0.2647 -0.8879  0.9383
 7560TIP3    H244172   6.128   0.358   2.402  0.4311 -1.2881 -0.5671
 7561TIP3   OH244173   6.165   0.819   5.213  0.4167 -0.2258 -0.4289
 7561TIP3    H144174   6.077   0.832   5.177  0.4029  0.4353 -0.1610
 7561TIP3    H244175   6.209   0.903   5.202  0.1189  0.3060  1.8908
 7562TIP3   OH244176   0.540   1.106  14.327 -0.2371  0.4998 -0.4820
 7562TIP3    H144177   0.456   1.063  14.339  0.0705 -0.3185 -1.2044
 7562TIP3    H244178   0.591   1.046  14.273  1.8065 -0.3943  2.1547
 7563TIP3   OH244179   2.561   4.982   1.217  0.3471 -0.2438  0.6483
 7563TIP3    H144180   2.550   5.077   1.221  2.4132  0.1865 -1.6465
 7563TIP3    H244181   2.509   4.949   1.290 -1.2878  2.5499  0.8903
 7564TIP3   OH244182   0.255   5.122   4.341  0.3618 -0.0993  0.1031
 7564TIP3    H144183   0.301   5.073   4.409 -1.4739 -0.4348  1.1647
 7564TIP3    H244184   0.319   5.188   4.312  1.0975  0.2945  2.4128
 7565TIP3   OH244185   0.488   6.594  11.620  0.4499  0.4980  0.5408
 7565TIP3    H144186   0.448   6.516  11.580 -2.4884  1.7405  0.8284
 7565TIP3    H244187   0.506   6.652  11.546  0.3985  0.5163  0.5429
 7566TIP3   OH244188   2.547   0.626  14.944  0.1870  0.0292  0.5687
 7566TIP3    H144189   2.586   0.564  14.882 -0.9915  0.0181 -0.1938
 7566TIP3    H244190   2.575   0.712  14.914 -0.5054  0.0344 -0.0949
 7567TIP3   OH244191   2.169   3.765  13.892  0.1269  0.0687  0.0824
 7567TIP3    H144192   2.174   3.721  13.977  1.3938  1.2484  0.6507
 7567TIP3    H244193   2.102   3.716  13.844 -0.8406 -0.4489  1.8568
 7568TIP3   OH244194   2.221   5.534  16.260 -0.3475  0.2328  0.1069
 7568TIP3    H144195   2.294   5.592  16.238  1.7753 -1.4706  2.0509
 7568TIP3    H244196   2.173   5.581  16.328 -0.8580  1.1887 -0.8826
 7569TIP3   OH244197   3.042   2.631   2.787  0.3395  0.6342  0.0692
 7569TIP3    H144198   3.025   2.580   2.707  2.1036  0.7318 -0.4125
 7569TIP3    H244199   3.031   2.568   2.858  2.5253 -0.5034 -0.5204
 7570TIP3   OH244200   6.277   6.625  14.066 -0.1620  0.6457  0.2364
 7570TIP3    H144201   6.316   6.538  14.063  1.1098  1.1632  0.7642
 7570TIP3    H244202   6.264   6.649  13.975  0.8766  0.4874  0.0363
 7571TIP3   OH244203   4.009   3.636  14.693  0.6791 -0.1172 -0.5312
 7571TIP3    H144204   4.038   3.554  14.732  0.5746  0.2244  0.2933
 7571TIP3    H244205   4.050   3.638  14.607 -0.0871 -1.4757 -0.9588
 7572TIP3   OH244206   4.779   3.100   6.322  0.2564  0.1266 -1.1833
 7572TIP3    H144207   4.873   3.102   6.302  0.2305  0.0765 -1.3071
 7572TIP3    H244208   4.775   3.062   6.410  0.4673  1.6814 -0.4684
 7573TIP3   OH244209   2.034   6.237   5.664  0.4820 -0.2109  0.2448
 7573TIP3    H144210   2.001   6.288   5.738  0.5659  0.9570 -0.4916
 7573TIP3    H244211   1.981   6.158   5.664 -0.4959  0.4195  0.6956
 7574TIP3   OH244212   2.077   4.131   2.144 -0.3538  0.2950 -0.4528
 7574TIP3    H144213   2.081   4.077   2.222 -1.0926  0.2939 -0.4128
 7574TIP3    H244214   2.109   4.217   2.173 -1.5199  0.5599  0.0910
 7575TIP3   OH244215   0.715   3.639   4.597 -0.2343 -0.0382 -0.7447
 7575TIP3    H144216   0.668   3.577   4.542  0.2353 -1.3905  0.3236
 7575TIP3    H244217   0.649   3.704   4.622 -0.8553 -0.3715 -1.4882
 7576TIP3   OH244218   3.811   4.892  13.682 -0.3246  0.0035  0.0652
 7576TIP3    H144219   3.775   4.841  13.609  1.1308 -1.0571  0.0486
 7576TIP3    H244220   3.734   4.926  13.728 -1.2655  0.8325 -2.0320
 7577TIP3   OH244221   4.456   3.970  10.947  0.0466 -0.1029  0.0042
 7577TIP3    H144222   4.534   3.944  10.898 -0.1110 -1.5540  0.4669
 7577TIP3    H244223   4.461   4.065  10.952  0.8748 -0.0461 -1.4595
 7578TIP3   OH244224   2.005   4.581  12.578  0.2442 -0.4289  0.4066
 7578TIP3    H144225   1.916   4.573  12.544  0.5620 -2.6228 -0.0483
 7578TIP3    H244226   2.022   4.497  12.621  1.9686  0.0889  0.8226
 7579TIP3   OH244227   0.759   5.794  11.665  0.0202  0.0411  0.0148
 7579TIP3    H144228   0.810   5.807  11.586  1.0369 -3.7060 -0.1163
 7579TIP3    H244229   0.806   5.843  11.732  2.3196 -1.1211 -0.6656
 7580TIP3   OH244230   5.063   2.037  12.974 -0.3220  0.1805  0.5524
 7580TIP3    H144231   5.136   2.095  12.999  0.7062 -1.0511  0.5379
 7580TIP3    H244232   4.991   2.064  13.030 -0.4178  2.5775 -0.6090
 7581TIP3   OH244233   6.489   0.462  12.784  0.6773  0.2464  0.0263
 7581TIP3    H144234   6.567   0.507  12.814  0.8765  0.2040 -0.4175
 7581TIP3    H244235   6.503   0.370  12.805  0.2846  0.3785  0.9046
 7582TIP3   OH244236   3.691   3.532   0.531 -0.4875  0.2410  0.5862
 7582TIP3    H144237   3.783   3.530   0.559 -0.6820  0.4195  1.2478
 7582TIP3    H244238   3.678   3.448   0.487 -0.4487 -0.5033  1.9421
 7583TIP3   OH244239   3.517   4.064  11.848 -0.3788 -0.3577 -0.0673
 7583TIP3    H144240   3.448   3.998  11.839  1.2202 -2.2143  0.5275
 7583TIP3    H244241   3.571   4.052  11.770  0.2872 -0.2121  0.3656
 7584TIP3   OH244242   5.427   1.139  13.094 -0.0955 -0.3105 -0.2050
 7584TIP3    H144243   5.480   1.075  13.046 -0.8072 -1.9718  1.1275
 7584TIP3    H244244   5.341   1.136  13.052  0.2606  0.8982 -1.0744
 7585TIP3   OH244245   3.451   2.047  13.010 -0.0742  0.2421  0.3532
 7585TIP3    H144246   3.421   2.131  13.043 -0.5204 -0.0174  0.6116
 7585TIP3    H244247   3.390   1.983  13.046  1.9624 -0.5745  2.6807
 7586TIP3   OH244248   6.035   0.036   4.320  0.2313  0.7689  0.1898
 7586TIP3    H144249   6.073  -0.036   4.269  0.6587  2.7231 -2.4260
 7586TIP3    H244250   6.111   0.084   4.353  0.0457  1.8936 -0.9373
 7587TIP3   OH244251   1.304   4.172  12.595 -0.6303 -0.1990  0.4266
 7587TIP3    H144252   1.303   4.221  12.513 -0.4264 -1.3148 -0.2606
 7587TIP3    H244253   1.223   4.198  12.640 -0.2385  1.2158  0.3801
 7588TIP3   OH244254   5.097   1.621   3.624  0.5746  0.0598 -0.2280
 7588TIP3    H144255   5.024   1.570   3.588 -0.5534  1.4244  0.0513
 7588TIP3    H244256   5.175   1.580   3.587 -0.1897 -2.4297  0.6629
 7589TIP3   OH244257   0.574   4.935   2.002 -0.2530 -0.5150 -0.2427
 7589TIP3    H144258   0.625   4.892   1.933 -0.2031 -0.8737  0.0190
 7589TIP3    H244259   0.566   4.870   2.071 -1.0232 -0.4455 -0.2560
 7590TIP3   OH244260   1.938   6.447  12.721 -0.3334 -0.0125 -0.3187
 7590TIP3    H144261   1.961   6.362  12.684  0.7812 -0.3214  1.0064
 7590TIP3    H244262   1.991   6.510  12.673 -0.6974 -0.1257 -0.8754
 7591TIP3   OH244263   0.900   0.966   0.335 -0.2234 -0.6594 -0.4055
 7591TIP3    H144264   0.958   1.009   0.272 -0.6375  0.5910  0.0384
 7591TIP3    H244265   0.955   0.954   0.413 -0.2738 -0.3767 -0.3248
 7592TIP3   OH244266   6.732   6.017   2.463 -0.1822 -0.3897 -1.0760
 7592TIP3    H144267   6.677   6.095   2.473 -0.0504 -0.0490 -2.7314
 7592TIP3    H244268   6.741   6.006   2.369  0.7933 -1.7278 -0.8541
 7593TIP3   OH244269   4.819   1.924  13.479 -0.2055 -0.2399 -0.3323
 7593TIP3    H144270   4.849   1.864  13.547  1.4166  0.7963 -0.0800
 7593TIP3    H244271   4.886   1.918  13.411 -0.1595  1.0639 -0.4192
 7594TIP3   OH244272   5.318   1.512   3.525 -0.3685  0.4070 -0.4810
 7594TIP3    H144273   5.351   1.422   3.533 -0.3926  0.4325 -0.0530
 7594TIP3    H244274   5.379   1.564   3.577 -1.2624  0.4120  0.5888
 7595TIP3   OH244275   2.471   4.902  16.071 -0.2421  0.4306  0.2556
 7595TIP3    H144276   2.507   4.883  16.158 -0.0652  0.8312  0.2738
 7595TIP3    H244277   2.507   4.835  16.014  0.5236  0.8105  0.2790
 7596TIP3   OH244278   5.932   6.041  12.161 -0.1232  0.4864  0.3851
 7596TIP3    H144279   5.973   6.006  12.240 -3.2681 -1.2352  1.4120
 7596TIP3    H244280   5.913   5.964  12.107 -2.1658  1.0948  0.1239
 7597TIP3   OH244281   1.197   4.416   5.971  0.4587 -0.9032  0.0280
 7597TIP3    H144282   1.261   4.482   5.944 -0.1694 -0.8252 -1.3714
 7597TIP3    H244283   1.125   4.426   5.908  1.1584 -4.2025 -1.5013
 7598TIP3   OH244284   1.862   4.393  15.815  0.3436  0.7189 -0.0943
 7598TIP3    H144285   1.915   4.367  15.740  1.0743  1.6879  0.0735
 7598TIP3    H244286   1.772   4.374  15.788  0.6615  0.2752 -0.8808
 7599TIP3   OH244287   3.028   4.442   5.357  0.6144 -0.0007 -0.0301
 7599TIP3    H144288   3.038   4.349   5.337 -0.2391  0.0699 -0.8399
 7599TIP3    H244289   3.047   4.449   5.451  1.3867 -0.8748 -0.1093
 7600TIP3   OH244290   4.609   4.606   3.281 -0.1772  0.0459 -0.1750
 7600TIP3    H144291   4.583   4.582   3.193  2.2196 -1.7566 -0.4830
 7600TIP3    H244292   4.579   4.533   3.336 -0.9851  0.7984  0.4217
 7601TIP3   OH244293   5.134   3.534   4.508 -0.5234 -0.1843 -0.3122
 7601TIP3    H144294   5.057   3.529   4.563 -0.5001 -0.6355 -0.3164
 7601TIP3    H244295   5.133   3.453   4.457 -0.2796  0.0008 -0.6213
 7602TIP3   OH244296   5.133   4.735   5.811 -0.7057 -0.5285  0.0822
 7602TIP3    H144297   5.090   4.701   5.733 -0.1845 -0.7781 -0.1023
 7602TIP3    H244298   5.110   4.674   5.880 -2.5565  0.5900  0.5294
 7603TIP3   OH244299   4.358   1.361  13.155 -0.3066 -0.2089  0.2216
 7603TIP3    H144300   4.390   1.289  13.209 -0.4635 -1.3389 -1.1351
 7603TIP3    H244301   4.392   1.342  13.067 -3.5743 -0.7935 -1.0382
 7604TIP3   OH244302   1.427   0.702   5.235  0.4519 -0.0461 -0.2093
 7604TIP3    H144303   1.447   0.623   5.185  0.9133  0.0244 -0.1431
 7604TIP3    H244304   1.479   0.693   5.315 -1.7660 -1.1222  1.2211
 7605TIP3   OH244305   1.888   1.212  14.343 -0.1405  0.6714 -0.4873
 7605TIP3    H144306   1.892   1.278  14.274 -0.5640 -0.4635 -1.6245
 7605TIP3    H244307   1.842   1.256  14.415 -0.8813  1.4580 -1.4085
 7606TIP3   OH244308   0.321   1.835  11.908  0.3538 -0.0143  0.5925
 7606TIP3    H144309   0.231   1.858  11.930 -0.0427  0.4763 -1.4394
 7606TIP3    H244310   0.327   1.742  11.928 -1.2374 -0.5373 -1.1081
 7607TIP3   OH244311   0.068   5.236  17.129  0.0645 -0.5818 -0.5037
 7607TIP3    H144312   0.131   5.181  17.084 -1.7341 -2.4663 -0.8603
 7607TIP3    H244313   0.047   5.305  17.066 -0.3135 -1.5794 -1.5037
 7608TIP3   OH244314   5.287   2.412  14.593  0.3815 -0.6138  0.1862
 7608TIP3    H144315   5.260   2.332  14.548  0.2552 -0.3416 -0.2284
 7608TIP3    H244316   5.232   2.415  14.672 -2.0883  0.8079 -1.4610
 7609TIP3   OH244317   2.208   3.907   6.351 -0.2423  0.0774  0.6070
 7609TIP3    H144318   2.247   3.820   6.364 -1.9807 -0.5060  2.5484
 7609TIP3    H244319   2.266   3.966   6.399  0.4311 -0.1494  0.0859
 7610TIP3   OH244320   5.068   1.171   1.161 -0.5274 -0.2615 -0.2777
 7610TIP3    H144321   5.113   1.164   1.245 -0.8561  1.4534  0.0751
 7610TIP3    H244322   5.137   1.162   1.095 -0.4281 -2.9700  0.0641
 7611TIP3   OH244323   0.308   3.418  15.274  0.5154  0.2949  0.2709
 7611TIP3    H144324   0.260   3.485  15.323 -1.8697 -0.5523 -0.7657
 7611TIP3    H244325   0.319   3.346  15.336  0.4063  0.4814  0.5089
 7612TIP3   OH244326   4.884   0.394   4.924 -0.6621 -0.4883 -0.3176
 7612TIP3    H144327   4.899   0.443   5.004 -1.7476 -0.3103 -0.2162
 7612TIP3    H244328   4.860   0.306   4.953 -0.0894 -0.7046 -0.4747
 7613TIP3   OH244329   3.843   4.110   4.035  0.7204 -0.6603 -0.4185
 7613TIP3    H144330   3.821   4.025   3.995  0.0740 -0.6376 -0.1158
 7613TIP3    H244331   3.929   4.095   4.075  1.3320 -0.7229 -1.6936
 7614TIP3   OH244332   2.147   3.586  16.583 -0.0046 -0.1162  0.3275
 7614TIP3    H144333   2.159   3.660  16.642 -0.3013  0.6415 -0.5367
 7614TIP3    H244334   2.056   3.560  16.595 -0.1968  0.3323 -0.1143
 7615TIP3   OH244335   5.249   4.030   6.429 -0.6750  0.1217  0.0576
 7615TIP3    H144336   5.330   4.079   6.446 -1.2628  1.4444 -0.7782
 7615TIP3    H244337   5.247   3.963   6.497  2.4147 -1.6500 -1.4209
 7616TIP3   OH244338   5.954   1.477   1.166  0.1201 -0.0425 -0.1152
 7616TIP3    H144339   5.875   1.506   1.211  0.3449  0.8759 -0.2907
 7616TIP3    H244340   5.938   1.385   1.145 -0.7954  0.0693  0.0732
 7617TIP3   OH244341   6.294   1.753   4.980 -0.2543 -0.5396 -0.1456
 7617TIP3    H144342   6.267   1.664   4.957  0.4261 -1.2575  1.6692
 7617TIP3    H244343   6.327   1.746   5.069 -1.6044  1.8292  0.6447
 7618TIP3   OH244344   2.633   2.309   4.640 -0.5610  0.0078  0.0168
 7618TIP3    H144345   2.609   2.375   4.705  0.1083 -1.3518  1.7524
 7618TIP3    H244346   2.681   2.243   4.690  1.6450 -0.2412 -2.2211
 7619TIP3   OH244347   3.904   0.583   4.926  0.0774 -0.1124  0.2566
 7619TIP3    H144348   3.982   0.530   4.943  1.4122  1.3975 -0.8483
 7619TIP3    H244349   3.938   0.671   4.907 -1.8447  0.4389 -0.9343
 7620TIP3   OH244350   6.821   2.778   3.232  1.1085  0.1012 -0.0698
 7620TIP3    H144351   6.902   2.755   3.277  0.6862 -1.0264  0.1500
 7620TIP3    H244352   6.818   2.721   3.156  1.5486  1.6237 -1.2847
 7621TIP3   OH244353   3.084   6.294   0.190  0.3388 -0.0295  0.0743
 7621TIP3    H144354   3.091   6.240   0.269  1.5658  1.6168  1.1432
 7621TIP3    H244355   2.990   6.309   0.180  0.1605 -0.3056  1.1822
 7622TIP3   OH244356   3.862   5.152   3.748  0.9284 -0.0807  0.7778
 7622TIP3    H144357   3.834   5.087   3.812  0.7253  0.0917  0.8623
 7622TIP3    H244358   3.791   5.155   3.683  1.8319 -1.4310 -0.3436
 7623TIP3   OH244359   5.824   5.750   1.176 -0.1818 -0.4829  0.0535
 7623TIP3    H144360   5.755   5.774   1.238  0.5495  0.1959  0.6315
 7623TIP3    H244361   5.905   5.772   1.222  0.3795  0.1605 -1.1995
 7624TIP3   OH244362   3.199   4.778  14.289 -0.1844  0.5669 -0.3416
 7624TIP3    H144363   3.118   4.775  14.340 -0.0243  1.9399  0.0535
 7624TIP3    H244364   3.171   4.761  14.199 -0.7649  0.0736 -0.0783
 7625TIP3   OH244365   1.504   4.435   0.714  0.7692 -0.8154  0.0681
 7625TIP3    H144366   1.478   4.383   0.791  0.6946 -2.9057 -1.2896
 7625TIP3    H244367   1.458   4.394   0.641 -0.1395  1.8717 -1.0026
 7626TIP3   OH244368   4.453   3.133   4.619 -0.1392  0.4852  0.3996
 7626TIP3    H144369   4.401   3.210   4.640  1.8576  1.5537  1.6773
 7626TIP3    H244370   4.460   3.134   4.524 -5.4981 -1.8594 -0.4084
 7627TIP3   OH244371   2.920   6.147   2.061 -0.4548  0.4767  0.2295
 7627TIP3    H144372   2.968   6.126   1.981 -0.3209 -1.5182  0.7813
 7627TIP3    H244373   2.987   6.152   2.129 -0.8126 -0.4246  0.6652
 7628TIP3   OH244374   6.067   2.546   6.007 -0.0306  0.0498 -0.1994
 7628TIP3    H144375   6.145   2.542   6.062 -0.4071  0.7875  0.4003
 7628TIP3    H244376   6.028   2.459   6.015 -0.9100  0.5740  1.9573
 7629TIP3   OH244377   0.844   3.193   4.678  0.3724 -0.3057 -0.1606
 7629TIP3    H144378   0.754   3.182   4.647  0.2579  0.4379 -0.0987
 7629TIP3    H244379   0.839   3.171   4.771  0.6110 -1.9990 -0.5110
 7630TIP3   OH244380   4.507   2.861  10.912  0.4966 -0.2341 -0.1802
 7630TIP3    H144381   4.531   2.821  10.829  1.3629 -0.0431 -0.0346
 7630TIP3    H244382   4.545   2.803  10.978 -2.0296 -1.6060  0.1885
 7631TIP3   OH244383   1.245   6.590   4.383 -0.1001 -0.3167  0.1152
 7631TIP3    H144384   1.275   6.671   4.424 -1.9705 -0.8694  2.7941
 7631TIP3    H244385   1.196   6.619   4.306  1.0634  0.9363 -0.1957
 7632TIP3   OH244386   3.199   5.680   4.817  0.2688  0.1052  0.2350
 7632TIP3    H144387   3.249   5.610   4.860  0.6782  0.4861  0.3821
 7632TIP3    H244388   3.254   5.708   4.745 -1.1261 -1.7020 -1.6818
 7633TIP3   OH244389   5.859   6.828  16.670 -0.0216 -0.2911  0.3836
 7633TIP3    H144390   5.773   6.871  16.667  0.2138  0.1741  0.2280
 7633TIP3    H244391   5.849   6.753  16.610 -0.5590 -0.7039  0.9759
 7634TIP3   OH244392   4.546   0.378   4.902  0.1771  0.4183  0.3891
 7634TIP3    H144393   4.636   0.356   4.879 -0.5534 -1.1293 -1.2296
 7634TIP3    H244394   4.501   0.293   4.905 -1.5661  1.2584 -0.5081
 7635TIP3   OH244395   3.334   2.688   0.416  0.3374 -0.5149  0.1975
 7635TIP3    H144396   3.325   2.593   0.414  2.2086 -0.7942  2.1252
 7635TIP3    H244397   3.383   2.709   0.337 -0.9973 -0.9689 -0.8016
 7636TIP3   OH244398   6.681   2.460  11.949 -0.3314 -0.3699  0.1786
 7636TIP3    H144399   6.705   2.367  11.941 -0.1836 -0.3198  0.0484
 7636TIP3    H244400   6.586   2.460  11.937 -0.2349 -0.4091 -0.6307
 7637TIP3   OH244401   3.863   0.555  12.951  0.0323  0.4530 -0.0420
 7637TIP3    H144402   3.892   0.610  13.024 -2.7218  1.5770  0.3433
 7637TIP3    H244403   3.829   0.476  12.993  0.8725 -0.0850 -0.3483
 7638TIP3   OH244404   0.465   1.133   0.438 -0.3278  0.0065  0.0311
 7638TIP3    H144405   0.381   1.088   0.430  0.3336 -1.3944  0.7371
 7638TIP3    H244406   0.523   1.086   0.378 -0.4623  2.1064 -1.8671
 7639TIP3   OH244407   4.742   4.411   2.526 -0.7083 -0.4379 -0.3549
 7639TIP3    H144408   4.735   4.502   2.552 -0.2463 -0.1111 -1.3275
 7639TIP3    H244409   4.666   4.395   2.470  0.1909 -0.0891 -1.7294
 7640TIP3   OH244410   1.436   5.208   2.257  0.2069 -0.5401 -0.1929
 7640TIP3    H144411   1.453   5.153   2.181 -0.9004  0.1438 -0.9724
 7640TIP3    H244412   1.412   5.293   2.220  0.2263 -0.0181  0.9396
 7641TIP3   OH244413   4.588   2.466   0.435  0.8700 -0.3527  0.0584
 7641TIP3    H144414   4.636   2.383   0.437 -0.5890 -1.2711 -1.0404
 7641TIP3    H244415   4.532   2.459   0.357  0.3693  1.4771  0.2120
 7642TIP3   OH244416   3.921   5.399   1.261  0.1085  0.6000 -0.3131
 7642TIP3    H144417   3.909   5.316   1.308 -1.6482  0.1737 -1.4298
 7642TIP3    H244418   3.950   5.374   1.174  1.4542  1.2936 -0.0935
 7643TIP3   OH244419   2.842   2.250  16.639 -0.3383 -0.3324  0.4535
 7643TIP3    H144420   2.932   2.284  16.633 -0.1012 -0.9925  0.1507
 7643TIP3    H244421   2.836   2.215  16.728  0.4587 -2.2892 -0.2004
 7644TIP3   OH244422   0.652   1.337   2.855 -0.4498  0.4744  0.4043
 7644TIP3    H144423   0.677   1.250   2.823 -0.8142  0.0210  1.3134
 7644TIP3    H244424   0.590   1.370   2.790 -0.3965  0.0102  0.1133
 7645TIP3   OH244425   5.063   6.261  11.681  0.4908 -0.6689 -0.6148
 7645TIP3    H144426   5.052   6.323  11.609 -3.0522 -2.5096 -1.9171
 7645TIP3    H244427   5.115   6.308  11.746 -0.0475  2.7758 -2.4498
 7646TIP3   OH244428   3.670   0.053  11.780  0.2357  0.4494 -0.0295
 7646TIP3    H144429   3.757   0.016  11.795  0.0008  0.2258  0.7913
 7646TIP3    H244430   3.667   0.068  11.685  0.9236 -0.1384 -0.1546
 7647TIP3   OH244431   1.542   4.297   1.406 -0.1867 -0.3040 -0.7600
 7647TIP3    H144432   1.601   4.318   1.478  0.2035  0.4293 -1.2773
 7647TIP3    H244433   1.465   4.258   1.447 -0.6270  1.4771  0.1954
 7648TIP3   OH244434   2.096   3.781   4.215  0.2408 -0.2926  0.3265
 7648TIP3    H144435   2.160   3.717   4.248  2.8835 -0.5310 -4.3883
 7648TIP3    H244436   2.148   3.841   4.162 -2.9949  2.2559 -0.2269
 7649TIP3   OH244437   2.015   6.081   4.989  0.3667  0.2128  0.3962
 7649TIP3    H144438   1.998   5.998   4.943 -0.1429  0.5558 -0.0407
 7649TIP3    H244439   2.085   6.122   4.938 -0.9757  1.1250 -0.7876
 7650TIP3   OH244440   5.173   5.161  10.757  0.5294 -0.4113  0.4618
 7650TIP3    H144441   5.094   5.111  10.737  0.2836 -0.3357  1.2113
 7650TIP3    H244442   5.227   5.101  10.808  0.5177 -0.1252  0.8106
 7651TIP3   OH244443   2.280   6.448  15.362 -0.2928 -0.0657 -0.4756
 7651TIP3    H144444   2.267   6.387  15.434  3.0251 -1.0704 -0.5584
 7651TIP3    H244445   2.201   6.502  15.361 -1.9504 -2.2591  1.6452
 7652TIP3   OH244446   4.456   0.865  15.642 -0.0796 -0.0867  0.2158
 7652TIP3    H144447   4.502   0.842  15.723  1.2790 -0.2825 -0.5916
 7652TIP3    H244448   4.388   0.926  15.670  1.6727  1.4875  1.2561
 7653TIP3   OH244449   3.819   4.789  14.922  0.1853 -0.1693 -0.2580
 7653TIP3    H144450   3.757   4.862  14.915 -1.9062 -1.9499 -1.2827
 7653TIP3    H244451   3.856   4.797  15.010 -0.9142  1.3820  0.1027
 7654TIP3   OH244452   4.259   1.137   0.352  0.5593  0.2237 -0.4425
 7654TIP3    H144453   4.347   1.173   0.347  0.4565  0.8568  1.4795
 7654TIP3    H244454   4.250   1.083   0.273  2.9102 -0.4231 -0.3364
 7655TIP3   OH244455   2.798   4.683  11.805  0.3641  0.7974  0.1827
 7655TIP3    H144456   2.855   4.736  11.749 -1.0605  2.1898 -0.0293
 7655TIP3    H244457   2.816   4.715  11.894 -0.0394  1.2118  0.1190
 7656TIP3   OH244458   4.005   3.804   6.048 -0.1510 -0.2151  0.0709
 7656TIP3    H144459   4.077   3.783   6.107  0.5511 -0.7241 -0.9406
 7656TIP3    H244460   3.965   3.720   6.027 -0.9817  0.0530  0.5370
 7657TIP3   OH244461   2.455   2.026   1.605 -0.2309  0.3127 -0.9450
 7657TIP3    H144462   2.460   1.987   1.518 -2.1245  2.3036 -2.0512
 7657TIP3    H244463   2.361   2.034   1.622  0.1022  0.9760  0.8120
 7658TIP3   OH244464   1.202   3.653  14.955 -0.1872 -0.2747  0.2716
 7658TIP3    H144465   1.185   3.745  14.971  0.1581 -0.2003  0.2156
 7658TIP3    H244466   1.116   3.616  14.932 -0.4343 -0.1029  0.9098
 7659TIP3   OH244467   5.236   0.948   5.007 -0.2368 -0.0314 -0.1502
 7659TIP3    H144468   5.244   0.854   4.990  0.1168 -0.1623  0.6699
 7659TIP3    H244469   5.257   0.990   4.924  0.4769 -0.6564 -0.2900
 7660TIP3   OH244470   1.362   3.782   2.231 -0.2029 -0.4391  0.2001
 7660TIP3    H144471   1.445   3.829   2.219 -0.1941 -1.0899 -3.3422
 7660TIP3    H244472   1.387   3.700   2.273  0.5477  0.3359  1.3561
 7661TIP3   OH244473   0.034   0.955  11.456 -0.3580  0.7994 -0.2661
 7661TIP3    H144474   0.027   0.919  11.545 -1.0282  2.2637  0.3062
 7661TIP3    H244475  -0.057   0.960  11.425 -0.4557  3.0264  0.1564
 7662TIP3   OH244476   5.337   0.808  10.494  0.0404  0.0447  0.1902
 7662TIP3    H144477   5.423   0.836  10.463  0.4230  0.3643  1.4844
 7662TIP3    H244478   5.298   0.888  10.531 -0.5683 -0.2281  0.1474
 7663TIP3   OH244479   3.850   4.086  14.802 -0.4301 -0.0157  0.3864
 7663TIP3    H144480   3.888   4.056  14.720  0.8832  0.3284  0.8562
 7663TIP3    H244481   3.783   4.020  14.823 -0.3354 -0.4427 -0.6172
 7664TIP3   OH244482   6.414   4.831  14.288  0.1778 -0.0227 -0.1730
 7664TIP3    H144483   6.340   4.892  14.276  1.5724  1.6125 -0.9137
 7664TIP3    H244484   6.492   4.886  14.278  1.5137 -1.8722 -0.4195
 7665TIP3   OH244485   3.588   3.444  12.890 -0.0842 -0.1395 -0.2119
 7665TIP3    H144486   3.512   3.386  12.890 -0.1380 -0.1288  1.8211
 7665TIP3    H244487   3.662   3.386  12.907  0.2032  0.0357 -0.8422
 7666TIP3   OH244488   2.248   0.780  12.153 -0.4188  0.1314 -0.1897
 7666TIP3    H144489   2.221   0.737  12.234 -0.6591 -0.1279 -0.4065
 7666TIP3    H244490   2.177   0.763  12.091  0.6484 -1.3983 -1.0587
 7667TIP3   OH244491   4.475   1.486  13.802  0.1469 -0.2153 -0.2340
 7667TIP3    H144492   4.379   1.482  13.799  0.1498 -1.0449  0.2539
 7667TIP3    H244493   4.497   1.566  13.755 -0.7346 -0.5957 -1.3588
 7668TIP3   OH244494   1.178   1.431   1.980 -0.0396  0.4376  0.2237
 7668TIP3    H144495   1.243   1.439   1.910 -0.6076 -2.9512 -0.8692
 7668TIP3    H244496   1.110   1.376   1.943 -1.8752  1.0323  2.4967
 7669TIP3   OH244497   6.349   2.494  12.418  0.2426  0.1473 -0.0005
 7669TIP3    H144498   6.312   2.581  12.428  1.7213  0.6703  1.3241
 7669TIP3    H244499   6.280   2.443  12.377 -1.1405  1.5804  0.4615
 7670TIP3   OH244500   2.894   5.562  11.478  0.0274  0.8397  0.0663
 7670TIP3    H144501   2.869   5.650  11.450  0.8296  2.2704  3.4068
 7670TIP3    H244502   2.990   5.567  11.488  0.2053 -0.7348 -0.5795
 7671TIP3   OH244503   2.550   5.800   3.945 -0.0215 -0.1063  0.5043
 7671TIP3    H144504   2.601   5.746   4.006  0.8455  0.5782  0.4175
 7671TIP3    H244505   2.610   5.815   3.872 -0.6197  0.1039  0.0539
 7672TIP3   OH244506   1.194   5.500   0.384 -0.0109  0.3228  0.4339
 7672TIP3    H144507   1.203   5.530   0.293 -0.0072 -2.2260 -0.4738
 7672TIP3    H244508   1.282   5.478   0.412 -0.1334  0.1798  0.7144
 7673TIP3   OH244509   5.416   2.611   4.365  0.5371 -0.3257  0.2467
 7673TIP3    H144510   5.461   2.582   4.445 -0.8405  1.8718  1.9303
 7673TIP3    H244511   5.351   2.542   4.348 -1.2835  0.5704  2.9377
 7674TIP3   OH244512   0.809   4.014  16.725  0.4724  0.0882  0.1636
 7674TIP3    H144513   0.847   3.986  16.808  1.4810  0.0603 -0.2856
 7674TIP3    H244514   0.844   3.953  16.660 -1.4790 -0.8095 -0.0998
 7675TIP3   OH244515   3.938   4.372  15.482  0.7580 -0.0611 -0.0648
 7675TIP3    H144516   4.019   4.410  15.515  0.7479 -0.1964  0.1158
 7675TIP3    H244517   3.938   4.282  15.515  0.0422  0.2392  0.8058
 7676TIP3   OH244518   2.669   0.360  11.343  0.1525  0.3225 -0.0034
 7676TIP3    H144519   2.669   0.316  11.258 -0.1668 -0.4801  0.3998
 7676TIP3    H244520   2.624   0.299  11.402 -1.0010  1.5349  0.4096
 7677TIP3   OH244521   0.212   2.495   0.215  0.3457  0.2069  0.7194
 7677TIP3    H144522   0.145   2.531   0.273 -0.1012 -1.6209  1.4084
 7677TIP3    H244523   0.282   2.561   0.215 -2.2961  3.3668 -1.9522
 7678TIP3   OH244524   4.169   2.708  11.225  0.1487 -0.3553  0.8053
 7678TIP3    H144525   4.146   2.750  11.143  0.9049 -0.3491  0.5874
 7678TIP3    H244526   4.253   2.665  11.207  0.8124  0.4583  1.8451
 7679TIP3   OH244527   4.078   4.019  12.954 -0.0455  0.0442  0.2333
 7679TIP3    H144528   4.112   3.948  12.900 -0.9627 -1.3699  1.4304
 7679TIP3    H244529   4.155   4.070  12.979  0.5736 -0.2231 -1.0642
 7680TIP3   OH244530   4.163   3.648  16.506 -0.5649  0.2126 -0.3162
 7680TIP3    H144531   4.117   3.664  16.424  0.1867  0.6526 -0.6639
 7680TIP3    H244532   4.219   3.725  16.517 -0.4560  0.0338  0.4757
 7681TIP3   OH244533   2.172   5.431   2.476  0.3920  0.3089  1.0676
 7681TIP3    H144534   2.238   5.439   2.406 -0.5074 -1.7367 -0.0929
 7681TIP3    H244535   2.119   5.510   2.467  2.7566  2.1541  2.2057
 7682TIP3   OH244536   4.565   1.249  11.554  0.2937 -0.3771 -0.4398
 7682TIP3    H144537   4.494   1.237  11.616  0.7508 -1.2467 -0.0692
 7682TIP3    H244538   4.555   1.340  11.523 -0.4803 -0.2334  0.2007
 7683TIP3   OH244539   4.781   0.960  12.809 -0.0998 -0.0768 -0.0315
 7683TIP3    H144540   4.748   0.872  12.823  2.7761 -1.3555 -0.4379
 7683TIP3    H244541   4.757   0.981  12.718 -2.3300  0.3770  0.6059
 7684TIP3   OH244542   6.092   0.491  15.740 -0.1201  0.0975 -0.0347
 7684TIP3    H144543   6.121   0.574  15.702 -0.6687  0.0588 -0.5395
 7684TIP3    H244544   6.166   0.463  15.794 -0.2427  1.3098  0.7872
 7685TIP3   OH244545   6.623   0.192  15.869  0.4172  0.3430 -0.1101
 7685TIP3    H144546   6.558   0.123  15.878  0.4175  0.0244 -2.0799
 7685TIP3    H244547   6.703   0.147  15.841  1.4915  0.7532  2.0756
 7686TIP3   OH244548   4.073   0.668  16.668 -0.1749  0.5386 -0.2909
 7686TIP3    H144549   4.057   0.709  16.583  0.7401  0.9633 -0.2687
 7686TIP3    H244550   4.067   0.574  16.651 -2.6705  0.6282 -0.2674
 7687TIP3   OH244551   4.211   5.438  11.509  0.1999 -0.1212 -0.1371
 7687TIP3    H144552   4.233   5.434  11.416 -1.5811  0.1030 -0.6114
 7687TIP3    H244553   4.171   5.353  11.527  2.9944 -1.2582  1.1627
 7688TIP3   OH244554   1.336   0.858  11.567 -0.1304 -0.9307  0.8169
 7688TIP3    H144555   1.423   0.820  11.553 -0.1311  0.1895 -4.8222
 7688TIP3    H244556   1.276   0.786  11.548 -0.2949 -0.6915  0.4069
 7689TIP3   OH244557   3.025   1.357  16.488 -0.5628  0.3389 -0.1395
 7689TIP3    H144558   2.981   1.333  16.406  0.3993 -1.0373 -0.2924
 7689TIP3    H244559   3.118   1.345  16.470 -0.3718 -0.7434  1.3730
 7690TIP3   OH244560   3.427   4.044  15.670 -0.4950 -0.1392  0.2618
 7690TIP3    H144561   3.475   4.076  15.593 -2.1877 -0.7375 -1.1094
 7690TIP3    H244562   3.335   4.050  15.645 -1.2719  1.7259  3.1082
 7691TIP3   OH244563   0.538   4.404  12.593 -0.1023  0.8341 -0.1349
 7691TIP3    H144564   0.501   4.368  12.512  0.0583 -0.8007  0.4800
 7691TIP3    H244565   0.528   4.499  12.583  0.1158  0.7059 -2.1590
 7692TIP3   OH244566   2.414   3.123  13.248  0.1896 -0.7310  0.4419
 7692TIP3    H144567   2.433   3.128  13.341  1.7734 -1.4251  0.1955
 7692TIP3    H244568   2.411   3.029  13.228  0.1793 -0.5937 -0.2553
 7693TIP3   OH244569   0.642   2.586   5.453 -0.8249  0.5552  0.2324
 7693TIP3    H144570   0.563   2.573   5.401 -0.3423 -0.4939 -0.2494
 7693TIP3    H244571   0.699   2.514   5.429 -0.2930  0.4703  1.6696
 7694TIP3   OH244572   3.960   1.817  16.963  0.3849  0.1056 -0.0894
 7694TIP3    H144573   4.010   1.736  16.979 -0.4882 -0.0565  2.1819
 7694TIP3    H244574   3.969   1.867  17.044 -1.3409  1.0490 -0.4368
 7695TIP3   OH244575   1.703   2.921  16.579  0.1062  0.7095  0.4228
 7695TIP3    H144576   1.794   2.922  16.608  0.5722  0.2220 -0.9348
 7695TIP3    H244577   1.685   2.829  16.559 -0.9552  0.6692  1.4190
 7696TIP3   OH244578   0.154   1.808  14.525 -0.0397 -0.0501  0.4953
 7696TIP3    H144579   0.115   1.883  14.570  1.2492  0.4501  0.8323
 7696TIP3    H244580   0.217   1.772  14.588  0.4707 -0.4645 -0.2321
 7697TIP3   OH244581   2.594   5.191  14.679  0.0535  0.0555 -0.3543
 7697TIP3    H144582   2.519   5.137  14.653  0.7281 -0.1549 -1.9294
 7697TIP3    H244583   2.607   5.251  14.606  0.3995  1.2288  0.6334
 7698TIP3   OH244584   1.341   4.377  15.113  0.3778 -0.1002  0.3579
 7698TIP3    H144585   1.407   4.419  15.058  0.1598 -0.5450 -0.2606
 7698TIP3    H244586   1.263   4.371  15.056 -0.3477  0.8517  1.2236
 7699TIP3   OH244587   5.851   5.642   4.164 -0.6916 -0.0135  0.8666
 7699TIP3    H144588   5.891   5.616   4.081 -0.0172  2.0738  0.4789
 7699TIP3    H244589   5.874   5.572   4.225 -0.8795 -1.4027 -0.5894
 7700TIP3   OH244590   2.887   2.908   5.999  0.0163 -0.4117 -0.2499
 7700TIP3    H144591   2.810   2.960   5.973  0.5712 -0.6517 -2.6108
 7700TIP3    H244592   2.891   2.918   6.094 -0.4339  3.1226 -0.4594
 7701TIP3   OH244593   5.737   1.587   0.906 -0.1226 -0.6322  0.3495
 7701TIP3    H144594   5.676   1.592   0.832  0.7770 -2.0164 -0.5422
 7701TIP3    H244595   5.809   1.646   0.882 -0.1214 -0.6086  0.4101
 7702TIP3   OH244596   5.750   5.992   2.596  0.0822  0.0116 -0.2799
 7702TIP3    H144597   5.817   5.925   2.609  0.4621  0.5068  0.3827
 7702TIP3    H244598   5.702   5.994   2.679  0.3711  0.8715 -0.1232
 7703TIP3   OH244599   0.240   4.446   3.051  0.0051 -0.3165  0.0727
 7703TIP3    H144600   0.166   4.430   2.992 -0.6103  1.6225  0.2442
 7703TIP3    H244601   0.212   4.520   3.105  2.4293  1.1236 -0.4963
 7704TIP3   OH244602   1.652   3.816  12.824  0.2308 -0.1459  0.1845
 7704TIP3    H144603   1.673   3.849  12.737 -1.7176 -1.3737 -0.8135
 7704TIP3    H244604   1.655   3.721  12.816  0.5721 -0.2911  1.6290
 7705TIP3   OH244605   2.646   1.331  12.495  0.2246 -0.2327 -0.1080
 7705TIP3    H144606   2.558   1.301  12.519  0.9507 -0.1642  3.1069
 7705TIP3    H244607   2.633   1.422  12.466 -0.9945 -0.9627 -2.0043
 7706TIP3   OH244608   0.771   5.963  13.095 -0.2476  0.2022  0.2033
 7706TIP3    H144609   0.834   5.949  13.167  0.4412 -1.0180 -0.5950
 7706TIP3    H244610   0.716   5.884  13.097  0.1474 -0.1159 -0.9536
 7707TIP3   OH244611   2.242   6.079   1.040  0.3228 -0.0745 -0.3580
 7707TIP3    H144612   2.148   6.075   1.057  0.3628  0.0582 -0.1151
 7707TIP3    H244613   2.277   6.137   1.107  0.5203  0.2040 -0.7018
 7708TIP3   OH244614   3.262   1.587  14.464 -0.3412  0.3795 -0.3876
 7708TIP3    H144615   3.233   1.583  14.373  0.5495  2.1614 -0.7981
 7708TIP3    H244616   3.187   1.625  14.510 -0.6457 -0.1524 -0.4331
 7709TIP3   OH244617   1.579   4.648  11.354 -0.1006  0.0821 -0.1752
 7709TIP3    H144618   1.530   4.594  11.292  0.2452 -0.8159  0.3281
 7709TIP3    H244619   1.579   4.599  11.436 -0.2150  1.0774  0.4424
 7710TIP3   OH244620   1.255   2.564  12.430 -0.7965 -0.4470  0.0991
 7710TIP3    H144621   1.216   2.490  12.476  0.7620 -0.7477  1.0074
 7710TIP3    H244622   1.336   2.530  12.394 -0.9360  0.3673 -1.0285
 7711TIP3   OH244623   1.857   3.819  14.533 -0.2787  0.1917 -0.1350
 7711TIP3    H144624   1.799   3.758  14.577 -0.9744  1.4485  0.7587
 7711TIP3    H244625   1.945   3.793  14.561 -0.4353 -1.2485 -0.9007
 7712TIP3   OH244626   5.771   0.197  12.974 -0.0240  0.1001 -0.0681
 7712TIP3    H144627   5.848   0.227  12.927  0.1348 -0.2145 -0.0121
 7712TIP3    H244628   5.805   0.137  13.041 -0.2678  0.3818  0.3111
 7713TIP3   OH244629   1.045   0.907  16.525 -0.0212 -0.6895  0.3311
 7713TIP3    H144630   1.076   0.839  16.465  0.2224 -0.9682  0.7606
 7713TIP3    H244631   1.030   0.983  16.469  1.8562 -0.4018  0.1289
 7714TIP3   OH244632   0.813   5.413   3.701 -0.0067 -0.0257  0.0903
 7714TIP3    H144633   0.858   5.346   3.649 -0.5472  1.1005 -1.9370
 7714TIP3    H244634   0.860   5.414   3.784  1.0344 -1.7809 -0.4252
 7715TIP3   OH244635   3.565   2.975   0.153 -0.0787  0.0314  0.6876
 7715TIP3    H144636   3.510   2.927   0.090  0.8400 -2.3150  1.5406
 7715TIP3    H244637   3.648   2.989   0.106  0.3979 -1.1886  1.1222
 7716TIP3   OH244638   5.307   6.433   0.345  0.0246 -0.3504  0.5720
 7716TIP3    H144639   5.250   6.360   0.371  0.6189 -1.1363 -0.2686
 7716TIP3    H244640   5.395   6.398   0.353  0.3097  0.2146 -0.0457
 7717TIP3   OH244641   3.373   3.518   4.064  0.0720  0.7679 -0.0853
 7717TIP3    H144642   3.310   3.590   4.069 -1.0198 -0.1389 -0.2509
 7717TIP3    H244643   3.453   3.558   4.031 -1.0879  1.5643 -2.1170
 7718TIP3   OH244644   3.835   3.015  13.138  0.1010 -0.2149 -0.3973
 7718TIP3    H144645   3.912   2.968  13.106  0.2844  0.4776 -1.0070
 7718TIP3    H244646   3.763   2.953  13.127  0.8238 -1.6142  2.0255
 7719TIP3   OH244647   4.402   0.476   1.329 -0.0549 -0.6896 -0.4448
 7719TIP3    H144648   4.484   0.526   1.331 -0.3943 -0.1135 -0.4877
 7719TIP3    H244649   4.415   0.405   1.391 -0.3992  0.7951  1.4292
 7720TIP3   OH244650   0.953   4.317   3.808  0.6944 -0.0571  0.1615
 7720TIP3    H144651   1.035   4.367   3.811  1.3996 -1.2391  1.0103
 7720TIP3    H244652   0.946   4.289   3.716  0.4542  1.2889 -0.2540
 7721TIP3   OH244653   4.527   2.035  15.201  0.4256  0.2956 -0.5486
 7721TIP3    H144654   4.557   1.948  15.173 -0.5378 -0.4393  0.5786
 7721TIP3    H244655   4.470   2.064  15.130  1.2077  0.2835 -1.2030
 7722TIP3   OH244656   3.899   1.215  12.717  0.0549  0.0289 -0.0201
 7722TIP3    H144657   3.972   1.257  12.670 -0.2004  0.3165 -0.1636
 7722TIP3    H244658   3.873   1.142  12.660  1.8579 -1.6661  1.1877
 7723TIP3   OH244659   6.813   3.580   3.065  0.1003 -0.2922  0.1741
 7723TIP3    H144660   6.859   3.632   2.999 -1.1099  1.0410  0.3393
 7723TIP3    H244661   6.873   3.578   3.139  1.5122 -1.8632 -0.9089
 7724TIP3   OH244662   4.939   1.023  12.258 -0.8209  0.6959  0.2671
 7724TIP3    H144663   4.972   1.048  12.344  0.5249  0.1932 -0.0714
 7724TIP3    H244664   4.854   0.983  12.275 -0.1749 -0.2128  1.4774
 7725TIP3   OH244665   6.498   5.853   2.507  0.0580  0.0901  0.6460
 7725TIP3    H144666   6.500   5.767   2.549  0.7675 -0.8988 -1.3057
 7725TIP3    H244667   6.561   5.905   2.557 -0.7727 -0.3027  2.1916
 7726TIP3   OH244668   5.387   5.248   4.739 -0.0439  0.0630  0.0699
 7726TIP3    H144669   5.435   5.251   4.822  0.0742 -1.1160  0.0474
 7726TIP3    H244670   5.409   5.164   4.701  1.6346  1.4239 -2.2378
 7727TIP3   OH244671   3.280   2.017  15.992  0.3357 -0.3065  0.9622
 7727TIP3    H144672   3.211   1.952  16.004  0.5125 -0.6658  0.1199
 7727TIP3    H244673   3.347   1.971  15.941  1.0223  0.1561  1.4324
 7728TIP3   OH244674   5.183   3.449   3.133  0.2365 -0.3796 -0.4152
 7728TIP3    H144675   5.099   3.463   3.091  1.0052  1.2774 -1.5268
 7728TIP3    H244676   5.183   3.357   3.159 -1.5985 -0.5868 -1.0563
 7729TIP3   OH244677   5.580   0.512   1.499 -0.0390 -0.2258  0.3370
 7729TIP3    H144678   5.532   0.494   1.418 -1.0095  0.3898  0.7516
 7729TIP3    H244679   5.613   0.601   1.488 -0.5748  0.0314  0.8078
 7730TIP3   OH244680   6.599   3.452   2.572 -0.4144 -0.0790  0.1580
 7730TIP3    H144681   6.622   3.542   2.549  3.3049 -0.6379  1.0863
 7730TIP3    H244682   6.638   3.399   2.503 -0.8159 -1.0945  0.6835
 7731TIP3   OH244683   1.946   4.604  10.958  0.2784  0.2128  0.2308
 7731TIP3    H144684   2.006   4.542  11.000  1.4736  1.4573  0.4342
 7731TIP3    H244685   1.859   4.569  10.977  0.9016 -1.6080 -0.0064
 7732TIP3   OH244686   5.414   6.629  14.512  0.1474  0.7696  0.1680
 7732TIP3    H144687   5.487   6.655  14.456 -0.4257  0.6817 -0.6381
 7732TIP3    H244688   5.402   6.536  14.495  1.2900  0.2300  2.0003
 7733TIP3   OH244689   2.198   1.903  14.683  0.3900 -0.6199 -0.0781
 7733TIP3    H144690   2.184   1.991  14.717  1.6369 -0.1486 -0.7105
 7733TIP3    H244691   2.116   1.857  14.701 -0.2512  0.6352  0.3488
 7734TIP3   OH244692   5.374   1.397   5.177  0.9886  0.1861  0.2763
 7734TIP3    H144693   5.305   1.438   5.125  1.1299 -1.9290 -1.7558
 7734TIP3    H244694   5.354   1.422   5.267 -1.7488  0.5978 -0.3605
 7735TIP3   OH244695   1.589   4.657   2.850  0.4304  0.2030 -0.5848
 7735TIP3    H144696   1.501   4.649   2.814 -0.2415  0.0351  0.9940
 7735TIP3    H244697   1.646   4.616   2.785 -0.5322  1.0883 -2.0422
 7736TIP3   OH244698   6.283   4.439   4.365 -0.1763  0.0549  0.3832
 7736TIP3    H144699   6.197   4.397   4.371 -0.9664  1.2660 -1.5924
 7736TIP3    H244700   6.286   4.499   4.440 -1.5495  0.8127 -0.1296
 7737TIP3   OH244701   1.215   5.084  12.274  0.2244  0.0406 -0.3576
 7737TIP3    H144702   1.181   5.159  12.322 -0.9579 -0.4248 -0.4285
 7737TIP3    H244703   1.183   5.097  12.184  0.2738 -0.3875 -0.4389
 7738TIP3   OH244704   3.619   4.039  10.600  0.4725  0.5097 -0.7676
 7738TIP3    H144705   3.687   4.014  10.538  0.7172  0.7403 -0.5920
 7738TIP3    H244706   3.638   4.130  10.622 -2.3890  2.0969 -4.0444
 7739TIP3   OH244707   6.203   3.787   1.155 -0.3319  0.3464  0.0692
 7739TIP3    H144708   6.233   3.745   1.074 -0.2908  1.0664 -0.3027
 7739TIP3    H244709   6.277   3.841   1.183 -0.1786 -0.2618  0.8550
 7740TIP3   OH244710   6.799   2.937  12.222 -0.0792  0.0521  0.2186
 7740TIP3    H144711   6.752   2.855  12.207 -1.8790  0.7708  1.5888
 7740TIP3    H244712   6.890   2.910  12.237 -0.6030 -1.6672  0.5072
 7741TIP3   OH244713   3.201   3.115   2.979  0.0665 -0.2015  0.0334
 7741TIP3    H144714   3.184   3.057   2.905 -2.9460 -1.4632  1.5240
 7741TIP3    H244715   3.128   3.178   2.976  1.5697  1.6489  0.2658
 7742TIP3   OH244716   0.830   1.818   1.397 -0.4467 -0.2323  0.4567
 7742TIP3    H144717   0.827   1.910   1.424 -4.2833 -0.1570  0.3016
 7742TIP3    H244718   0.889   1.777   1.460 -1.1319  1.7723  2.5668
 7743TIP3   OH244719   1.318   6.039   5.124 -0.6143 -0.2067  0.4162
 7743TIP3    H144720   1.295   6.079   5.208  1.2717 -0.1236  0.9302
 7743TIP3    H244721   1.407   6.006   5.136 -0.9898 -1.8750 -0.9696
 7744TIP3   OH244722   4.356   3.640   5.652  0.2871 -0.5589  0.3814
 7744TIP3    H144723   4.302   3.578   5.702  0.7128 -0.6838  0.6896
 7744TIP3    H244724   4.445   3.625   5.683  0.2717  0.9057  1.1921
 7745TIP3   OH244725   3.343   6.454   0.515 -0.3312  0.1998 -0.0787
 7745TIP3    H144726   3.398   6.408   0.579  1.6158  1.8007 -0.5149
 7745TIP3    H244727   3.313   6.385   0.455  0.9853 -0.7766  0.3453
 7746TIP3   OH244728   6.627   4.237   5.703  0.0821 -0.6674  0.1024
 7746TIP3    H144729   6.588   4.161   5.747  0.1072  0.0505  1.4046
 7746TIP3    H244730   6.711   4.205   5.669  0.8955 -0.8153  2.1372
 7747TIP3   OH244731   0.665   2.067  15.568  0.6325  0.3746 -0.0051
 7747TIP3    H144732   0.595   2.042  15.629 -0.6998  2.3599 -0.6123
 7747TIP3    H244733   0.625   2.058  15.481  2.4029 -2.0936 -0.6539
 7748TIP3   OH244734   5.232   4.306  16.541 -0.2655 -0.2127  0.3284
 7748TIP3    H144735   5.315   4.262  16.523 -0.1736 -0.2093  0.7173
 7748TIP3    H244736   5.167   4.235  16.543 -0.8962  0.0974 -3.3244
 7749TIP3   OH244737   0.991   1.692  15.588  0.0476  0.1044  0.4697
 7749TIP3    H144738   0.912   1.703  15.640 -0.1747  0.4682  0.0520
 7749TIP3    H244739   1.061   1.725  15.645 -0.4006  2.1602 -0.1114
 7750TIP3   OH244740   3.725   0.692  13.822  0.5454  0.3242 -0.5613
 7750TIP3    H144741   3.757   0.699  13.912 -0.6087  1.1058 -0.1918
 7750TIP3    H244742   3.718   0.597  13.807 -1.2219  0.1483  0.9244
 7751TIP3   OH244743   3.830   2.225   2.777  0.0812  0.5432  0.5070
 7751TIP3    H144744   3.840   2.230   2.872 -0.9046  0.3489  0.6389
 7751TIP3    H244745   3.756   2.166   2.764  1.8933 -1.6196 -0.5073
 7752TIP3   OH244746   5.162   2.419  15.149  0.0272  0.1509  0.4392
 7752TIP3    H144747   5.207   2.391  15.070  1.8324 -2.1835  2.1464
 7752TIP3    H244748   5.225   2.475  15.194  0.9599 -2.1658  2.2686
 7753TIP3   OH244749   3.073   3.607   3.860 -0.0599 -0.5665 -0.3570
 7753TIP3    H144750   2.987   3.583   3.895 -1.1948  0.2877 -2.4004
 7753TIP3    H244751   3.105   3.675   3.920 -1.0137 -0.5523  0.1530
 7754TIP3   OH244752   2.482   2.024  15.711  0.1730 -0.0000  0.5565
 7754TIP3    H144753   2.516   2.098  15.660 -2.2648  0.0359 -1.1576
 7754TIP3    H244754   2.552   1.959  15.707  0.2486  0.1114 -2.7263
 7755TIP3   OH244755   6.414   3.169  14.944  0.1045 -0.1913 -0.1005
 7755TIP3    H144756   6.471   3.146  14.871  0.5459  0.4739  0.0311
 7755TIP3    H244757   6.414   3.264  14.946  0.4111 -0.1966  0.9964
 7756TIP3   OH244758   1.933   1.881  15.997 -0.2673 -0.3045  0.5096
 7756TIP3    H144759   1.844   1.914  16.009  0.8819  1.9696  4.6619
 7756TIP3    H244760   1.926   1.787  16.015 -1.6600  0.1211  2.5586
 7757TIP3   OH244761   2.334   4.863  15.475  0.5952  0.6526 -0.2771
 7757TIP3    H144762   2.300   4.800  15.412  0.0812  0.8640 -0.2193
 7757TIP3    H244763   2.280   4.941  15.463 -0.5170  0.2182  1.4175
 7758TIP3   OH244764   2.377   1.581  13.607 -0.3753 -0.2419 -0.0307
 7758TIP3    H144765   2.384   1.524  13.531  0.8944 -0.7418  0.4271
 7758TIP3    H244766   2.464   1.578  13.647 -0.7954  0.6225  0.9998
 7759TIP3   OH244767   1.645   0.515   3.535  0.0167  0.2746  0.2133
 7759TIP3    H144768   1.725   0.484   3.492 -1.0885 -1.0878 -0.9257
 7759TIP3    H244769   1.621   0.445   3.595 -2.5732 -1.4098 -2.4795
 7760TIP3   OH244770   1.691   2.203  11.477  0.1584 -0.2122 -0.7457
 7760TIP3    H144771   1.668   2.111  11.471 -3.0662  0.5395 -1.8138
 7760TIP3    H244772   1.618   2.249  11.436  1.7304  2.8298 -0.4315
 7761TIP3   OH244773   5.690   5.661  13.537 -0.1345  0.0213 -0.1670
 7761TIP3    H144774   5.695   5.757  13.543  1.1928 -0.0316 -0.2525
 7761TIP3    H244775   5.597   5.644  13.519 -1.2027  1.0787  3.3290
 7762TIP3   OH244776   5.912   5.740  10.669  0.3282  0.0605  0.7145
 7762TIP3    H144777   5.967   5.814  10.642 -0.2218  0.0816 -0.4018
 7762TIP3    H244778   5.974   5.674  10.699  0.9622  0.1802 -0.2898
 7763TIP3   OH244779   0.720   2.542   0.323 -0.1454  0.3603 -1.1159
 7763TIP3    H144780   0.690   2.467   0.373  2.3803 -0.3257 -0.4836
 7763TIP3    H244781   0.688   2.618   0.372 -1.3196 -0.2757 -0.8570
 7764TIP3   OH244782   3.968   0.884  13.370 -0.1607  0.0657  0.6331
 7764TIP3    H144783   3.939   0.972  13.347  0.8849 -0.0977 -1.5696
 7764TIP3    H244784   4.056   0.877  13.333  0.1227 -1.6310  1.5060
 7765TIP3   OH244785   4.310   6.304   5.969  0.6692 -0.0365 -0.0729
 7765TIP3    H144786   4.377   6.314   5.902  1.0318 -0.2338  0.2609
 7765TIP3    H244787   4.240   6.365   5.942 -0.0316 -1.4445 -1.6681
 7766TIP3   OH244788   2.843   0.588  11.411 -0.3343 -0.6539  0.1496
 7766TIP3    H144789   2.821   0.503  11.372  1.1297 -0.7291 -0.6064
 7766TIP3    H244790   2.937   0.582  11.428 -0.4920  0.2668  1.5506
 7767TIP3   OH244791   4.238   0.585  16.365  0.4569 -0.5039  0.5948
 7767TIP3    H144792   4.294   0.653  16.404  1.2805 -1.6313  1.4461
 7767TIP3    H244793   4.232   0.518  16.433 -0.7435 -1.0717 -0.0470
 7768TIP3   OH244794   2.355   5.718  16.546  0.0997  0.0450 -0.2833
 7768TIP3    H144795   2.417   5.702  16.475  1.4482  2.0270  0.3399
 7768TIP3    H244796   2.289   5.776  16.508 -0.3472 -0.5747 -0.4587
 7769TIP3   OH244797   6.228   3.573  12.136  0.2150  0.4585 -0.0503
 7769TIP3    H144798   6.294   3.511  12.168 -2.6245 -3.2495 -0.7323
 7769TIP3    H244799   6.247   3.582  12.042  0.0585 -0.2329 -0.1537
 7770TIP3   OH244800   6.700   6.089  15.422 -0.1598  0.3480 -0.1226
 7770TIP3    H144801   6.640   6.034  15.472 -2.2783  2.3283 -0.3302
 7770TIP3    H244802   6.688   6.062  15.331  0.1034 -0.0079 -0.0534
 7771TIP3   OH244803   0.984   5.403   5.889  0.3391  0.0508  0.1657
 7771TIP3    H144804   1.042   5.458   5.836  1.2181 -1.4667 -0.4845
 7771TIP3    H244805   1.000   5.431   5.979  0.4673  1.1201 -0.1703
 7772TIP3   OH244806   1.949   5.790   4.507  0.0997 -0.1301  0.1701
 7772TIP3    H144807   1.914   5.781   4.418 -0.0848 -0.1701  0.2459
 7772TIP3    H244808   2.044   5.784   4.496  0.1427  1.0003 -0.1649
 7773TIP3   OH244809   6.746   4.012  14.507 -0.5542  0.0327 -0.0251
 7773TIP3    H144810   6.766   3.954  14.434 -0.9782  1.8891 -1.6978
 7773TIP3    H244811   6.740   3.953  14.583 -0.4191 -2.0139 -1.5046
 7774TIP3   OH244812   2.990   5.906   2.250  0.0420  0.3083  0.1912
 7774TIP3    H144813   3.042   5.862   2.182  2.2002  2.8082  0.0656
 7774TIP3    H244814   3.014   5.861   2.331  1.7869  0.8284  0.0058
 7775TIP3   OH244815   3.479   0.362  15.283 -0.2381  0.4545 -0.2502
 7775TIP3    H144816   3.392   0.334  15.310  0.1900  0.8052  1.6524
 7775TIP3    H244817   3.532   0.282  15.288 -0.1763  0.5020 -0.1478
 7776TIP3   OH244818   2.242   1.211   4.222 -0.2655 -0.2230 -0.3798
 7776TIP3    H144819   2.322   1.254   4.190 -1.4163  2.0888 -0.3203
 7776TIP3    H244820   2.228   1.139   4.160  2.3861 -1.3584  0.2095
 7777TIP3   OH244821   0.254   4.067  11.639 -0.4644 -0.0193  0.1156
 7777TIP3    H144822   0.275   4.160  11.640  2.0041 -0.5080  0.8633
 7777TIP3    H244823   0.198   4.054  11.716 -1.8549  0.9911 -0.6712
 7778TIP3   OH244824   2.358   0.958  14.052  0.3193  0.2912 -0.1370
 7778TIP3    H144825   2.394   1.040  14.086  2.1847 -0.7317  0.5287
 7778TIP3    H244826   2.296   0.930  14.119  2.1553 -0.4643  1.3588
 7779TIP3   OH244827   2.130   4.291   0.976  0.3307 -0.4510 -0.5063
 7779TIP3    H144828   2.075   4.303   1.053  1.5084 -0.2875  0.3499
 7779TIP3    H244829   2.094   4.350   0.910  1.4858  2.3451  1.1490
 7780TIP3   OH244830   0.929   1.376   3.573 -0.1233 -0.1875 -0.5019
 7780TIP3    H144831   0.952   1.290   3.607  1.8137 -0.3506 -2.0607
 7780TIP3    H244832   0.909   1.361   3.480  0.9705  1.1092 -0.9818
 7781TIP3   OH244833   4.700   4.719  13.711 -0.1228 -0.2741  0.6637
 7781TIP3    H144834   4.793   4.699  13.721  0.5874  1.0110 -2.3723
 7781TIP3    H244835   4.675   4.676  13.629 -2.3599 -0.8621  1.5604
 7782TIP3   OH244836   1.721   3.247   2.339 -0.2197  0.2050  0.1250
 7782TIP3    H144837   1.774   3.300   2.280  1.0208  0.1234  1.1249
 7782TIP3    H244838   1.725   3.159   2.302 -1.2285  0.5369 -0.8276
 7783TIP3   OH244839   0.962   4.661  15.007  0.2353  0.0741 -0.2977
 7783TIP3    H144840   1.011   4.715  14.945  0.4359  1.0610  0.6896
 7783TIP3    H244841   0.870   4.672  14.981  0.3811 -0.2150 -0.9459
 7784TIP3   OH244842   4.115   2.027   3.288 -0.1971 -0.4134  0.7856
 7784TIP3    H144843   4.176   1.953   3.288 -1.7896 -1.7920  0.3424
 7784TIP3    H244844   4.100   2.046   3.196  1.6508  1.7929  0.8566
 7785TIP3   OH244845   4.201   3.903   0.969 -0.1750 -0.0148  0.3549
 7785TIP3    H144846   4.119   3.930   1.009 -2.1877  0.2186 -3.4805
 7785TIP3    H244847   4.215   3.813   0.999 -1.5706  0.0957  1.4058
 7786TIP3   OH244848   1.970   5.770  17.016 -0.0573 -0.5486 -0.0053
 7786TIP3    H144849   2.027   5.844  16.993 -1.1496  0.4824  0.4571
 7786TIP3    H244850   1.988   5.704  16.949  0.7353  0.2539 -0.6135
 7787TIP3   OH244851   4.238   6.305  13.319 -0.3197  0.0243 -0.5421
 7787TIP3    H144852   4.202   6.224  13.283 -2.4541 -0.6603  2.7387
 7787TIP3    H244853   4.302   6.276  13.384  0.8299  1.0966 -1.1543
 7788TIP3   OH244854   5.804   6.354  15.839 -0.2035 -0.3863  0.3284
 7788TIP3    H144855   5.839   6.272  15.874  0.6854 -0.2583 -0.2387
 7788TIP3    H244856   5.871   6.385  15.778 -0.5032  0.7858  0.5694
 7789TIP3   OH244857   0.682   5.386  10.761  0.2669  1.5772  0.3016
 7789TIP3    H144858   0.775   5.388  10.738  0.3393 -0.8442  0.1084
 7789TIP3    H244859   0.679   5.419  10.851  1.4066  1.1362  0.5203
 7790TIP3   OH244860   6.256   0.012  13.148  0.4423 -0.4949 -0.2381
 7790TIP3    H144861   6.336   0.042  13.190 -0.9880 -0.3328  2.6487
 7790TIP3    H244862   6.266  -0.084  13.143  1.3886 -0.3583 -1.3108
 7791TIP3   OH244863   3.855   5.616  16.948  0.1428  0.3195  0.3043
 7791TIP3    H144864   3.817   5.528  16.950  2.6705 -0.8545  1.1344
 7791TIP3    H244865   3.931   5.607  16.890  1.0229  1.6943  1.2099
 7792TIP3   OH244866   1.514   0.168  14.671  0.1891  0.2245 -0.0549
 7792TIP3    H144867   1.512   0.074  14.689 -0.8973  0.2774  0.1528
 7792TIP3    H244868   1.455   0.206  14.736 -0.3183  0.9192 -0.9053
 7793TIP3   OH244869   4.015   0.422   1.747  0.1444  0.4830  0.5450
 7793TIP3    H144870   3.973   0.412   1.833 -0.5568 -0.0871  0.1555
 7793TIP3    H244871   4.056   0.508   1.750 -0.0773  0.5715  1.3665
 7794TIP3   OH244872   4.877   4.143  14.974  0.1806 -0.0317  0.4307
 7794TIP3    H144873   4.788   4.159  15.003 -0.0578  0.5384 -0.5465
 7794TIP3    H244874   4.929   4.140  15.054 -0.8408 -1.2916  1.0808
 7795TIP3   OH244875   1.693   6.357  14.753 -0.0514  0.4080 -0.6016
 7795TIP3    H144876   1.703   6.437  14.806 -1.3822  0.9313 -1.0983
 7795TIP3    H244877   1.751   6.371  14.679 -0.9791  1.3790 -1.1799
 7796TIP3   OH244878   3.119   0.112  12.211  0.3791 -0.1528  1.1668
 7796TIP3    H144879   3.132   0.139  12.120  0.4831  1.6862  1.6725
 7796TIP3    H244880   3.142   0.019  12.213  0.1584 -0.2830 -0.7163
 7797TIP3   OH244881   6.788   3.795   5.214  0.4222 -0.5231 -0.6582
 7797TIP3    H144882   6.850   3.732   5.177  0.9432 -0.7897  0.6376
 7797TIP3    H244883   6.805   3.794   5.308  0.0895  1.1913 -0.5446
 7798TIP3   OH244884   2.756   3.894   0.821  0.0953 -0.5780  0.4810
 7798TIP3    H144885   2.696   3.966   0.800  0.0929 -0.7788 -0.2203
 7798TIP3    H244886   2.828   3.905   0.759  0.7079 -0.4383  1.2092
 7799TIP3   OH244887   2.929   0.940   3.238  0.1106 -0.5725  0.2010
 7799TIP3    H144888   2.988   1.002   3.280  0.1042 -0.8576  0.6391
 7799TIP3    H244889   2.900   0.984   3.158 -1.9538  1.0791  1.7640
 7800TIP3   OH244890   3.307   6.442  13.027  0.0402  0.2944 -0.1010
 7800TIP3    H144891   3.340   6.478  13.110  0.8614 -0.9506  0.1339
 7800TIP3    H244892   3.279   6.353  13.048 -0.5942  0.2751 -0.9778
 7801TIP3   OH244893   1.936   3.225   3.535  0.3062 -0.1641  0.6393
 7801TIP3    H144894   1.845   3.214   3.506 -0.4839  0.1185  2.8401
 7801TIP3    H244895   1.966   3.303   3.488 -0.6440 -0.1309  0.0480
 7802TIP3   OH244896   5.659   6.673   3.643 -0.4445  0.4594 -0.2172
 7802TIP3    H144897   5.708   6.706   3.718  0.1134 -0.1020 -0.3251
 7802TIP3    H244898   5.571   6.709   3.653  0.2760  2.4599 -0.6497
 7803TIP3   OH244899   0.596   6.118   2.753 -0.2297 -0.2031 -0.2962
 7803TIP3    H144900   0.538   6.100   2.679 -3.2162  1.4526  1.4709
 7803TIP3    H244901   0.566   6.060   2.822  0.3820  0.5404  0.6178
 7804TIP3   OH244902   2.413   3.199   5.915 -0.6965 -0.5206  0.0660
 7804TIP3    H144903   2.431   3.192   6.009 -1.4870 -0.2063  0.2552
 7804TIP3    H244904   2.328   3.244   5.911 -0.2268  0.3215 -0.8211
 7805TIP3   OH244905   3.187   0.481   4.474  0.2757  0.7325 -0.2158
 7805TIP3    H144906   3.239   0.561   4.466 -0.4696  1.3580  0.8910
 7805TIP3    H244907   3.129   0.483   4.398 -0.0454  1.4904  0.0350
 7806TIP3   OH244908   2.311   4.714   3.906  0.6120 -0.2210 -0.4978
 7806TIP3    H144909   2.255   4.731   3.830 -0.9941  1.1035  0.8981
 7806TIP3    H244910   2.377   4.782   3.903 -0.4121  0.8278  0.1406
 7807TIP3   OH244911   2.776   1.602   3.422  0.0956 -0.3951  0.2797
 7807TIP3    H144912   2.859   1.651   3.427  1.5916 -2.2395 -3.0553
 7807TIP3    H244913   2.729   1.642   3.349 -1.5211 -0.0677  1.4601
 7808TIP3   OH244914   4.979   3.544  12.630  0.2005 -0.6457  0.4404
 7808TIP3    H144915   4.930   3.528  12.549  0.2444 -0.1177  0.3118
 7808TIP3    H244916   5.022   3.628  12.616  1.8289 -1.4600  0.2110
 7809TIP3   OH244917   6.007   1.244  13.351  0.3806  0.2202 -0.2810
 7809TIP3    H144918   6.044   1.164  13.312 -0.4216 -1.1550  1.6242
 7809TIP3    H244919   5.932   1.213  13.402 -0.5950  2.3586 -0.3403
 7810TIP3   OH244920   2.749   3.641   2.111  0.2020 -0.0068 -0.5423
 7810TIP3    H144921   2.669   3.598   2.140  0.9651 -1.1501 -0.0612
 7810TIP3    H244922   2.788   3.678   2.190  0.8795 -0.7202 -0.5311
 7811TIP3   OH244923   5.563   2.151  11.095  0.0821 -0.5782  0.3681
 7811TIP3    H144924   5.582   2.161  11.002  0.3161 -0.0736  0.4658
 7811TIP3    H244925   5.621   2.215  11.138 -0.1865 -0.6481  0.8385
 7812TIP3   OH244926   1.761   1.771  14.987 -0.0858  0.1665  0.9494
 7812TIP3    H144927   1.693   1.823  15.030 -1.4304 -0.5239 -0.2679
 7812TIP3    H244928   1.808   1.834  14.932 -3.1663 -0.1144 -2.3296
 7813TIP3   OH244929   3.058   2.463  15.837  0.8278  0.0920  0.2346
 7813TIP3    H144930   2.994   2.412  15.887  1.8297  0.8968  2.4539
 7813TIP3    H244931   3.127   2.400  15.816  0.0274 -0.4426 -0.9458
 7814TIP3   OH244932   6.198   2.078  14.359 -0.0892 -0.3785 -0.2573
 7814TIP3    H144933   6.169   2.083  14.450 -1.2820  1.0985 -0.6725
 7814TIP3    H244934   6.224   2.168  14.337  1.4923 -0.9709 -0.9867
 7815TIP3   OH244935   5.880   0.275   3.177 -0.0927  0.1719 -0.0434
 7815TIP3    H144936   5.833   0.319   3.248  0.7361  2.2160 -0.7006
 7815TIP3    H244937   5.829   0.195   3.162 -1.1802  0.4442  1.7779
 7816TIP3   OH244938   4.124   0.080   0.202  0.2534 -0.1117 -0.1353
 7816TIP3    H144939   4.071   0.060   0.125 -0.0775  0.6332 -0.1124
 7816TIP3    H244940   4.214   0.069   0.173  0.1818  1.4224 -1.0221
 7817TIP3   OH244941   5.283   1.203   1.989  0.3774  0.7112  0.0515
 7817TIP3    H144942   5.309   1.141   1.920  0.1671 -1.0432  1.4575
 7817TIP3    H244943   5.361   1.257   2.003  1.4400 -0.8359  0.4130
 7818TIP3   OH244944   1.859   0.842  15.579 -0.5967  0.8129  0.3036
 7818TIP3    H144945   1.893   0.902  15.513 -0.2428  0.9045  0.5673
 7818TIP3    H244946   1.884   0.755  15.548  1.1536  0.9632  1.2130
 7819TIP3   OH244947   1.458   4.574   1.067  0.1144 -0.2586 -0.0274
 7819TIP3    H144948   1.508   4.578   1.149  1.2356 -0.1345 -0.7013
 7819TIP3    H244949   1.518   4.607   1.001 -0.6200 -0.7932 -0.9837
 7820TIP3   OH244950   0.297   6.089  16.491 -0.1071 -0.4011  0.0294
 7820TIP3    H144951   0.361   6.114  16.424 -0.6732  3.8784  0.8334
 7820TIP3    H244952   0.240   6.165  16.499 -1.2408 -1.4749  4.0206
 7821TIP3   OH244953   5.833   1.378  12.034 -0.3192  0.3615  0.2514
 7821TIP3    H144954   5.825   1.308  12.098 -0.6531 -0.5149 -0.7200
 7821TIP3    H244955   5.801   1.456  12.079 -0.5900 -0.2404  1.1236
 7822TIP3   OH244956   3.670   1.771  17.093  0.7351 -0.1330  0.1063
 7822TIP3    H144957   3.734   1.798  17.027 -0.3281  0.6461 -0.6455
 7822TIP3    H244958   3.587   1.806  17.061  0.2043  0.3617  1.9182
 7823TIP3   OH244959   6.615   0.688  14.707  0.5805 -0.2932 -0.1547
 7823TIP3    H144960   6.586   0.727  14.790 -0.6531 -0.7457 -0.3601
 7823TIP3    H244961   6.608   0.758  14.643 -0.3040 -0.4571 -0.2461
 7824TIP3   OH244962   2.687   6.525   1.484 -0.1163 -0.1112 -0.4544
 7824TIP3    H144963   2.768   6.575   1.476  0.0449 -0.4272 -0.8487
 7824TIP3    H244964   2.714   6.441   1.522 -0.4648  0.2944  0.7483
 7825TIP3   OH244965   1.049   5.115  14.922 -0.7281 -0.1144  0.0880
 7825TIP3    H144966   1.025   5.135  15.013  0.2893 -2.3458  0.9189
 7825TIP3    H244967   1.118   5.050  14.929 -0.8124 -0.5615 -2.3286
 7826TIP3   OH244968   4.138   5.827  11.484  0.1214 -0.6264  0.1924
 7826TIP3    H144969   4.108   5.765  11.549 -2.4132 -1.1092 -1.2848
 7826TIP3    H244970   4.144   5.776  11.403 -0.6163  0.7038 -0.7484
 7827TIP3   OH244971   3.393   1.464   0.835  0.5401  0.1559 -0.3654
 7827TIP3    H144972   3.458   1.478   0.766  0.9901  1.2437  0.2542
 7827TIP3    H244973   3.414   1.529   0.902 -0.9696  0.2903  0.0190
 7828TIP3   OH244974   6.275   5.582   2.780 -0.2582 -0.2580  0.0474
 7828TIP3    H144975   6.295   5.558   2.870 -0.5462 -0.4214  0.0687
 7828TIP3    H244976   6.353   5.557   2.731  0.1344  0.3841  0.3440
 7829TIP3   OH244977   5.710   3.560  16.458 -0.3300  0.3276 -0.0135
 7829TIP3    H144978   5.680   3.650  16.469 -1.5571 -0.0786  0.1238
 7829TIP3    H244979   5.760   3.542  16.537 -0.6896  0.6510  0.2889
 7830TIP3   OH244980   5.170   0.228  14.109 -0.9035 -1.0163  0.5073
 7830TIP3    H144981   5.192   0.307  14.060  0.9814 -3.3481 -2.7569
 7830TIP3    H244982   5.087   0.249  14.151  0.9700  3.7730  2.6140
 7831TIP3   OH244983   2.447   1.954  12.726  0.3217 -0.2044 -0.3228
 7831TIP3    H144984   2.506   1.887  12.689 -2.0511 -0.7782 -3.5275
 7831TIP3    H244985   2.374   1.904  12.761  0.2885  0.6056  0.8036
 7832TIP3   OH244986   3.368   1.713  12.538  0.4782 -0.4007 -0.3127
 7832TIP3    H144987   3.307   1.669  12.480  0.1759 -2.2753  1.3447
 7832TIP3    H244988   3.313   1.748  12.608  1.1188 -0.6309  0.3127
 7833TIP3   OH244989   2.178   0.641   5.467  0.0221 -0.2465 -0.3782
 7833TIP3    H144990   2.136   0.596   5.393  0.1842  0.6985 -1.0696
 7833TIP3    H244991   2.146   0.731   5.461 -0.3594 -0.2667  1.0252
 7834TIP3   OH244992   1.625   0.890  11.439 -0.3319  0.7239  0.2625
 7834TIP3    H144993   1.572   0.909  11.362 -0.4561  0.0995  0.1889
 7834TIP3    H244994   1.711   0.866  11.404 -0.7665 -0.8792  0.2313
 7835TIP3   OH244995   6.511   0.841  11.218 -0.8018 -0.0382  0.2796
 7835TIP3    H144996   6.425   0.799  11.226 -1.4631  0.2927 -3.4077
 7835TIP3    H244997   6.535   0.829  11.126  3.6492 -0.9805  1.3346
 7836TIP3   OH244998   0.630   4.041  15.926 -0.1114 -0.1601  0.2253
 7836TIP3    H144999   0.680   4.096  15.865 -0.2387 -0.1778  0.1063
 7836TIP3    H245000   0.685   3.963  15.938  0.2866  0.1932  0.7521
 7837TIP3   OH245001   3.167   1.057   1.411 -0.1009 -0.0722 -0.3947
 7837TIP3    H145002   3.233   1.066   1.480  0.0602 -2.3048 -0.1755
 7837TIP3    H245003   3.094   1.012   1.454 -0.4082 -0.5918 -1.4245
 7838TIP3   OH245004   4.862   6.534  13.407  0.4498  0.0321 -0.6436
 7838TIP3    H145005   4.932   6.574  13.459 -0.7195 -0.1572  1.1650
 7838TIP3    H245006   4.828   6.605  13.352  1.9766  0.1414 -1.5068
 7839TIP3   OH245007   3.507   0.800  16.664 -0.3388  0.2960 -0.6180
 7839TIP3    H145008   3.501   0.847  16.581  1.3150  1.2742 -0.2382
 7839TIP3    H245009   3.565   0.853  16.717  0.3695 -1.4077  0.4055
 7840TIP3   OH245010   3.184   4.176  11.827  0.1973  0.1204  0.2204
 7840TIP3    H145011   3.218   4.149  11.913  0.3386 -3.3372 -0.8039
 7840TIP3    H245012   3.127   4.251  11.847 -1.0606 -1.5129  3.5634
 7841TIP3   OH245013   5.923   4.284  11.703 -0.0224  0.5463 -0.1079
 7841TIP3    H145014   5.891   4.351  11.642 -0.0169 -0.1684 -0.9165
 7841TIP3    H245015   5.849   4.267  11.761  0.1620  1.6585  0.4788
 7842TIP3   OH245016   1.529   0.350   0.298 -0.1257  0.8652 -0.2395
 7842TIP3    H145017   1.434   0.352   0.303 -0.1352  3.7886  0.3027
 7842TIP3    H245018   1.556   0.285   0.363 -1.7275 -0.1033 -0.5072
 7843TIP3   OH245019   2.678   3.878  11.083  0.2758 -0.6922 -0.4803
 7843TIP3    H145020   2.606   3.888  11.021  1.0890 -2.2334 -1.7340
 7843TIP3    H245021   2.733   3.810  11.046  2.2826  0.2660  0.5678
 7844TIP3   OH245022   4.649   0.094   5.686  0.4396  0.2186  0.1282
 7844TIP3    H145023   4.686   0.016   5.647  2.6210  1.2787 -0.0932
 7844TIP3    H245024   4.637   0.071   5.779 -0.8563 -0.9690 -0.2995
 7845TIP3   OH245025   6.599   2.269  16.447  0.6098  0.2668  0.0909
 7845TIP3    H145026   6.578   2.355  16.483  0.4643  0.1630  0.2574
 7845TIP3    H245027   6.543   2.209  16.496  1.4377 -0.0413  0.6714
 7846TIP3   OH245028   1.482   2.191  16.265  0.9058 -0.5077  0.4059
 7846TIP3    H145029   1.506   2.213  16.175 -1.3128 -0.1508 -0.1549
 7846TIP3    H245030   1.562   2.210  16.316  1.9439  0.0882 -1.3450
 7847TIP3   OH245031   5.187   4.147   1.159  0.3598  0.2676 -0.2700
 7847TIP3    H145032   5.281   4.142   1.178  0.5686  1.9645 -0.6981
 7847TIP3    H245033   5.159   4.056   1.154  1.7294 -0.2703  1.0707
 7848TIP3   OH245034   2.134   5.543   5.889  0.1744 -0.2303  0.6434
 7848TIP3    H145035   2.120   5.450   5.906  1.4228 -0.2399  1.7559
 7848TIP3    H245036   2.153   5.547   5.795 -0.7957 -0.9619  0.3981
 7849TIP3   OH245037   1.221   0.008   5.574 -0.0345 -0.4243 -0.2813
 7849TIP3    H145038   1.221  -0.005   5.479 -2.0147  0.5466 -0.4640
 7849TIP3    H245039   1.280   0.082   5.588  0.2377 -0.5463 -0.7352
 7850TIP3   OH245040   2.827   2.200   0.967 -0.2377  0.4633 -0.2737
 7850TIP3    H145041   2.766   2.273   0.974 -0.2430  0.3098  1.9554
 7850TIP3    H245042   2.777   2.124   1.000  0.6429  0.0217  0.0725
 7851TIP3   OH245043   2.317   0.410  11.346  0.1469 -0.6620  0.1937
 7851TIP3    H145044   2.238   0.456  11.318  0.4069 -0.4266 -0.1554
 7851TIP3    H245045   2.324   0.335  11.288  1.5208  0.6463 -1.4305
 7852TIP3   OH245046   0.319   2.508   1.903  0.3116  0.5998 -0.7502
 7852TIP3    H145047   0.365   2.451   1.840  0.0720  0.5876 -0.9155
 7852TIP3    H245048   0.384   2.525   1.971  0.4172  0.2016 -0.7453
 7853TIP3   OH245049   5.425   5.688   5.898  0.8739  0.0026  0.1775
 7853TIP3    H145050   5.375   5.682   5.979  0.6885 -0.8093  0.0086
 7853TIP3    H245051   5.438   5.598   5.871  1.7130  0.2307 -0.2258
 7854TIP3   OH245052   5.693   4.162   5.237 -0.4046 -0.5817  0.3354
 7854TIP3    H145053   5.775   4.211   5.250 -1.0962  0.0571  2.8840
 7854TIP3    H245054   5.678   4.165   5.143  0.2653  3.0906  0.1989
 7855TIP3   OH245055   0.364   1.914   1.993  0.0983 -0.0583  0.2744
 7855TIP3    H145056   0.284   1.880   2.032  0.1409  1.0062  1.3518
 7855TIP3    H245057   0.335   1.979   1.929  0.0837 -0.5444 -0.2247
 7856TIP3   OH245058   2.257   0.432   4.841  0.5248 -0.2104  0.1509
 7856TIP3    H145059   2.166   0.406   4.827  0.3522 -0.2172  1.1901
 7856TIP3    H245060   2.282   0.477   4.760 -0.5279  0.1560  0.0107
 7857TIP3   OH245061   6.630   0.728  15.445  0.5275 -0.6141 -0.2250
 7857TIP3    H145062   6.721   0.706  15.464  0.6042 -1.4170 -1.4543
 7857TIP3    H245063   6.592   0.647  15.413 -0.7731 -0.4143  0.7552
 7858TIP3   OH245064   1.436   0.486   1.943 -0.2279  0.2871 -0.0315
 7858TIP3    H145065   1.347   0.520   1.939 -0.5690 -0.4400  1.0816
 7858TIP3    H245066   1.455   0.478   2.036  0.0914 -1.8703 -0.2371
 7859TIP3   OH245067   3.243   4.750  12.011 -0.2442 -0.3107 -0.3074
 7859TIP3    H145068   3.299   4.673  12.002  0.1310 -0.1338  0.5060
 7859TIP3    H245069   3.277   4.812  11.947 -0.2082 -0.6082 -0.5819
 7860TIP3   OH245070   2.217   6.145   2.527 -0.4997  0.3758  0.2036
 7860TIP3    H145071   2.289   6.197   2.490  0.9567 -2.8010 -1.8308
 7860TIP3    H245072   2.252   6.111   2.610 -0.7726  1.1011  0.6267
 7861TIP3   OH245073   4.894   6.656  15.466 -0.1349 -0.0102  0.0122
 7861TIP3    H145074   4.884   6.749  15.449  0.8078 -0.1906 -1.9277
 7861TIP3    H245075   4.808   6.626  15.494 -0.5998  1.3351  0.0609
 7862TIP3   OH245076   5.515   3.119   3.604  0.0046  0.5015 -0.0201
 7862TIP3    H145077   5.544   3.192   3.550 -0.8416  0.2204 -0.8870
 7862TIP3    H245078   5.433   3.090   3.563 -0.4422  0.0062  1.1701
 7863TIP3   OH245079   1.493   6.262  14.046  0.3088  0.5036  0.0727
 7863TIP3    H145080   1.419   6.276  13.986 -0.9207 -0.8473  1.2251
 7863TIP3    H245081   1.557   6.215  13.993 -1.3694 -2.0431  0.1358
 7864TIP3   OH245082   6.107   1.553  10.885  0.0110 -0.0237 -0.3363
 7864TIP3    H145083   6.122   1.470  10.930  1.2152  1.0981  1.4433
 7864TIP3    H245084   6.013   1.571  10.898  0.5163  0.8796  3.0058
 7865TIP3   OH245085   4.928   3.574   4.723  0.1498 -0.3209  0.1944
 7865TIP3    H145086   4.847   3.620   4.742  0.6660  1.1300 -0.9500
 7865TIP3    H245087   4.903   3.506   4.661  0.0654  1.3566 -1.6941
 7866TIP3   OH245088   1.022   0.223   2.002  0.1923  0.4622 -0.6403
 7866TIP3    H145089   0.934   0.186   2.010  1.1368 -2.3050 -1.8710
 7866TIP3    H245090   1.057   0.217   2.091  0.1167 -1.2561 -0.6827
 7867TIP3   OH245091   5.351   5.028   5.646 -0.0102  0.2998  0.4120
 7867TIP3    H145092   5.355   4.969   5.570  1.0241 -0.5001  1.0531
 7867TIP3    H245093   5.349   5.115   5.608 -0.8758 -0.1258 -0.5552
 7868TIP3   OH245094   4.133   6.627  12.805 -0.0112  0.3351 -0.1793
 7868TIP3    H145095   4.054   6.596  12.760 -0.8488  1.3888  0.5240
 7868TIP3    H245096   4.102   6.654  12.891  0.8459  2.0734 -0.3677
 7869TIP3   OH245097   2.049   3.770  11.752 -0.2878 -0.0056 -0.2539
 7869TIP3    H145098   1.973   3.827  11.738  1.2308  1.7147 -2.1890
 7869TIP3    H245099   2.044   3.706  11.680  0.3064  0.4097 -0.6765
 7870TIP3   OH245100   1.901   4.813  13.779  0.4500  0.2259  0.1595
 7870TIP3    H145101   1.952   4.882  13.736 -0.0224  1.2898  1.2416
 7870TIP3    H245102   1.810   4.831  13.754  0.3836 -0.3942 -0.0608
 7871TIP3   OH245103   3.539   2.321   0.268 -0.0898  0.2203 -0.3062
 7871TIP3    H145104   3.595   2.358   0.201  0.5198  1.5232  0.8783
 7871TIP3    H245105   3.473   2.388   0.285  0.4501  0.3983  1.1895
 7872TIP3   OH245106   5.875   6.574   4.232  0.0872  0.1158 -0.5637
 7872TIP3    H145107   5.970   6.585   4.227  0.0804  0.1841 -0.5430
 7872TIP3    H245108   5.862   6.479   4.241  0.1032 -0.0404 -1.9886
 7873TIP3   OH245109   4.358   3.807   2.841  0.0517 -0.0076 -0.0920
 7873TIP3    H145110   4.433   3.866   2.839 -1.7014  2.3796  0.7424
 7873TIP3    H245111   4.385   3.737   2.901  1.3267  1.2472  0.8721
 7874TIP3   OH245112   1.238   2.491   6.053 -0.1821  0.0300  0.1064
 7874TIP3    H145113   1.248   2.563   5.991 -1.1866  0.5148  0.4913
 7874TIP3    H245114   1.295   2.422   6.019 -0.2811  0.4985 -1.0333
 7875TIP3   OH245115   1.460   5.080  15.586  0.5030 -0.3780  0.5018
 7875TIP3    H145116   1.416   5.148  15.535  3.4197  0.6447 -0.8555
 7875TIP3    H245117   1.446   5.000  15.536 -0.0128 -0.1235  0.2309
 7876TIP3   OH245118   4.779   3.749   2.682  0.2628  0.8691 -0.2337
 7876TIP3    H145119   4.791   3.781   2.592  1.6290 -0.1856 -0.4653
 7876TIP3    H245120   4.868   3.731   2.713 -0.2556  0.3145  0.9974
 7877TIP3   OH245121   2.714   1.115   3.304  0.0280  0.0820  0.0141
 7877TIP3    H145122   2.703   1.022   3.283  1.4730 -0.6578  2.1928
 7877TIP3    H245123   2.637   1.137   3.356  0.1906 -0.1961  0.3753
 7878TIP3   OH245124   1.540   2.167  13.492 -0.4834  0.1695  0.8819
 7878TIP3    H145125   1.449   2.160  13.461 -0.3326 -0.1519  0.5120
 7878TIP3    H245126   1.582   2.086  13.463  0.4957  1.2404 -0.8623
 7879TIP3   OH245127   6.442   3.360  12.724  0.3456 -0.2283  0.0829
 7879TIP3    H145128   6.521   3.360  12.671  0.1506 -1.4286 -0.2407
 7879TIP3    H245129   6.446   3.278  12.773 -0.3552  0.0318  0.6024
 7880TIP3   OH245130   6.343   1.723   2.530  0.0225  0.1705  0.5493
 7880TIP3    H145131   6.283   1.710   2.604 -1.0705 -0.2220 -0.3848
 7880TIP3    H245132   6.371   1.814   2.537 -1.3117  0.5870  0.5513
 7881TIP3   OH245133   3.494   1.777   2.657 -0.0024  0.7192  0.1033
 7881TIP3    H145134   3.437   1.720   2.605  0.6515  1.2602 -1.2288
 7881TIP3    H245135   3.521   1.723   2.731 -1.0282 -0.0290 -0.0471
 7882TIP3   OH245136   4.659   5.477   5.369  0.3673 -0.1762  0.3405
 7882TIP3    H145137   4.673   5.540   5.440  0.9695 -2.2032  2.1187
 7882TIP3    H245138   4.746   5.443   5.350 -0.0646 -1.2308  0.1732
 7883TIP3   OH245139   1.394   5.243  14.590  0.5769  0.1925  0.9583
 7883TIP3    H145140   1.325   5.247  14.524  1.0438 -1.8583  0.2520
 7883TIP3    H245141   1.417   5.334  14.607 -0.7277  0.8354 -0.4659
 7884TIP3   OH245142   5.316   2.586   3.027 -0.6031  0.2561 -0.4515
 7884TIP3    H145143   5.319   2.652   3.096 -0.1042  1.0235 -1.1861
 7884TIP3    H245144   5.233   2.541   3.041  0.2783 -0.8579  1.7532
 7885TIP3   OH245145   0.043   0.598  13.241  0.1575  0.1492 -0.3617
 7885TIP3    H145146   0.002   0.678  13.273  2.7018  1.8690 -1.1071
 7885TIP3    H245147  -0.023   0.530  13.255 -0.8874  1.6585  3.5432
 7886TIP3   OH245148   4.692   0.099  16.187 -0.3974 -0.3357 -0.1620
 7886TIP3    H145149   4.703   0.033  16.118 -0.3545  0.0880 -0.5664
 7886TIP3    H245150   4.716   0.054  16.267  1.5159 -0.2761 -0.6557
 7887TIP3   OH245151   3.768   3.843  16.734  0.2896 -0.0736  0.5147
 7887TIP3    H145152   3.753   3.765  16.680 -0.9575  0.1821  0.4530
 7887TIP3    H245153   3.712   3.830  16.811 -0.8407  1.2506 -0.0377
 7888TIP3   OH245154   0.768   0.516  11.149  0.2378 -0.4025 -0.1533
 7888TIP3    H145155   0.696   0.463  11.184  0.5026 -1.8362 -1.6801
 7888TIP3    H245156   0.845   0.486  11.198 -0.2807  2.1349  2.5252
 7889TIP3   OH245157   3.128   2.860  15.169  0.6693 -0.4634 -0.2162
 7889TIP3    H145158   3.181   2.897  15.239 -0.4017 -0.7923  0.8042
 7889TIP3    H245159   3.041   2.850  15.208  0.4111 -2.0366 -1.1209
 7890TIP3   OH245160   6.452   5.219   1.097 -0.2426 -0.3319  0.2402
 7890TIP3    H145161   6.521   5.199   1.160  1.1343  1.0235 -0.7831
 7890TIP3    H245162   6.379   5.252   1.150 -1.2042 -4.0666  1.6269
 7891TIP3   OH245163   2.475   6.174   4.382 -0.2688 -0.4707  0.1597
 7891TIP3    H145164   2.546   6.174   4.446 -0.6054  2.4186  0.6879
 7891TIP3    H245165   2.506   6.232   4.312 -2.4685  1.9688  1.0188
 7892TIP3   OH245166   3.217   2.737   0.905  0.2411  0.1262  0.0388
 7892TIP3    H145167   3.216   2.722   0.811 -4.5079  0.9128 -0.2665
 7892TIP3    H245168   3.207   2.832   0.915 -1.1167 -0.1061  1.2341
 7893TIP3   OH245169   1.355   2.248  16.592 -0.1729  0.1872  0.4980
 7893TIP3    H145170   1.264   2.270  16.612 -0.9670 -2.1760 -0.2449
 7893TIP3    H245171   1.384   2.197  16.668  0.6313  1.1241  0.8320
 7894TIP3   OH245172   5.600   5.439   4.046  0.4256 -0.3558  0.3057
 7894TIP3    H145173   5.562   5.506   4.103  0.3791 -0.0842 -0.0459
 7894TIP3    H245174   5.693   5.462   4.042  0.3907 -0.2508  0.1006
 7895TIP3   OH245175   4.358   3.102   5.728  0.4814 -0.0466 -0.2631
 7895TIP3    H145176   4.389   3.138   5.811  0.0678 -1.2794  0.4499
 7895TIP3    H245177   4.271   3.068   5.748 -0.5059  1.4361 -1.6996
 7896TIP3   OH245178   2.851   1.908  15.115  0.2241  0.2086 -0.3149
 7896TIP3    H145179   2.836   1.836  15.176  0.0501  1.4717  1.1713
 7896TIP3    H245180   2.785   1.896  15.047 -0.7853 -0.1808  0.7061
 7897TIP3   OH245181   6.214   0.012  16.669  0.0546  0.7541 -0.2259
 7897TIP3    H145182   6.204  -0.055  16.602  0.5494  0.3227  0.1274
 7897TIP3    H245183   6.158  -0.016  16.741  0.3988  0.6241 -0.0067
 7898TIP3   OH245184   1.080   1.311  10.949 -0.4820  0.2525 -0.0770
 7898TIP3    H145185   1.116   1.228  10.918 -0.0204 -0.0198  1.1401
 7898TIP3    H245186   1.008   1.330  10.888 -1.7545 -1.9351  0.6322
 7899TIP3   OH245187   3.284   0.079   4.904 -0.9626  0.6191 -0.0405
 7899TIP3    H145188   3.270  -0.001   4.854  4.0488 -1.2707  0.9563
 7899TIP3    H245189   3.215   0.078   4.970 -2.4988 -1.5418 -1.5508
 7900TIP3   OH245190   5.093   1.716   6.180 -0.0376 -0.4380 -0.0932
 7900TIP3    H145191   5.159   1.783   6.163 -0.8140  0.9236  1.9084
 7900TIP3    H245192   5.029   1.759   6.237 -1.4341 -2.4077 -0.0713
 7901TIP3   OH245193   0.650   5.838   2.440  0.3290  0.1631  0.2075
 7901TIP3    H145194   0.694   5.923   2.442 -1.0959  0.9980 -1.4804
 7901TIP3    H245195   0.688   5.793   2.366 -1.0223  0.5778 -0.7786
 7902TIP3   OH245196   4.431   0.051  11.890  0.3070 -0.1158 -0.1238
 7902TIP3    H145197   4.518   0.027  11.923  0.7762  0.2375 -1.0542
 7902TIP3    H245198   4.441   0.143  11.862 -0.8595  0.5104  1.4014
 7903TIP3   OH245199   4.326   4.917   2.636  0.4501  0.1529 -0.2633
 7903TIP3    H145200   4.403   4.872   2.601  0.8868 -0.0708  0.9381
 7903TIP3    H245201   4.309   4.873   2.719  1.2984  2.6180  1.3080
 7904TIP3   OH245202   0.062   6.628  14.933  0.1958 -0.8846  0.2538
 7904TIP3    H145203   0.154   6.603  14.931  1.1110  2.1323  0.5994
 7904TIP3    H245204   0.061   6.720  14.906 -2.8911 -1.2096 -1.1461
 7905TIP3   OH245205   4.184   2.313   4.432 -0.0918 -0.2834 -0.0438
 7905TIP3    H145206   4.220   2.280   4.350 -1.0781 -1.3523 -0.0784
 7905TIP3    H245207   4.258   2.313   4.492  0.5652  0.1832 -0.8287
 7906TIP3   OH245208   3.530   5.744  12.018  0.6018 -0.2766 -0.3225
 7906TIP3    H145209   3.438   5.750  11.991  0.0562 -1.5683  1.0426
 7906TIP3    H245210   3.558   5.658  11.987  0.7557 -0.6707  0.8556
 7907TIP3   OH245211   1.705   0.284   1.713 -0.6353 -0.1989  0.5985
 7907TIP3    H145212   1.779   0.228   1.689 -0.6619 -0.5450  1.3063
 7907TIP3    H245213   1.716   0.362   1.659 -1.0514 -1.1991 -0.9914
 7908TIP3   OH245214   4.643   6.305   2.541  0.6535  0.5140  0.2380
 7908TIP3    H145215   4.553   6.303   2.508  1.0034 -1.2979 -0.7053
 7908TIP3    H245216   4.673   6.215   2.534  2.1468  0.8574  1.7255
 7909TIP3   OH245217   5.027   4.362  13.615  0.4702  0.7422  0.4072
 7909TIP3    H145218   5.042   4.268  13.607  0.1159  0.7906 -1.0198
 7909TIP3    H245219   5.020   4.377  13.709 -0.5498 -0.8249  0.6126
 7910TIP3   OH245220   6.789   6.203   3.140  0.2631 -0.0743  1.0672
 7910TIP3    H145221   6.740   6.245   3.069  0.8244  0.1834  0.8254
 7910TIP3    H245222   6.880   6.202   3.109  0.3392 -1.0196  1.2812
 7911TIP3   OH245223   0.194   5.712   1.512  0.3046 -0.1828 -0.3952
 7911TIP3    H145224   0.109   5.720   1.467  0.4871  0.1759 -0.6781
 7911TIP3    H245225   0.174   5.663   1.592  0.2380 -2.3296 -1.6375
 7912TIP3   OH245226   2.772   4.487   2.786  0.2179 -0.4068 -0.0813
 7912TIP3    H145227   2.707   4.557   2.774  0.9833  0.2508 -0.4612
 7912TIP3    H245228   2.843   4.510   2.727  0.4768 -1.5283 -0.2218
 7913TIP3   OH245229   2.395   6.032   3.901 -0.0245  0.2531  0.6422
 7913TIP3    H145230   2.445   5.951   3.911 -0.3925 -0.1571 -0.6190
 7913TIP3    H245231   2.452   6.100   3.938  0.9151 -0.3769  0.3998
 7914TIP3   OH245232   1.929   2.191  11.284  0.5840 -0.2576  0.0609
 7914TIP3    H145233   1.859   2.198  11.348 -0.1162 -1.4156 -0.5521
 7914TIP3    H245234   1.921   2.269  11.230  0.3604  0.0735  0.5693
 7915TIP3   OH245235   0.912   1.341  16.176  0.0900 -0.5219  0.0413
 7915TIP3    H145236   0.854   1.385  16.114  0.4972  0.5567  0.4126
 7915TIP3    H245237   0.994   1.330  16.128  0.2897 -0.0145  0.2639
 7916TIP3   OH245238   0.577   5.743  15.336  0.3979  0.0256  0.0521
 7916TIP3    H145239   0.609   5.821  15.381  0.2209  0.6336 -0.8514
 7916TIP3    H245240   0.495   5.722  15.380  0.3093  0.5117  0.1232
 7917TIP3   OH245241   0.869   4.914   4.472  0.0087  0.0327  0.3011
 7917TIP3    H145242   0.871   4.886   4.380  0.3048  1.6074 -0.2085
 7917TIP3    H245243   0.782   4.887   4.503 -0.2348 -0.1969 -0.5468
 7918TIP3   OH245244   3.587   4.464  15.716 -0.2828 -0.1258 -0.3427
 7918TIP3    H145245   3.542   4.529  15.663 -2.2895  0.4153  1.8151
 7918TIP3    H245246   3.525   4.391  15.722 -0.9055  0.4952  2.4380
 7919TIP3   OH245247   2.343   6.782  13.763  0.1359  0.7204 -0.2217
 7919TIP3    H145248   2.402   6.714  13.730  0.2227  0.8199 -0.2735
 7919TIP3    H245249   2.348   6.773  13.858 -1.1912 -0.4942 -0.2337
 7920TIP3   OH245250   5.446   1.719  14.158 -0.1274  0.3023 -0.3565
 7920TIP3    H145251   5.427   1.757  14.073 -0.2133  1.2680  0.0849
 7920TIP3    H245252   5.366   1.731  14.209 -0.2845 -0.8046 -0.3206
 7921TIP3   OH245253   5.515   4.529   1.134 -0.1716  0.0082 -0.3691
 7921TIP3    H145254   5.460   4.481   1.072 -1.6872 -0.5709  1.3428
 7921TIP3    H245255   5.554   4.462   1.190 -0.8634  0.6278  0.8976
 7922TIP3   OH245256   0.069   6.576   4.141 -0.1026 -0.1744 -0.3207
 7922TIP3    H145257   0.071   6.610   4.051 -2.0216 -1.0150 -0.7232
 7922TIP3    H245258   0.087   6.653   4.195  0.4149  0.4827 -1.3859
 7923TIP3   OH245259   0.018   1.543  14.054 -0.0688  0.6134  0.0993
 7923TIP3    H145260   0.082   1.514  13.989 -0.7639  1.0131 -0.7812
 7923TIP3    H245261  -0.007   1.631  14.025 -4.1837 -1.0052 -2.1387
 7924TIP3   OH245262   4.722   3.489   2.324 -0.0090  0.5360 -0.0058
 7924TIP3    H145263   4.800   3.545   2.330 -0.5925  1.3156  0.5358
 7924TIP3    H245264   4.672   3.526   2.252 -0.2300  0.4918  0.1260
 7925TIP3   OH245265   5.002   5.890  10.437  0.1595  0.3024 -0.1595
 7925TIP3    H145266   4.955   5.908  10.518 -0.6841  0.4826 -0.6712
 7925TIP3    H245267   5.066   5.961  10.429 -0.6813  1.0654 -0.3299
 7926TIP3   OH245268   3.419   4.180  11.220 -0.0140 -0.8317 -0.4850
 7926TIP3    H145269   3.467   4.148  11.144 -1.2250 -0.6157 -1.3828
 7926TIP3    H245270   3.330   4.146  11.208 -0.5693  0.3465  0.1202
 7927TIP3   OH245271   1.196   3.075   2.419  0.0611 -0.2467 -0.2731
 7927TIP3    H145272   1.208   3.043   2.508  0.8552 -1.3048 -0.7501
 7927TIP3    H245273   1.132   3.016   2.380 -0.4578  0.3499 -0.3567
 7928TIP3   OH245274   1.190   2.421   2.889  0.2885 -0.1646  0.2805
 7928TIP3    H145275   1.187   2.341   2.836  2.3257  0.1313 -0.3453
 7928TIP3    H245276   1.196   2.389   2.979  0.3527 -0.7105  0.0888
 7929TIP3   OH245277   4.172   1.067  14.233 -0.1554  0.4382  0.3708
 7929TIP3    H145278   4.119   1.115  14.170 -0.5909  0.8452  1.0393
 7929TIP3    H245279   4.112   1.005  14.274 -0.0020  0.5382  0.7604
 7930TIP3   OH245280   2.381   0.164  13.622  0.4436  0.2402 -0.5051
 7930TIP3    H145281   2.382   0.101  13.694  0.8712  0.2105 -0.5292
 7930TIP3    H245282   2.314   0.228  13.647  1.1853  0.7162  0.3546
 7931TIP3   OH245283   1.013   1.624   5.714  0.8711 -0.3803 -0.5979
 7931TIP3    H145284   0.978   1.564   5.780 -0.9004  1.9611  0.7322
 7931TIP3    H245285   1.076   1.678   5.761 -0.4048  1.3124 -0.7362
 7932TIP3   OH245286   6.748   4.526   4.796  0.3658 -0.2142  0.5540
 7932TIP3    H145287   6.839   4.542   4.771  0.6578 -1.1506  0.9810
 7932TIP3    H245288   6.747   4.532   4.891  0.1781 -1.1187  0.6219
 7933TIP3   OH245289   5.842   4.545  15.228  0.2914 -0.5931 -0.4404
 7933TIP3    H145290   5.889   4.525  15.309  0.4942 -0.7839 -0.6051
 7933TIP3    H245291   5.857   4.638  15.213 -0.5342 -0.3306  0.2524
 7934TIP3   OH245292   3.107   2.637  15.525 -0.1199 -1.0744  0.1938
 7934TIP3    H145293   3.014   2.611  15.528 -0.3531 -0.2139  0.5927
 7934TIP3    H245294   3.148   2.570  15.470 -1.5948  0.3944 -2.8924
 7935TIP3   OH245295   2.951   3.231  13.114 -0.3518 -0.8590 -0.0551
 7935TIP3    H145296   3.007   3.230  13.036  1.1849  0.4300  0.9744
 7935TIP3    H245297   3.012   3.233  13.187 -1.7684 -1.6362  1.1962
 7936TIP3   OH245298   2.409   3.218   3.683 -0.4757  0.3286 -0.1824
 7936TIP3    H145299   2.468   3.145   3.700 -0.2386  0.6690  0.4986
 7936TIP3    H245300   2.329   3.177   3.650 -0.7763 -0.3561  1.2920
 7937TIP3   OH245301   5.041   4.025   2.683 -0.4234  0.7738  0.5234
 7937TIP3    H145302   5.118   4.082   2.680  0.5066 -0.4435  0.6439
 7937TIP3    H245303   4.971   4.081   2.717  0.1466  2.1705 -0.5132
 7938TIP3   OH245304   5.576   2.623   2.588  0.7897  0.1274 -0.3565
 7938TIP3    H145305   5.495   2.663   2.619 -0.4407 -1.6583 -1.0993
 7938TIP3    H245306   5.620   2.592   2.667  0.9181  1.3751  0.0770
 7939TIP3   OH245307   1.089   6.776   2.170  0.4828  0.1359 -0.0858
 7939TIP3    H145308   1.077   6.860   2.215 -0.7380 -0.6819  1.1956
 7939TIP3    H245309   1.169   6.788   2.118  1.0175  1.6917  1.0119
 7940TIP3   OH245310   3.306   5.235   1.368 -0.0668  0.6469 -0.0146
 7940TIP3    H145311   3.396   5.227   1.399 -0.1008 -0.3043 -0.1321
 7940TIP3    H245312   3.306   5.313   1.312  1.3503 -0.8346 -2.2435
 7941TIP3   OH245313   0.859   5.547   1.981  0.1707  0.3687 -0.4027
 7941TIP3    H145314   0.874   5.633   2.020  0.2987  0.6714 -1.1023
 7941TIP3    H245315   0.946   5.508   1.975  0.2024  0.5008 -0.7909
 7942TIP3   OH245316   4.630   3.812  16.585 -0.0976  0.1005 -0.2735
 7942TIP3    H145317   4.689   3.744  16.618 -0.7750 -0.1439  0.4617
 7942TIP3    H245318   4.685   3.891  16.581  0.8083 -0.5619 -1.5564
 7943TIP3   OH245319   5.302   4.937  16.788 -0.2359 -0.0804  0.3283
 7943TIP3    H145320   5.210   4.909  16.781  0.0799 -1.3575  0.9987
 7943TIP3    H245321   5.330   4.950  16.697 -0.6384 -1.2188  0.0220
 7944TIP3   OH245322   4.642   2.206  11.372 -0.6904 -0.2450  0.0285
 7944TIP3    H145323   4.632   2.119  11.412  0.8694 -2.1535 -3.3417
 7944TIP3    H245324   4.709   2.249  11.425 -1.1705 -1.2394  1.5150
 7945TIP3   OH245325   5.536   0.736  14.587  0.2939  0.3389 -0.6405
 7945TIP3    H145326   5.528   0.807  14.652 -0.6482  1.3131 -1.7720
 7945TIP3    H245327   5.629   0.734  14.566  0.3833  1.0564 -0.3691
 7946TIP3   OH245328   1.234   5.767  12.960  0.1844  0.8888  0.1654
 7946TIP3    H145329   1.269   5.854  12.984  1.8432  0.1318  0.6639
 7946TIP3    H245330   1.210   5.728  13.044 -0.7028  0.9214 -0.0737
 7947TIP3   OH245331   4.039   0.232   0.401  0.2768  0.0270 -0.1804
 7947TIP3    H145332   4.060   0.177   0.325 -0.3581 -0.6700  0.1401
 7947TIP3    H245333   4.095   0.198   0.471  2.2110  1.8191 -0.7418
 7948TIP3   OH245334   4.468   5.896  16.200  0.1722  0.6379 -0.0799
 7948TIP3    H145335   4.487   5.987  16.223 -1.7445  0.7081  1.5577
 7948TIP3    H245336   4.441   5.900  16.108  0.9703  1.5645 -0.2947
 7949TIP3   OH245337   1.591   3.856  15.085 -0.1838 -0.4921  0.8087
 7949TIP3    H145338   1.548   3.875  15.168 -0.2972  1.3513  0.3683
 7949TIP3    H245339   1.623   3.766  15.095 -3.8607 -1.9182  1.2412
 7950TIP3   OH245340   2.144   5.051  13.747  0.9798 -0.7229 -0.2270
 7950TIP3    H145341   2.231   5.033  13.782  0.8446 -1.1232 -0.0973
 7950TIP3    H245342   2.103   5.105  13.814  1.7614  1.0395 -1.0879
 7951TIP3   OH245343   0.021   2.522  11.383  0.1965  0.8036 -0.4342
 7951TIP3    H145344   0.111   2.536  11.354  0.0422  0.2205 -1.2184
 7951TIP3    H245345   0.014   2.571  11.465  1.5533 -0.0128  0.1995
 7952TIP3   OH245346   4.798   4.757   0.115 -0.1251  0.0873 -0.4913
 7952TIP3    H145347   4.844   4.753   0.031  0.0669  0.8857 -0.4327
 7952TIP3    H245348   4.859   4.800   0.174 -0.2689 -0.4452  0.0599
 7953TIP3   OH245349   3.702   5.389   5.733  0.0417 -0.4267  0.7030
 7953TIP3    H145350   3.671   5.300   5.716  1.2119 -0.9484  1.1801
 7953TIP3    H245351   3.747   5.415   5.652 -0.3777 -0.2322  0.5318
 7954TIP3   OH245352   6.162   5.685   4.296 -0.5723  0.8276  0.2746
 7954TIP3    H145353   6.120   5.629   4.231  0.5400  1.2312 -0.8132
 7954TIP3    H245354   6.252   5.653   4.301  0.1840  2.6890 -0.6122
 7955TIP3   OH245355   6.055   2.887  15.357  0.4859 -0.1998  0.0973
 7955TIP3    H145356   5.997   2.841  15.297 -1.0172  0.8969  0.6323
 7955TIP3    H245357   6.059   2.832  15.435 -0.9348  0.3097  0.5609
 7956TIP3   OH245358   3.888   6.746   5.289  0.0485 -0.1328  0.2565
 7956TIP3    H145359   3.979   6.755   5.318  0.4949 -0.5733 -0.9295
 7956TIP3    H245360   3.893   6.684   5.216 -1.0316  0.7309 -0.5788
 7957TIP3   OH245361   0.803   6.638  17.156 -0.0085  0.3369  0.0292
 7957TIP3    H145362   0.742   6.647  17.083 -0.6463 -1.3776  0.3082
 7957TIP3    H245363   0.889   6.626  17.115 -0.1462  0.7783 -0.3949
 7958TIP3   OH245364   6.267   6.466  12.124  0.5928 -0.3004 -0.3009
 7958TIP3    H145365   6.254   6.374  12.148  0.5860 -0.2706 -0.1885
 7958TIP3    H245366   6.265   6.513  12.207 -1.5534  0.0551 -0.4921
 7959TIP3   OH245367   6.055   5.361   3.099  0.1893  0.1302  0.0673
 7959TIP3    H145368   6.058   5.267   3.084  1.0717  0.1955 -0.2085
 7959TIP3    H245369   5.963   5.380   3.114  0.0087 -0.7810  0.1585
 7960TIP3   OH245370   3.750   6.168   4.968 -0.5666  0.2790  0.8571
 7960TIP3    H145371   3.687   6.239   4.980 -1.5344 -0.5889  1.0689
 7960TIP3    H245372   3.781   6.177   4.878 -1.2365  0.5372  0.6468
 7961TIP3   OH245373   4.220   2.867  11.967  0.0592  0.4847  0.9393
 7961TIP3    H145374   4.166   2.905  12.037 -1.4956  0.3202 -0.1062
 7961TIP3    H245375   4.299   2.921  11.965 -1.8852  3.5668 -0.2473
 7962TIP3   OH245376   0.149   1.514   3.781 -0.2185  0.0953  0.1887
 7962TIP3    H145377   0.210   1.584   3.805  0.1684 -0.4830  0.9356
 7962TIP3    H245378   0.088   1.556   3.720 -0.2661  1.2031  0.9576
 7963TIP3   OH245379   1.690   3.683  14.726  0.2343 -0.3410 -0.4166
 7963TIP3    H145380   1.615   3.626  14.741  1.4591 -2.5058 -1.9637
 7963TIP3    H245381   1.729   3.694  14.813  0.1626 -2.1847 -0.1102
 7964TIP3   OH245382   2.764   5.911   5.091  0.4971  0.3306 -0.0977
 7964TIP3    H145383   2.806   5.887   5.008  3.3256  2.6975  0.4622
 7964TIP3    H245384   2.717   5.992   5.071 -1.1678 -0.5504  0.0616
 7965TIP3   OH245385   5.254   0.109  16.547  0.7480  0.6359  0.2718
 7965TIP3    H145386   5.236   0.200  16.525 -1.0079  0.3172  0.3082
 7965TIP3    H245387   5.306   0.113  16.627  0.0471  1.5988  0.6890
 7966TIP3   OH245388   0.805   5.082   1.791  0.4429 -0.2108  0.3035
 7966TIP3    H145389   0.881   5.092   1.848  1.5059 -1.2140 -0.8780
 7966TIP3    H245390   0.814   5.151   1.725 -0.0638  0.1140  0.5668
 7967TIP3   OH245391   6.363   2.951   2.957 -0.2785  0.1654 -0.1957
 7967TIP3    H145392   6.374   2.872   3.011 -0.4154 -0.0082 -0.4184
 7967TIP3    H245393   6.269   2.971   2.963 -0.2103  0.4303  0.0215
 7968TIP3   OH245394   5.679   6.071  14.361 -0.4703  0.1946  0.2033
 7968TIP3    H145395   5.661   6.010  14.432  2.4617 -1.3247 -0.2229
 7968TIP3    H245396   5.727   6.143  14.402 -0.9161  0.5586  0.1101
 7969TIP3   OH245397   1.175   5.553   5.739  0.7631 -0.0770 -0.2819
 7969TIP3    H145398   1.178   5.533   5.645  0.9461 -1.2805 -0.0371
 7969TIP3    H245399   1.257   5.599   5.756  0.0507  1.5179 -0.9897
 7970TIP3   OH245400   5.043   4.413   5.022  0.1055 -0.1470  0.3665
 7970TIP3    H145401   5.104   4.348   5.056  0.8225  0.3227 -0.0067
 7970TIP3    H245402   5.053   4.489   5.079 -0.6889 -0.3333  0.7674
 7971TIP3   OH245403   3.723   2.916  11.268 -0.5578  0.0268 -0.1899
 7971TIP3    H145404   3.650   2.913  11.206 -0.9314 -0.0393  0.2430
 7971TIP3    H245405   3.704   2.846  11.331  1.8649 -2.6340 -2.1959
 7972TIP3   OH245406   4.996   4.174  14.352 -0.5632  0.2729  0.1627
 7972TIP3    H145407   5.089   4.176  14.377 -0.8568  0.1016  1.2887
 7972TIP3    H245408   4.974   4.265  14.336  0.1512  0.2002 -1.5392
 7973TIP3   OH245409   2.730   1.980   3.534  0.2615 -0.1165  0.2379
 7973TIP3    H145410   2.753   1.907   3.593 -0.4865 -0.2995  0.3131
 7973TIP3    H245411   2.691   2.045   3.592  1.2858  0.5324  0.2335
 7974TIP3   OH245412   2.118   3.955  16.188 -0.2884 -0.1331 -0.7123
 7974TIP3    H145413   2.211   3.978  16.186 -0.5825  1.2508  0.1268
 7974TIP3    H245414   2.111   3.891  16.259 -0.2065  0.9774  0.3215
 7975TIP3   OH245415   3.705   6.376   4.373  0.4589 -0.2937  0.3066
 7975TIP3    H145416   3.790   6.420   4.368 -0.2693  1.0800 -0.5848
 7975TIP3    H245417   3.641   6.448   4.377 -0.6684 -1.2992  1.0055
 7976TIP3   OH245418   4.830   0.769   1.660 -0.5502  0.1400 -0.4779
 7976TIP3    H145419   4.765   0.718   1.708 -0.8082  1.5228  0.7339
 7976TIP3    H245420   4.896   0.705   1.632 -0.5395 -0.7929  1.4943
 7977TIP3   OH245421   1.501   5.693   0.568 -0.2893 -0.5162  0.0355
 7977TIP3    H145422   1.589   5.679   0.604 -0.4308  0.7771  0.9909
 7977TIP3    H245423   1.468   5.606   0.549  1.0028 -1.0515  0.1540
 7978TIP3   OH245424   4.628   5.689   3.581 -0.3914 -0.3464  0.1848
 7978TIP3    H145425   4.626   5.664   3.673  0.1798  1.1549  0.6454
 7978TIP3    H245426   4.713   5.732   3.570 -1.0239  0.7458 -0.6741
 7979TIP3   OH245427   0.374   4.362   1.370  0.5554 -0.4560 -0.6780
 7979TIP3    H145428   0.338   4.294   1.313  0.4405  1.1270 -2.6312
 7979TIP3    H245429   0.433   4.411   1.313  0.4822  1.1753  0.5837
 7980TIP3   OH245430   2.702   5.715   1.613  0.4424  0.0262  0.5082
 7980TIP3    H145431   2.740   5.801   1.635  1.0119 -0.5078  1.7415
 7980TIP3    H245432   2.778   5.657   1.607 -0.0459 -0.7085  1.2969
 7981TIP3   OH245433   1.706   5.197  10.552 -0.2436 -0.5445 -0.5025
 7981TIP3    H145434   1.747   5.159  10.630 -1.8508  1.2204  1.3599
 7981TIP3    H245435   1.631   5.140  10.534 -1.6294  0.6045  1.2056
 7982TIP3   OH245436   1.439   5.517  12.406  0.2502  0.4415  0.8457
 7982TIP3    H145437   1.432   5.499  12.500  1.0105 -1.1482  0.6395
 7982TIP3    H245438   1.529   5.549  12.395  0.4498 -0.1863  0.5715
 7983TIP3   OH245439   1.913   0.515  12.843  0.0751  0.0288 -0.0782
 7983TIP3    H145440   1.955   0.457  12.906  1.2848  2.1762  1.2406
 7983TIP3    H245441   1.885   0.591  12.895  0.2852  1.4892 -1.9730
 7984TIP3   OH245442   3.466   4.248  16.372 -0.1785 -0.1496 -0.0616
 7984TIP3    H145443   3.447   4.179  16.437 -0.8134  1.1914  1.2280
 7984TIP3    H245444   3.481   4.326  16.425  2.1064  0.4180 -1.3893
 7985TIP3   OH245445   2.707   3.679  10.622 -0.0951 -0.2266  0.3710
 7985TIP3    H145446   2.755   3.760  10.605 -1.6473  0.5979 -0.2561
 7985TIP3    H245447   2.702   3.636  10.537  0.7622 -1.0259  0.7104
 7986TIP3   OH245448   0.065   5.331   2.875 -0.0156  0.5144 -0.0999
 7986TIP3    H145449   0.153   5.325   2.838  0.2077 -1.9868  0.6433
 7986TIP3    H245450   0.078   5.330   2.970 -0.7708  2.9144  0.0893
 7987TIP3   OH245451   2.891   6.132   1.066 -0.8717  0.0444 -0.3555
 7987TIP3    H145452   2.940   6.054   1.038 -0.2656 -0.1522  1.1401
 7987TIP3    H245453   2.800   6.111   1.048 -0.8100 -1.4067  0.8181
 7988TIP3   OH245454   5.166   1.189  11.272  0.4953 -0.5676 -0.3389
 7988TIP3    H145455   5.082   1.202  11.316  0.3937  0.6850 -0.8616
 7988TIP3    H245456   5.161   1.244  11.194  2.3859  0.7521  0.4076
 7989TIP3   OH245457   0.194   5.549  17.154  0.0041 -0.6764 -0.3034
 7989TIP3    H145458   0.220   5.577  17.242 -3.0954 -1.6897  1.0904
 7989TIP3    H245459   0.218   5.622  17.097 -0.2385  1.1530  1.8094
 7990TIP3   OH245460   5.153   0.944  11.158 -0.2715  0.1272 -0.1648
 7990TIP3    H145461   5.210   0.972  11.086  2.3951 -1.4969  1.1577
 7990TIP3    H245462   5.135   1.025  11.207  1.5453  0.6326 -0.2360
 7991TIP3   OH245463   3.433   4.341   3.434  0.0467 -0.5560 -0.1194
 7991TIP3    H145464   3.365   4.362   3.497 -0.0327 -1.6565  0.1769
 7991TIP3    H245465   3.463   4.253   3.458  0.1971 -0.8925 -1.4351
 7992TIP3   OH245466   3.637   2.639  13.241  0.6638  0.3992  0.3299
 7992TIP3    H145467   3.695   2.639  13.317 -0.2892 -0.6539  1.0931
 7992TIP3    H245468   3.627   2.547  13.218 -1.8031  0.3961  1.1267
 7993TIP3   OH245469   1.104   6.176   4.786  0.3833 -0.5493  0.3362
 7993TIP3    H145470   1.040   6.154   4.854  0.5000 -1.0395  0.2931
 7993TIP3    H245471   1.186   6.141   4.819  0.5944 -0.1056  0.2923
 7994TIP3   OH245472   5.659   4.975   0.651 -0.2593 -0.3442  0.9465
 7994TIP3    H145473   5.754   4.987   0.654  0.0526 -2.5327  1.3349
 7994TIP3    H245474   5.640   4.914   0.723 -1.7090 -1.3067 -0.1929
 7995TIP3   OH245475   4.075   4.519   2.629 -0.0642  0.0496  0.8035
 7995TIP3    H145476   4.033   4.462   2.564 -1.5453  0.0978  1.6610
 7995TIP3    H245477   4.133   4.460   2.677 -0.4718 -0.4322  0.7235
 7996TIP3   OH245478   2.298   3.715   3.678 -0.0667 -0.0778  0.6779
 7996TIP3    H145479   2.248   3.646   3.635  2.2775 -1.0926 -0.6281
 7996TIP3    H245480   2.234   3.764   3.729 -2.1675 -1.8596 -0.1277
 7997TIP3   OH245481   4.992   4.951   0.196 -0.3861  0.1237 -0.0337
 7997TIP3    H145482   5.048   4.931   0.271  0.7315 -0.3466 -0.9491
 7997TIP3    H245483   4.935   5.022   0.226 -0.9047 -0.9455  1.6746
 7998TIP3   OH245484   0.312   2.002  16.080 -0.2937 -0.0410 -0.1297
 7998TIP3    H145485   0.360   1.934  16.127 -0.8340  0.4234  1.1234
 7998TIP3    H245486   0.226   2.006  16.122 -0.6461  0.6976 -0.8716
 7999TIP3   OH245487   3.467   4.120   0.116 -0.3692  0.2424  0.1230
 7999TIP3    H145488   3.495   4.031   0.138  1.3154  0.4110 -1.1503
 7999TIP3    H245489   3.546   4.174   0.128  0.0439  0.7410 -3.6230
 8000TIP3   OH245490   3.641   5.939   4.801 -0.3592  0.3785  0.0237
 8000TIP3    H145491   3.732   5.958   4.782 -0.1548  0.2171  0.8012
 8000TIP3    H245492   3.618   5.999   4.873 -1.4679  1.8581 -1.4689
 8001TIP3   OH245493   1.510   2.369  11.295 -0.0836  0.0868  0.0506
 8001TIP3    H145494   1.456   2.437  11.254  2.4312  0.3348 -3.2011
 8001TIP3    H245495   1.467   2.287  11.272 -0.6157  0.3781 -0.0063
 8002TIP3   OH245496   2.428   1.389  11.311  0.3114 -0.0618 -0.9563
 8002TIP3    H145497   2.513   1.402  11.354  1.3562 -0.1371 -2.8940
 8002TIP3    H245498   2.391   1.477  11.305 -0.8044 -0.2314  1.7717
 8003TIP3   OH245499   2.405   6.334   2.447  0.0396 -0.2468  0.1218
 8003TIP3    H145500   2.440   6.376   2.525 -1.8676 -2.6667  2.4817
 8003TIP3    H245501   2.477   6.337   2.384  1.0820  3.3703  1.2406
 8004TIP3   OH245502   0.567   3.558  13.534  0.3018  0.1112  0.3293
 8004TIP3    H145503   0.644   3.502  13.523  0.8084  1.0511 -1.3570
 8004TIP3    H245504   0.506   3.506  13.585  1.4829 -1.2401  0.4286
 8005TIP3   OH245505   3.001   4.936  14.661  0.0388  0.2040  0.4711
 8005TIP3    H145506   2.960   4.916  14.745 -0.4270  0.7532  0.3817
 8005TIP3    H245507   2.930   4.931  14.598  0.4921 -0.7519  0.0181
 8006TIP3   OH245508   3.715   3.537  14.319 -0.4720  0.4581 -0.2423
 8006TIP3    H145509   3.791   3.574  14.365 -0.6773 -0.7784  1.1547
 8006TIP3    H245510   3.667   3.614  14.289  0.8525  1.2772 -0.3608
 8007TIP3   OH245511   2.501   4.368  13.643 -0.0550 -0.0937  0.1479
 8007TIP3    H145512   2.421   4.400  13.601  1.7825 -0.0265 -3.8358
 8007TIP3    H245513   2.492   4.273  13.642 -0.9892 -0.0685  1.9567
 8008TIP3   OH245514   5.120   2.898   4.696 -0.5238 -0.2352 -0.5536
 8008TIP3    H145515   5.097   2.854   4.778 -0.5959  0.5401 -0.1437
 8008TIP3    H245516   5.154   2.829   4.640  3.4391 -0.2249  1.5184
 8009TIP3   OH245517   4.034   2.956  16.299  0.3186 -0.1516 -0.2392
 8009TIP3    H145518   3.954   2.915  16.332  0.1011  0.9005  0.6153
 8009TIP3    H245519   4.004   3.037  16.257  0.6713 -1.0827 -2.4335
 8010TIP3   OH245520   5.813   2.069  10.547 -1.2397  0.2603 -0.3403
 8010TIP3    H145521   5.742   2.011  10.519 -0.3384 -0.2882 -1.5871
 8010TIP3    H245522   5.809   2.142  10.485 -0.3007 -0.1107 -0.8508
 8011TIP3   OH245523   0.646   1.585   3.433 -0.1931 -0.2075 -0.1985
 8011TIP3    H145524   0.718   1.617   3.378 -0.6178  0.2523 -0.4965
 8011TIP3    H245525   0.672   1.610   3.522 -0.0811  0.1482 -0.3276
 8012TIP3   OH245526   1.338   4.751   5.664 -0.3465 -0.3464  0.6021
 8012TIP3    H145527   1.396   4.683   5.700  1.5656  0.8090 -0.1000
 8012TIP3    H245528   1.291   4.707   5.593 -0.9182 -1.5149  1.6690
 8013TIP3   OH245529   4.108   0.620   4.544  0.1942 -0.0589  0.5865
 8013TIP3    H145530   4.052   0.678   4.491  0.5472 -0.3406 -0.0986
 8013TIP3    H245531   4.170   0.679   4.586 -0.2440  0.1942  0.8819
 8014TIP3   OH245532   5.470   6.251  12.243 -0.3614 -0.0347  0.6791
 8014TIP3    H145533   5.514   6.329  12.210  0.8810 -0.2137  1.8074
 8014TIP3    H245534   5.540   6.187  12.254 -0.7813 -0.1846  3.0098
 8015TIP3   OH245535   0.977   6.041  16.918  0.2469  0.3860  0.2858
 8015TIP3    H145536   1.026   6.114  16.879 -0.0034  0.5076  0.1978
 8015TIP3    H245537   0.902   6.029  16.860 -0.9475  1.5374  1.5332
 8016TIP3   OH245538   0.946   2.173  11.503  0.7711 -0.5464  0.2843
 8016TIP3    H145539   0.854   2.160  11.481  0.2586  0.7589  1.5039
 8016TIP3    H245540   0.990   2.095  11.470 -0.8623 -1.4705  0.1969
 8017TIP3   OH245541   1.740   1.884  11.536  0.3312 -0.0511 -0.1562
 8017TIP3    H145542   1.757   1.871  11.442 -0.8728  1.3523 -0.6068
 8017TIP3    H245543   1.814   1.842  11.579  0.3473 -1.7184 -1.6792
 8018TIP3   OH245544   0.454   2.119  11.599  0.2516  0.0093  0.6019
 8018TIP3    H145545   0.375   2.067  11.614 -0.5355  0.8255 -0.5119
 8018TIP3    H245546   0.422   2.197  11.554  1.4725  1.2198  1.7619
 8019TIP3   OH245547   5.803   2.870   5.407 -0.5056  0.2708 -0.0984
 8019TIP3    H145548   5.777   2.807   5.474 -1.9029  1.0109  0.1023
 8019TIP3    H245549   5.790   2.825   5.324 -0.3278 -0.0997  0.0709
 8020TIP3   OH245550   6.630   3.782  15.414  0.3927  0.0345 -0.1235
 8020TIP3    H145551   6.593   3.745  15.494  1.0068  2.1595  1.2398
 8020TIP3    H245552   6.601   3.723  15.344 -1.1572 -1.2424  1.5027
 8021TIP3   OH245553   4.629   2.837  15.722  0.1772 -0.4412  0.2747
 8021TIP3    H145554   4.689   2.763  15.729  1.6334  0.7195  0.5789
 8021TIP3    H245555   4.630   2.878  15.809 -1.3161 -0.5730  0.3774
 8022TIP3   OH245556   0.867   6.510  16.824 -0.4530  0.1716 -0.2223
 8022TIP3    H145557   0.861   6.437  16.885  1.2014 -0.1939 -0.4686
 8022TIP3    H245558   0.928   6.571  16.864 -0.8548  0.8463 -0.6100
 8023TIP3   OH245559   3.563   0.250  15.761 -0.7686  0.2141  0.1843
 8023TIP3    H145560   3.514   0.178  15.722 -0.3215  0.1137 -0.2030
 8023TIP3    H245561   3.524   0.329  15.723 -0.7332  0.1418 -0.0031
 8024TIP3   OH245562   5.762   1.127  13.118 -0.1126 -0.2859 -0.3062
 8024TIP3    H145563   5.702   1.183  13.168 -0.4501 -1.5214  0.7410
 8024TIP3    H245564   5.835   1.184  13.095 -1.3617  1.0850 -1.0220
 8025TIP3   OH245565   4.348   6.255  12.545  0.0666  0.3800 -0.0536
 8025TIP3    H145566   4.313   6.178  12.500  1.9634 -0.8132  0.4211
 8025TIP3    H245567   4.386   6.220  12.626  0.8140  1.8449  0.2608
 8026TIP3   OH245568   0.575   0.891  11.009  0.5871  0.2219  0.4985
 8026TIP3    H145569   0.635   0.825  10.974 -1.1475 -1.2446  0.1187
 8026TIP3    H245570   0.624   0.933  11.079  1.6586 -1.7595  1.0314
 8027TIP3   OH245571   5.157   0.316   4.844  0.3671 -0.5057 -0.3074
 8027TIP3    H145572   5.170   0.336   4.936 -0.8396 -0.4140 -0.1434
 8027TIP3    H245573   5.074   0.358   4.822  0.1841 -1.3053 -1.1953
 8028TIP3   OH245574   1.055   0.627   1.379  0.5371 -0.0707  0.5079
 8028TIP3    H145575   0.960   0.613   1.386  0.1661  1.5332 -0.7154
 8028TIP3    H245576   1.080   0.584   1.298  0.6942  0.2243  0.3987
 8029TIP3   OH245577   4.051   0.146   2.969  0.1628  0.2582  0.0764
 8029TIP3    H145578   4.123   0.207   2.984  2.6639 -2.5209  0.1871
 8029TIP3    H245579   4.084   0.062   2.998 -1.8703 -1.8421 -3.0543
 8030TIP3   OH245580   3.332   6.685   2.331 -0.1767 -0.0152 -0.1705
 8030TIP3    H145581   3.341   6.647   2.418 -1.4037  0.5247  0.2106
 8030TIP3    H245582   3.282   6.765   2.344  0.5948  0.6772 -1.2320
 8031TIP3   OH245583   5.828   5.467  16.279  0.1894 -0.3539  0.3243
 8031TIP3    H145584   5.849   5.392  16.224  0.3591 -0.0098 -0.0947
 8031TIP3    H245585   5.829   5.434  16.368 -1.4022 -1.2403  0.0507
 8032TIP3   OH245586   6.368   2.364  13.357  0.3614  0.2730 -0.0831
 8032TIP3    H145587   6.306   2.301  13.393 -0.1333  0.9724  0.3136
 8032TIP3    H245588   6.360   2.354  13.262  1.2849 -1.2048 -0.0296
 8033TIP3   OH245589   1.912   2.458  10.480  0.0074  0.1681  0.0562
 8033TIP3    H145590   1.862   2.451  10.561 -1.5097  1.9055 -0.6465
 8033TIP3    H245591   1.956   2.543  10.486  0.8673 -0.2357 -0.4162
 8034TIP3   OH245592   5.485   2.522   3.992  0.4908  0.0987  0.5930
 8034TIP3    H145593   5.495   2.503   4.085  1.8291  1.4410  0.7656
 8034TIP3    H245594   5.561   2.481   3.951  1.0656  1.2896  0.4121
 8035TIP3   OH245595   6.128   5.573  16.526 -0.0104  0.1033 -0.7669
 8035TIP3    H145596   6.134   5.667  16.514 -0.7699  0.3869  0.8433
 8035TIP3    H245597   6.152   5.536  16.440  1.1629  1.7034 -1.1668
 8036TIP3   OH245598   2.726   5.928   3.153  0.1015 -0.1991  0.7012
 8036TIP3    H145599   2.749   5.842   3.119  0.0158  1.0274 -2.8732
 8036TIP3    H245600   2.666   5.910   3.225 -1.5336 -3.1459 -1.2053
 8037TIP3   OH245601   2.106   3.877   1.567 -0.4768  0.6545  0.4508
 8037TIP3    H145602   2.184   3.916   1.527  0.0742  1.7912  2.5308
 8037TIP3    H245603   2.035   3.898   1.506  0.7438 -0.1149 -1.3208
 8038TIP3   OH245604   3.289   2.408   0.056 -0.5220 -0.0203 -0.0168
 8038TIP3    H145605   3.332   2.343   0.001 -2.5964 -0.2627 -1.4919
 8038TIP3    H245606   3.216   2.360   0.096 -0.6535  0.8279  0.7846
 8039TIP3   OH245607   2.239   2.022   1.794  0.4451 -0.6757  0.3326
 8039TIP3    H145608   2.198   2.107   1.776  0.9926 -0.3959  0.3775
 8039TIP3    H245609   2.215   2.003   1.884  3.0759  1.0825  1.5484
 8040TIP3   OH245610   2.312   6.798   3.345  0.4245 -0.0839  0.2272
 8040TIP3    H145611   2.277   6.856   3.413 -0.3298  2.4542 -2.1090
 8040TIP3    H245612   2.237   6.776   3.291  1.0489 -1.7921 -0.0184
 8041TIP3   OH245613   2.321   2.819   3.372 -0.5189  0.7523  0.1952
 8041TIP3    H145614   2.269   2.845   3.296 -0.3311  1.1486  0.2003
 8041TIP3    H245615   2.345   2.902   3.414 -0.1450  0.5594  0.3676
 8042TIP3   OH245616   3.167   0.640   2.498  0.2123 -0.5403  0.3091
 8042TIP3    H145617   3.133   0.553   2.476 -2.7951  0.4781  0.4487
 8042TIP3    H245618   3.107   0.672   2.565  1.0645  1.7582  0.0511
 8043TIP3   OH245619   3.875   5.532   4.437 -0.2586  0.1466 -0.3473
 8043TIP3    H145620   3.841   5.455   4.391 -1.1978 -1.2097  2.3894
 8043TIP3    H245621   3.937   5.497   4.500 -1.3528  1.4870  1.5701
 8044TIP3   OH245622   0.676   5.235  14.653  0.4553 -0.1729  0.5003
 8044TIP3    H145623   0.580   5.228  14.658  0.4694 -0.5347  0.2411
 8044TIP3    H245624   0.708   5.152  14.688  0.6496 -0.5302 -0.4979
 8045TIP3   OH245625   5.264   6.764  15.893 -0.2303  0.1570  0.0913
 8045TIP3    H145626   5.234   6.762  15.802  0.5109 -1.2358 -0.1479
 8045TIP3    H245627   5.325   6.839  15.896  1.4002 -1.0308 -1.1444
 8046TIP3   OH245628   3.143   0.649  14.025 -0.0603  0.4528 -0.3854
 8046TIP3    H145629   3.192   0.567  14.018 -1.0975 -0.1464 -0.7850
 8046TIP3    H245630   3.210   0.716  14.040  0.9208 -0.2963 -1.2929
 8047TIP3   OH245631   4.782   1.030   1.554 -0.6829  0.0107  0.6004
 8047TIP3    H145632   4.768   0.941   1.587  2.3202 -0.1501  1.7136
 8047TIP3    H245633   4.783   1.085   1.632 -0.4451  0.7027  0.1217
 8048TIP3   OH245634   1.520   1.118   0.121 -0.1161 -0.2669 -0.0735
 8048TIP3    H145635   1.550   1.138   0.209  0.9997 -0.1331 -0.4774
 8048TIP3    H245636   1.425   1.131   0.125 -0.1389 -0.7192  1.2206
 8049TIP3   OH245637   2.566   3.180   2.747 -0.0481 -0.1984  0.6271
 8049TIP3    H145638   2.571   3.143   2.659  0.0592  1.2521  0.0001
 8049TIP3    H245639   2.548   3.272   2.733 -0.1344  0.0348  2.1425
 8050TIP3   OH245640   0.048   4.876  16.781  0.3089 -0.0676  0.0337
 8050TIP3    H145641  -0.010   4.875  16.705  0.2843  0.9417  0.0135
 8050TIP3    H245642   0.080   4.966  16.784  0.9663 -0.3208  0.7271
 8051TIP3   OH245643   4.514   1.362  11.250  0.5239  0.1896  0.4551
 8051TIP3    H145644   4.456   1.318  11.313  1.1244 -0.7771  0.3402
 8051TIP3    H245645   4.531   1.296  11.183 -2.5302  2.0092 -2.4473
 8052TIP3   OH245646   6.308   5.020   5.265  0.2523 -0.5738  0.5799
 8052TIP3    H145647   6.293   5.015   5.170 -1.5137 -0.1652  0.8077
 8052TIP3    H245648   6.284   5.109   5.288  0.8405 -0.6185  1.4089
 8053TIP3   OH245649   3.492   1.252  12.835 -0.6490 -0.0873  0.2054
 8053TIP3    H145650   3.430   1.290  12.897 -0.1560 -1.3165  1.5348
 8053TIP3    H245651   3.544   1.326  12.804  0.0172  0.4589  2.3754
 8054TIP3   OH245652   6.193   0.598  10.191 -0.2717 -0.2519 -0.0365
 8054TIP3    H145653   6.143   0.668  10.233 -1.5584 -1.0390 -0.2002
 8054TIP3    H245654   6.196   0.624  10.098  0.5843  0.3338  0.1429
 8055TIP3   OH245655   4.358   1.734   2.740 -0.6080  0.2864  0.1860
 8055TIP3    H145656   4.392   1.790   2.670 -0.8279 -0.3438 -0.4409
 8055TIP3    H245657   4.421   1.663   2.747 -0.5225  0.4139  0.7208
 8056TIP3   OH245658   6.599   6.820  16.734 -0.6626 -0.0685 -0.1303
 8056TIP3    H145659   6.510   6.827  16.701 -0.5504 -0.4811 -0.5253
 8056TIP3    H245660   6.592   6.766  16.813 -0.6272 -0.9245 -0.7104
 8057TIP3   OH245661   6.291   6.492  11.863  0.3106  0.3395  0.1993
 8057TIP3    H145662   6.282   6.480  11.957 -0.4294 -1.5934 -0.0790
 8057TIP3    H245663   6.266   6.408  11.825 -1.3857  1.6514 -1.8271
 8058TIP3   OH245664   2.896   4.396   1.374 -0.3044  0.1600 -0.2022
 8058TIP3    H145665   2.906   4.488   1.398  0.3240  0.1142 -0.2760
 8058TIP3    H245666   2.942   4.387   1.291  2.3682 -0.8527  1.2616
 8059TIP3   OH245667   0.344   6.159   3.753 -0.2172  0.2109 -0.5757
 8059TIP3    H145668   0.399   6.105   3.697  3.4062  0.4368  2.4230
 8059TIP3    H245669   0.385   6.246   3.751 -1.4467  0.8628  0.5525
 8060TIP3   OH245670   1.122   5.795   0.939 -0.1204  0.4998  0.8000
 8060TIP3    H145671   1.204   5.816   0.983 -0.6355 -0.3892  2.2647
 8060TIP3    H245672   1.142   5.802   0.846  0.8437  3.0416  1.1369
 8061TIP3   OH245673   5.720   5.279  14.893  0.4433 -0.3369 -0.3466
 8061TIP3    H145674   5.756   5.359  14.930 -2.9920  1.2388 -0.0487
 8061TIP3    H245675   5.704   5.223  14.969 -2.5869  1.1666  0.2555
 8062TIP3   OH245676   4.287   3.645   1.858  0.0135  0.2808 -0.4885
 8062TIP3    H145677   4.256   3.577   1.798 -0.2563 -1.7872  1.8301
 8062TIP3    H245678   4.208   3.691   1.886 -0.2764 -0.8227  0.5980
 8063TIP3   OH245679   5.572   5.464  16.094  0.6672 -0.0332  0.4695
 8063TIP3    H145680   5.652   5.515  16.085 -0.7454  2.2388 -0.0372
 8063TIP3    H245681   5.579   5.395  16.028  0.9482  1.9327 -1.6579
 8064TIP3   OH245682   1.630   2.640   5.092 -0.0934  0.5556 -0.3686
 8064TIP3    H145683   1.707   2.636   5.035  1.0213 -3.3020  1.0922
 8064TIP3    H245684   1.567   2.692   5.043  2.9796  2.9307 -2.1531
 8065TIP3   OH245685   2.623   2.262  10.552 -0.7305  0.5035  0.4983
 8065TIP3    H145686   2.547   2.243  10.497  0.0526  1.1037 -0.8556
 8065TIP3    H245687   2.644   2.353  10.533  1.2682 -0.0890 -0.3970
 8066TIP3   OH245688   3.482   6.170   2.645 -0.0508  0.1762  0.2362
 8066TIP3    H145689   3.540   6.149   2.718  3.7151  1.9617 -1.9150
 8066TIP3    H245690   3.498   6.101   2.581 -2.1903 -0.5631  0.4223
 8067TIP3   OH245691   0.390   4.140   4.282  0.5274 -0.6303 -0.3195
 8067TIP3    H145692   0.393   4.221   4.333 -0.5145 -1.1564  0.6210
 8067TIP3    H245693   0.480   4.108   4.283  0.8101  0.1468 -0.0965
 8068TIP3   OH245694   0.670   2.958  11.039  0.4154  0.7088 -0.0195
 8068TIP3    H145695   0.720   2.883  11.070  0.4059  0.1516 -1.2885
 8068TIP3    H245696   0.656   3.012  11.117  0.9872 -0.2748  0.7820
 8069TIP3   OH245697   0.084   6.551  14.345 -0.7104  0.8975  0.0382
 8069TIP3    H145698   0.077   6.630  14.400 -2.0407  0.1784  0.9810
 8069TIP3    H245699   0.042   6.576  14.263 -0.4764  1.3953  0.0669
 8070TIP3   OH245700   3.023   5.018   5.096 -0.4314 -0.3485  0.0830
 8070TIP3    H145701   3.074   4.978   5.026 -1.3869 -0.2387 -0.7098
 8070TIP3    H245702   3.088   5.057   5.154  0.4119 -1.0642 -0.3577
 8071TIP3   OH245703   4.503   5.499  14.147  0.6117  0.1289 -0.4423
 8071TIP3    H145704   4.586   5.497  14.098  1.9621  0.1624  1.6999
 8071TIP3    H245705   4.484   5.592  14.158  0.3430  0.1217 -0.8228
 8072TIP3   OH245706   0.816   6.029   0.597 -0.3417  0.0308 -0.2522
 8072TIP3    H145707   0.820   5.968   0.670  0.1409 -0.7779 -0.9334
 8072TIP3    H245708   0.894   6.084   0.608 -0.8705  0.6597  0.4597
 8073TIP3   OH245709   2.543   5.400   4.249  0.0333  0.7391  0.4567
 8073TIP3    H145710   2.589   5.371   4.328 -0.2499  0.3149  0.4731
 8073TIP3    H245711   2.518   5.490   4.268 -0.9312  0.3230  1.2876
 8074TIP3   OH245712   4.432   6.208  15.177  0.0240 -0.3211 -0.2870
 8074TIP3    H145713   4.369   6.146  15.214 -0.0604  0.2241  0.5065
 8074TIP3    H245714   4.380   6.285  15.153  0.0735 -0.6728 -1.6091
 8075TIP3   OH245715   1.846   4.120  13.406  0.1421 -0.0251  0.2889
 8075TIP3    H145716   1.916   4.152  13.462  0.7202  0.5965 -0.7595
 8075TIP3    H245717   1.836   4.028  13.430  2.7639 -0.7145 -0.9733
 8076TIP3   OH245718   5.496   2.963   2.393 -0.1548 -0.1051  0.1517
 8076TIP3    H145719   5.575   3.011   2.367 -0.5178 -0.2167 -1.2144
 8076TIP3    H245720   5.426   3.028   2.388 -0.8240 -0.8850 -2.6656
 8077TIP3   OH245721   0.822   5.463  11.210  0.3778  0.8293  0.1489
 8077TIP3    H145722   0.754   5.518  11.249 -0.1745  1.2908 -1.4205
 8077TIP3    H245723   0.829   5.493  11.120 -1.2184 -2.8002 -1.3807
 8078TIP3   OH245724   4.329   6.551  11.167  0.4779 -0.3602 -0.1758
 8078TIP3    H145725   4.341   6.628  11.112  0.1746  1.3146  1.9613
 8078TIP3    H245726   4.245   6.514  11.140  0.0015  0.8299 -0.3444
 8079TIP3   OH245727   3.278   5.829   5.215  0.0220  0.4591  0.4280
 8079TIP3    H145728   3.253   5.921   5.206 -0.6989  0.1729 -0.5726
 8079TIP3    H245729   3.324   5.808   5.134 -2.4713 -0.8619 -0.7493
 8080TIP3   OH245730   1.868   5.552  11.557 -0.1591 -0.9788 -0.1775
 8080TIP3    H145731   1.930   5.621  11.578 -0.9372 -0.0945 -0.6725
 8080TIP3    H245732   1.917   5.491  11.502  0.7910 -1.3076  1.0099
 8081TIP3   OH245733   0.754   4.160  15.695  0.1055 -0.5899 -0.5428
 8081TIP3    H145734   0.773   4.253  15.702 -1.1424 -0.2344 -1.4393
 8081TIP3    H245735   0.767   4.139  15.603 -1.2658 -0.8721 -0.7054
 8082TIP3   OH245736   4.226   3.691  13.019  0.0130  0.1184 -0.0299
 8082TIP3    H145737   4.225   3.610  13.071 -0.1988 -0.6486 -1.1990
 8082TIP3    H245738   4.211   3.662  12.929  3.3683  1.0380 -1.0333
 8083TIP3   OH245739   5.554   1.291   5.709  0.2219  0.5834 -0.4338
 8083TIP3    H145740   5.570   1.204   5.671  2.3477  0.1081  1.3958
 8083TIP3    H245741   5.557   1.351   5.634  4.7038 -0.2394 -1.1623
 8084TIP3   OH245742   4.170   4.657   0.153  0.4803 -0.3217 -0.2829
 8084TIP3    H145743   4.211   4.713   0.086  1.1760 -0.8286 -0.2949
 8084TIP3    H245744   4.243   4.607   0.189 -0.1256 -1.1604 -0.2101
 8085TIP3   OH245745   4.731   4.274  13.606 -0.3127  0.2681 -0.5627
 8085TIP3    H145746   4.636   4.261  13.595 -0.2171 -0.2895 -0.7280
 8085TIP3    H245747   4.770   4.226  13.533  0.0985  0.5260 -0.5133
 8086TIP3   OH245748   3.566   3.589   3.770  0.7012  0.2518  0.1858
 8086TIP3    H145749   3.569   3.647   3.846 -1.1930 -0.5700  0.9634
 8086TIP3    H245750   3.562   3.647   3.695 -0.0113  1.1408  0.8840
 8087TIP3   OH245751   0.879   2.014  16.436 -0.1444  0.2427  0.2496
 8087TIP3    H145752   0.951   2.025  16.497  0.9937 -0.7242 -0.8745
 8087TIP3    H245753   0.817   1.957  16.482  0.7355 -0.5557  0.4631
 8088TIP3   OH245754   3.297   4.413   5.088 -0.0386 -0.0898  0.1933
 8088TIP3    H145755   3.324   4.330   5.125  2.4000  1.5604  2.5158
 8088TIP3    H245756   3.348   4.422   5.008 -0.8278 -1.0569 -0.4421
 8089TIP3   OH245757   6.479   2.938  17.162 -0.0218 -0.0191 -0.0353
 8089TIP3    H145758   6.522   2.853  17.163 -0.0355 -0.0303 -0.3434
 8089TIP3    H245759   6.421   2.935  17.086  1.0235  0.7794 -0.9058
 8090TIP3   OH245760   2.595   6.664   4.304 -0.0159  0.0477  0.1184
 8090TIP3    H145761   2.602   6.697   4.394  0.0279 -0.3465  0.2617
 8090TIP3    H245762   2.666   6.707   4.257  1.4087 -1.4467  0.8006
 8091TIP3   OH245763   1.900   1.723   5.930  0.0461 -0.2922 -0.5160
 8091TIP3    H145764   1.806   1.739   5.939  0.1433  0.3584 -0.5844
 8091TIP3    H245765   1.935   1.736   6.018  0.1454  0.0123 -0.5982
 8092TIP3   OH245766   4.697   2.091  14.284  0.4885 -0.5783  0.1191
 8092TIP3    H145767   4.741   2.156  14.229 -1.4462  0.8004  0.0942
 8092TIP3    H245768   4.615   2.073  14.239  0.3995 -2.0476  0.8311
 8093TIP3   OH245769   4.347   6.759   5.291  0.6681  0.3012 -0.8939
 8093TIP3    H145770   4.266   6.745   5.339 -0.2996 -0.1677 -2.5897
 8093TIP3    H245771   4.387   6.836   5.333  0.1153 -0.3456  0.8974
 8094TIP3   OH245772   0.079   0.955  13.413 -0.3933 -0.0777 -0.5229
 8094TIP3    H145773   0.130   0.876  13.433 -0.6043  0.1772  1.1579
 8094TIP3    H245774   0.135   1.028  13.442 -1.0495  0.2777 -0.1179
 8095TIP3   OH245775   1.816   2.973  16.112 -0.0026 -0.2127  0.4196
 8095TIP3    H145776   1.908   2.995  16.100 -0.1960  0.2290 -0.3193
 8095TIP3    H245777   1.779   3.050  16.156 -0.2961  0.1981 -0.5198
 8096TIP3   OH245778   5.134   6.394  10.864  0.3899  0.8496 -0.0664
 8096TIP3    H145779   5.114   6.442  10.783  1.5871  2.4418  0.5340
 8096TIP3    H245780   5.214   6.434  10.897  1.8472 -1.9947  0.1970
 8097TIP3   OH245781   5.896   3.304   0.717  0.1180 -0.0814 -0.3141
 8097TIP3    H145782   5.859   3.239   0.776 -0.3797 -0.6043 -1.1875
 8097TIP3    H245783   5.897   3.261   0.632  0.6287  0.7388 -0.7322
 8098TIP3   OH245784   5.580   4.343   4.847  0.2150  0.4911 -0.2306
 8098TIP3    H145785   5.662   4.317   4.890  0.2580  0.9824 -0.0119
 8098TIP3    H245786   5.598   4.334   4.753 -0.0514 -1.1287 -0.1658
 8099TIP3   OH245787   3.120   2.406  11.622  0.1378  0.0270  0.0873
 8099TIP3    H145788   3.116   2.502  11.616  1.4536  0.0334 -1.1685
 8099TIP3    H245789   3.207   2.384  11.590 -0.4291 -1.6516 -0.3700
 8100TIP3   OH245790   5.173   3.190  11.007 -0.8932  0.0387 -0.8248
 8100TIP3    H145791   5.116   3.128  10.961 -1.7086 -0.1361  0.3760
 8100TIP3    H245792   5.114   3.239  11.064  0.2337 -0.7090  1.0904
 8101TIP3   OH245793   4.737   2.917   5.534 -0.0824 -0.5728 -0.4588
 8101TIP3    H145794   4.680   2.860   5.587  0.9192 -0.2628  0.9946
 8101TIP3    H245795   4.711   3.006   5.559 -0.6156 -0.3791 -1.6264
 8102TIP3   OH245796   4.591   0.092   0.596  0.1939 -0.1206  0.0375
 8102TIP3    H145797   4.653   0.130   0.658 -0.5089  0.5094  0.3771
 8102TIP3    H245798   4.544   0.025   0.646 -1.4561  1.4464  0.6912
 8103TIP3   OH245799   3.727   4.370   4.621 -0.5654  0.1564 -0.3849
 8103TIP3    H145800   3.642   4.335   4.647 -1.0060 -0.1892 -2.1863
 8103TIP3    H245801   3.707   4.452   4.577  0.0679  0.3049 -0.3989
 8104TIP3   OH245802   0.801   1.608  10.878 -0.0126  0.4612 -0.1072
 8104TIP3    H145803   0.883   1.615  10.927 -1.1626 -0.1562  2.0248
 8104TIP3    H245804   0.739   1.662  10.927 -0.9254  0.8343 -1.6282
 8105TIP3   OH245805   5.979   2.606  12.203  0.0816 -0.4705 -0.1924
 8105TIP3    H145806   6.006   2.524  12.162  1.1352  0.9793 -2.5970
 8105TIP3    H245807   6.051   2.629  12.262  0.3450 -0.7050 -0.4209
 8106TIP3   OH245808   5.406   3.488   0.720  0.1489  0.2341  0.6239
 8106TIP3    H145809   5.340   3.423   0.745 -0.0033  0.1759  0.0736
 8106TIP3    H245810   5.426   3.534   0.802 -1.0698  0.7228  0.6668
 8107TIP3   OH245811   3.149   2.747   4.399 -0.0259  0.3262 -0.1804
 8107TIP3    H145812   3.219   2.690   4.431  0.2509  1.1755  0.7641
 8107TIP3    H245813   3.111   2.786   4.478 -1.9160 -0.4777 -0.6235
 8108TIP3   OH245814   5.523   3.539  12.682  0.5325  0.0912  0.3911
 8108TIP3    H145815   5.466   3.480  12.732 -0.9236  0.8232 -0.3314
 8108TIP3    H245816   5.608   3.495  12.681 -0.2792 -1.5708  0.6101
 8109TIP3   OH245817   4.199   5.458   0.911 -0.0175  0.5924  0.2723
 8109TIP3    H145818   4.228   5.406   0.986  2.7191 -0.4183 -1.3327
 8109TIP3    H245819   4.259   5.532   0.909  0.5508  0.1272 -1.3741
 8110TIP3   OH245820   4.580   0.829   6.360  0.1751  0.3581  0.1532
 8110TIP3    H145821   4.547   0.775   6.432  0.5071  1.0726  0.8620
 8110TIP3    H245822   4.652   0.778   6.323 -0.5294 -0.3862 -0.2228
 8111TIP3   OH245823   3.804   0.728   2.023 -0.0743  0.0643  0.2681
 8111TIP3    H145824   3.740   0.688   2.082 -0.5582  1.1366  0.5029
 8111TIP3    H245825   3.769   0.711   1.936 -0.9846  1.1017  0.4131
 8112TIP3   OH245826   2.813   5.135  11.529  0.0475 -0.2874 -0.2215
 8112TIP3    H145827   2.860   5.064  11.485 -0.1765  0.0116 -0.9563
 8112TIP3    H245828   2.727   5.136  11.488 -0.6921 -0.9843  1.2884
 8113TIP3   OH245829   3.575   1.970  10.622 -0.0072  0.1362 -0.4719
 8113TIP3    H145830   3.538   1.958  10.710 -0.3184 -1.2020 -0.7628
 8113TIP3    H245831   3.499   1.977  10.565  0.1626 -1.0564 -0.8741
 8114TIP3   OH245832   6.685   0.510   5.302 -1.0258 -0.5040 -0.0864
 8114TIP3    H145833   6.744   0.565   5.251 -0.6217 -0.2807  0.6132
 8114TIP3    H245834   6.601   0.515   5.255 -0.5169 -0.7832 -1.0515
 8115TIP3   OH245835   5.942   2.186  13.299 -0.4148 -0.4762 -0.3717
 8115TIP3    H145836   5.891   2.121  13.250 -0.7063 -0.5409  0.0078
 8115TIP3    H245837   6.032   2.172  13.271 -0.7968  0.8544 -2.4391
 8116TIP3   OH245838   6.611   3.078  15.652 -0.4687  0.1447  0.3115
 8116TIP3    H145839   6.517   3.071  15.664 -0.3530 -1.2927  0.5980
 8116TIP3    H245840   6.626   3.054  15.560 -0.2913 -0.9625  0.6086
 8117TIP3   OH245841   0.173   0.971   2.780  0.6621  0.3419  0.4771
 8117TIP3    H145842   0.183   0.983   2.685  2.3327  2.0015  0.8159
 8117TIP3    H245843   0.239   1.028   2.819  0.3302 -0.6578  2.6573
 8118TIP3   OH245844   2.317   3.828  16.527 -0.7659 -0.1171 -0.7084
 8118TIP3    H145845   2.283   3.823  16.617 -0.3802  2.8683 -0.2953
 8118TIP3    H245846   2.238   3.825  16.472 -1.1907  0.1450 -0.1274
 8119TIP3   OH245847   2.844   2.301  14.942  0.1565 -0.3433  0.3804
 8119TIP3    H145848   2.908   2.319  14.873 -1.2353  2.2143 -0.3719
 8119TIP3    H245849   2.775   2.251  14.897 -0.5359  0.9353 -0.0306
 8120TIP3   OH245850   1.231   4.645  11.451 -0.4858 -0.3744  0.0968
 8120TIP3    H145851   1.150   4.696  11.445  0.3171  0.8278 -1.3363
 8120TIP3    H245852   1.202   4.554  11.446 -1.6839  0.0541 -2.2839
 8121TIP3   OH245853   2.927   2.815   0.905 -0.4371  0.3165 -0.1153
 8121TIP3    H145854   3.008   2.863   0.922  0.2416  0.0739 -2.3175
 8121TIP3    H245855   2.906   2.773   0.988  1.3483  0.9046  0.6811
 8122TIP3   OH245856   2.391   5.038  12.404 -0.3297 -0.0471 -0.5326
 8122TIP3    H145857   2.450   5.079  12.341  1.2535  1.3262  1.6638
 8122TIP3    H245858   2.386   5.101  12.476  2.5488 -3.6034  3.2742
 8123TIP3   OH245859   1.803   2.052  17.096  0.1556 -0.1433 -0.2299
 8123TIP3    H145860   1.848   1.998  17.160  0.0750  0.1520  0.0796
 8123TIP3    H245861   1.809   2.004  17.014  0.9735 -0.1330 -0.1765
 8124TIP3   OH245862   0.670   3.839   0.262 -0.0095 -0.5616 -0.0142
 8124TIP3    H145863   0.597   3.834   0.324  0.7668  0.3024  1.0142
 8124TIP3    H245864   0.640   3.898   0.193  0.0290  0.4929  0.8592
 8125TIP3   OH245865   6.504   6.664  12.106 -0.5533  0.1645  0.8743
 8125TIP3    H145866   6.494   6.609  12.028 -0.5567  1.2884  0.0508
 8125TIP3    H245867   6.518   6.602  12.178 -1.5979 -0.9452  0.1577
 8126TIP3   OH245868   0.385   1.881  11.417  0.4831 -0.1298 -0.4824
 8126TIP3    H145869   0.325   1.848  11.484  1.2655 -1.7497 -0.5292
 8126TIP3    H245870   0.472   1.876  11.457  0.7260  1.1951 -0.7871
 8127TIP3   OH245871   5.853   5.276   1.996  0.2180 -0.1791 -0.1116
 8127TIP3    H145872   5.819   5.193   2.029  0.2469  0.1348  0.7567
 8127TIP3    H245873   5.791   5.303   1.929 -0.5304 -0.2573  0.5315
 8128TIP3   OH245874   5.568   6.502   3.154 -0.5895  0.3075  0.3981
 8128TIP3    H145875   5.573   6.408   3.137  0.8785  0.3859  0.2642
 8128TIP3    H245876   5.516   6.510   3.234  1.1985 -0.8100  1.7388
 8129TIP3   OH245877   1.915   3.096  11.316  0.0425 -0.1502  0.2351
 8129TIP3    H145878   1.930   3.032  11.386  0.1232 -0.4193 -0.0237
 8129TIP3    H245879   1.824   3.123  11.328 -0.0835 -0.5365  0.1719
 8130TIP3   OH245880   3.366   0.651  12.716  0.3409  0.4328  0.5013
 8130TIP3    H145881   3.431   0.623  12.780  1.7696 -0.8987 -1.4198
 8130TIP3    H245882   3.403   0.731  12.678  0.5671  0.0360 -0.1340
 8131TIP3   OH245883   0.280   3.553   3.662  0.0938 -0.1773 -0.3297
 8131TIP3    H145884   0.204   3.561   3.604  0.9390 -2.1552 -1.8122
 8131TIP3    H245885   0.245   3.574   3.749 -1.8139  0.3355 -1.1580
 8132TIP3   OH245886   5.198   5.605  14.713  0.1504 -0.1219 -0.2823
 8132TIP3    H145887   5.160   5.687  14.681 -1.4471 -0.7004  0.0621
 8132TIP3    H245888   5.154   5.588  14.796  1.3078 -0.7535  0.2407
 8133TIP3   OH245889   0.681   6.619  12.814 -0.1831 -0.2572  0.6877
 8133TIP3    H145890   0.589   6.638  12.796 -1.0662 -4.9087 -0.8642
 8133TIP3    H245891   0.728   6.655  12.739 -0.8829  0.6060  0.6360
 8134TIP3   OH245892   2.194   2.677   4.222  0.4257 -0.3851  0.0393
 8134TIP3    H145893   2.210   2.707   4.132  0.2730  1.2638  0.5357
 8134TIP3    H245894   2.273   2.628   4.244  0.0374 -1.7105 -1.3309
 8135TIP3   OH245895   1.690   1.074  13.345  0.1030 -0.1445  0.1316
 8135TIP3    H145896   1.744   1.092  13.268  1.1244 -0.8917  0.6488
 8135TIP3    H245897   1.660   1.160  13.374 -0.4621  0.1377 -1.2015
 8136TIP3   OH245898   4.054   1.857   0.100 -0.6740 -0.0176 -0.1144
 8136TIP3    H145899   3.995   1.804   0.153  1.2500 -0.6562  1.5264
 8136TIP3    H245900   4.128   1.874   0.158  0.6145  0.9870 -1.9781
 8137TIP3   OH245901   2.378   6.050  15.440 -0.4444 -0.2314 -0.1366
 8137TIP3    H145902   2.350   5.961  15.460 -2.0588  0.1870 -0.3747
 8137TIP3    H245903   2.310   6.106  15.476 -0.5123  0.8018 -1.7345
 8138TIP3   OH245904   3.640   0.639  14.062  0.3159  0.2189 -0.6824
 8138TIP3    H145905   3.646   0.543  14.059  1.6478  0.1090  2.3470
 8138TIP3    H245906   3.547   0.656  14.080  0.2607 -0.5680 -0.1531
 8139TIP3   OH245907   0.889   3.558   3.869  0.4352  0.2625 -0.1312
 8139TIP3    H145908   0.882   3.653   3.862 -1.5574  0.1750 -0.0325
 8139TIP3    H245909   0.923   3.531   3.784 -3.0433  0.8239 -1.9022
 8140TIP3   OH245910   1.123   1.428  12.567 -0.3017  0.4328  0.1986
 8140TIP3    H145911   1.060   1.361  12.594 -0.6591  1.1722  1.2703
 8140TIP3    H245912   1.082   1.471  12.492 -0.2243 -0.3084 -0.2772
 8141TIP3   OH245913   4.867   3.913   5.573 -0.1292 -0.5631 -0.2758
 8141TIP3    H145914   4.832   3.864   5.499 -1.0331  2.1441 -1.7435
 8141TIP3    H245915   4.961   3.922   5.554 -0.2742 -0.2748 -0.8607
 8142TIP3   OH245916   0.209   1.960  15.553 -0.1309  0.2943  0.4882
 8142TIP3    H145917   0.200   1.969  15.648  1.2293 -0.5794  0.7359
 8142TIP3    H245918   0.151   1.887  15.531 -1.3755  1.2640  0.4309
 8143TIP3   OH245919   5.605   5.262   2.444 -0.4586  0.0532 -0.5370
 8143TIP3    H145920   5.691   5.278   2.483 -0.5595 -2.3726  0.8683
 8143TIP3    H245921   5.610   5.303   2.358  1.8251  0.6336 -0.1973
 8144TIP3   OH245922   1.449   0.343   6.158  0.3688  0.0196  0.8082
 8144TIP3    H145923   1.533   0.326   6.200  0.3427 -2.2444  0.0969
 8144TIP3    H245924   1.456   0.301   6.072  0.1375  3.7908 -1.2749
 8145TIP3   OH245925   3.760   2.936   5.005 -0.5018  0.0230 -0.4144
 8145TIP3    H145926   3.843   2.904   4.968  0.4794  0.4124  1.3304
 8145TIP3    H245927   3.696   2.921   4.936  1.0761  0.0301 -1.9680
 8146TIP3   OH245928   3.188   2.035  16.907  0.1780  0.2812 -0.0480
 8146TIP3    H145929   3.149   2.123  16.903 -0.1933  0.1033 -0.5969
 8146TIP3    H245930   3.278   2.050  16.936  0.5060  0.9841 -1.3236
 8147TIP3   OH245931   0.528   5.457  13.203 -0.2293 -0.1336 -0.2154
 8147TIP3    H145932   0.475   5.495  13.272 -0.2165  1.4654 -1.0339
 8147TIP3    H245933   0.600   5.519  13.191  1.3867 -1.8231  0.2794
 8148TIP3   OH245934   5.067   0.421  11.112  0.0635 -0.2593 -0.1161
 8148TIP3    H145935   5.085   0.327  11.116 -0.2616 -0.2831  2.7450
 8148TIP3    H245936   5.144   0.462  11.151 -0.5259  0.5210  0.2582
 8149TIP3   OH245937   3.543   3.648  13.928 -0.0553 -0.8378  0.0132
 8149TIP3    H145938   3.470   3.644  13.990 -0.5602 -0.3761 -0.5434
 8149TIP3    H245939   3.592   3.726  13.954  0.2147 -1.1203  0.3560
 8150TIP3   OH245940   1.363   2.489   4.984 -0.5248 -0.1042  0.1411
 8150TIP3    H145941   1.398   2.525   4.903 -0.9034 -1.8847 -0.8729
 8150TIP3    H245942   1.424   2.419   5.008 -0.7893 -0.0533  1.0073
 8151TIP3   OH245943   5.440   3.130  14.815 -0.9069 -0.9037  0.1563
 8151TIP3    H145944   5.411   3.194  14.751  0.7670 -1.3907 -1.1779
 8151TIP3    H245945   5.448   3.179  14.897  1.0102  0.8403 -0.9650
 8152TIP3   OH245946   2.681   2.201   0.562 -0.3695  0.2643  0.6411
 8152TIP3    H145947   2.625   2.130   0.592  0.0655  0.0292  0.9155
 8152TIP3    H245948   2.681   2.264   0.635  1.3335 -0.6790  1.5343
 8153TIP3   OH245949   2.425   4.045   3.845  0.4254 -0.2703 -0.3735
 8153TIP3    H145950   2.451   3.957   3.874  1.3841  0.0616 -0.1864
 8153TIP3    H245951   2.485   4.064   3.773 -0.8347 -0.4073 -1.4976
 8154TIP3   OH245952   0.121   6.665   3.110 -0.2791  0.0249  0.1142
 8154TIP3    H145953   0.099   6.726   3.180  1.5736  1.9408 -0.8525
 8154TIP3    H245954   0.210   6.691   3.083  0.2999 -2.6672 -0.8370
 8155TIP3   OH245955   1.031   4.805  15.491  0.5666 -0.0439  0.3098
 8155TIP3    H145956   1.107   4.761  15.529  1.0370  1.0638  0.6894
 8155TIP3    H245957   0.999   4.863  15.560  0.3444  0.6709 -0.3717
 8156TIP3   OH245958   0.322   4.474   4.736 -0.7117 -0.2175 -0.1624
 8156TIP3    H145959   0.349   4.496   4.825 -1.3383 -0.7143  0.1505
 8156TIP3    H245960   0.342   4.553   4.685 -1.6237  0.5868  0.6817
 8157TIP3   OH245961   5.659   0.858  15.965 -0.7401 -0.5603 -0.0301
 8157TIP3    H145962   5.740   0.887  15.924 -0.8169  0.3608  0.4349
 8157TIP3    H245963   5.653   0.910  16.046 -1.0430 -1.6760  0.6889
 8158TIP3   OH245964   0.597   1.472  12.048 -0.3762  0.1674 -0.2776
 8158TIP3    H145965   0.599   1.414  12.124  1.6621  1.9624  1.1510
 8158TIP3    H245966   0.540   1.545  12.074  0.3934  0.8315 -0.4165
 8159TIP3   OH245967   5.127   4.568  10.919 -0.1766 -0.5341 -0.1168
 8159TIP3    H145968   5.103   4.645  10.866 -0.1934 -1.1069 -0.9629
 8159TIP3    H245969   5.087   4.584  11.004  1.6145  1.4391  0.4538
 8160TIP3   OH245970   2.911   5.556  12.941  0.2337 -0.1881 -0.5290
 8160TIP3    H145971   2.834   5.524  12.987 -0.1249 -0.9670 -1.6337
 8160TIP3    H245972   2.978   5.489  12.956  0.6848  0.4332  0.3369
 8161TIP3   OH245973   2.187   5.736   2.490 -0.3599  0.0542 -0.4189
 8161TIP3    H145974   2.262   5.689   2.526 -0.1330  0.8368  0.1633
 8161TIP3    H245975   2.220   5.779   2.412 -0.3993 -0.2252 -0.5891
 8162TIP3   OH245976   6.281   3.587  11.877  0.1238 -0.3008  0.4944
 8162TIP3    H145977   6.208   3.576  11.815  1.2062 -0.7151 -0.7546
 8162TIP3    H245978   6.356   3.607  11.821  2.0231 -4.4125  1.2271
 8163TIP3   OH245979   2.818   5.178   2.446  0.7427 -0.4305 -0.1197
 8163TIP3    H145980   2.833   5.185   2.540  0.5185 -1.1521 -0.0282
 8163TIP3    H245981   2.750   5.112   2.437 -1.0813  1.4317 -0.6549
 8164TIP3   OH245982   1.432   3.234   2.081  0.0620 -0.3009  0.0164
 8164TIP3    H145983   1.436   3.138   2.082 -0.7341 -0.3409 -0.5391
 8164TIP3    H245984   1.344   3.255   2.050  0.3166  0.6165 -0.1187
 8165TIP3   OH245985   3.024   6.445  13.240 -0.9748  0.2791  0.0055
 8165TIP3    H145986   3.058   6.532  13.265  1.4093 -0.7364  0.6124
 8165TIP3    H245987   3.066   6.427  13.156 -2.1672  0.0580 -0.5537
 8166TIP3   OH245988   6.701   4.692   4.487 -0.6902 -0.2522  0.1022
 8166TIP3    H145989   6.707   4.748   4.409 -0.0686 -0.1245  0.2350
 8166TIP3    H245990   6.723   4.604   4.455  0.5343 -0.0413  0.2972
 8167TIP3   OH245991   0.017   0.687   5.178  0.2269  0.4017 -0.7569
 8167TIP3    H145992   0.040   0.761   5.235  1.5536 -1.6751  1.5706
 8167TIP3    H245993   0.099   0.661   5.138 -0.0549 -0.3736 -0.8515
 8168TIP3   OH245994   0.260   2.123   0.679  0.5319 -0.3355 -0.3801
 8168TIP3    H145995   0.281   2.206   0.636 -0.3227  0.4869  0.7188
 8168TIP3    H245996   0.181   2.092   0.634 -0.1053  0.3013  0.2684
 8169TIP3   OH245997   2.099   6.014   4.013  0.1854 -0.3010 -0.7967
 8169TIP3    H145998   2.024   5.984   3.963  2.0697 -2.6611 -2.4129
 8169TIP3    H245999   2.152   6.065   3.951  0.1320  1.0822  0.2319
 8170TIP3   OH246000   4.631   2.114  12.679 -0.0319  0.1214  0.5807
 8170TIP3    H146001   4.678   2.146  12.756  1.5096  2.0471 -1.0297
 8170TIP3    H246002   4.695   2.058  12.634 -0.9281 -1.0163  0.6825
 8171TIP3   OH246003   3.845   2.876   3.263 -0.2237  0.2006 -0.0294
 8171TIP3    H146004   3.863   2.808   3.328 -1.6872  0.4594  0.6929
 8171TIP3    H246005   3.920   2.934   3.267  1.9031 -2.1656 -1.8338
 8172TIP3   OH246006   5.710   4.159   5.729 -0.0214 -0.3020  0.4089
 8172TIP3    H146007   5.707   4.172   5.823 -0.7731 -0.7251  0.4490
 8172TIP3    H246008   5.625   4.122   5.707  0.3836 -0.8164 -0.3417
 8173TIP3   OH246009   3.839   5.789   1.817 -0.5410  0.0551  0.3966
 8173TIP3    H146010   3.910   5.853   1.813  0.5177 -1.1481 -2.4966
 8173TIP3    H246011   3.771   5.824   1.760 -2.6043  1.3668  3.4001
 8174TIP3   OH246012   3.902   0.536   3.878 -0.0089  0.0252  0.1668
 8174TIP3    H146013   3.946   0.505   3.957  0.3060  0.2821  0.0955
 8174TIP3    H246014   3.892   0.459   3.823  1.6435  0.1957 -0.4314
 8175TIP3   OH246015   4.477   2.904  16.373 -0.2686 -0.2236  0.0403
 8175TIP3    H146016   4.430   2.849  16.310 -0.7550  0.2965 -0.0582
 8175TIP3    H246017   4.455   2.993  16.347 -0.1244  0.0012  0.6909
 8176TIP3   OH246018   1.754   1.771  12.198  0.1280 -0.3478  0.1401
 8176TIP3    H146019   1.820   1.826  12.241 -1.5418 -0.0244  2.4628
 8176TIP3    H246020   1.671   1.812  12.221 -1.0181 -2.1884 -0.5785
 8177TIP3   OH246021   5.318   2.352  10.647  0.2867 -0.2088  0.9961
 8177TIP3    H146022   5.348   2.264  10.626 -1.5072 -0.2910 -1.7603
 8177TIP3    H246023   5.377   2.410  10.599 -1.9093 -0.2614 -2.0388
 8178TIP3   OH246024   6.102   0.081   0.175  0.2967  0.0588  0.2447
 8178TIP3    H146025   6.160   0.037   0.113  0.2233  0.6450 -0.2428
 8178TIP3    H246026   6.016   0.041   0.159 -0.5913  2.7663 -2.7238
 8179TIP3   OH246027   0.962   1.878   2.849  0.1715 -0.2452  0.3850
 8179TIP3    H146028   0.999   1.853   2.765  1.1340  1.0505  0.3910
 8179TIP3    H246029   1.038   1.901   2.903 -0.4451 -0.8273  1.5309
 8180TIP3   OH246030   6.087   6.215   1.461 -0.1495  0.0717  0.1216
 8180TIP3    H146031   6.087   6.311   1.469 -2.2046  0.1679 -0.3748
 8180TIP3    H246032   6.090   6.199   1.367 -2.3152 -0.2193  0.0457
 8181TIP3   OH246033   4.433   1.323   4.912 -0.1330 -0.0685  0.3091
 8181TIP3    H146034   4.496   1.322   4.840 -0.6666 -1.8148 -0.1600
 8181TIP3    H246035   4.349   1.340   4.870 -0.4937 -1.4060  0.4609
 8182TIP3   OH246036   2.139   4.343   3.175  0.6933  0.4297 -0.1280
 8182TIP3    H146037   2.050   4.337   3.141  0.4072  1.9198  0.2453
 8182TIP3    H246038   2.189   4.278   3.126 -0.1840  0.9062 -1.7216
 8183TIP3   OH246039   3.310   6.515   0.811 -0.0637  0.0786 -0.4275
 8183TIP3    H146040   3.393   6.553   0.839  0.2488 -1.2708  0.5697
 8183TIP3    H246041   3.297   6.549   0.722 -0.2425  3.1563  0.6559
 8184TIP3   OH246042   2.159   6.060  15.007  0.0223 -0.3377 -0.4081
 8184TIP3    H146043   2.224   6.129  14.995 -1.0682  0.6369 -0.8347
 8184TIP3    H246044   2.103   6.066  14.930 -0.5237 -1.2359 -0.0931
 8185TIP3   OH246045   0.558   5.203  13.700  0.5465 -0.0284  0.3539
 8185TIP3    H146046   0.609   5.269  13.747  0.7525  1.0069 -1.2097
 8185TIP3    H246047   0.575   5.223  13.607 -0.5434 -1.3874 -0.1671
 8186TIP3   OH246048   3.077   2.937   3.734  0.2242  0.2082 -0.0600
 8186TIP3    H146049   3.092   2.843   3.725  0.7051  0.3698 -1.1109
 8186TIP3    H246050   3.149   2.978   3.686 -0.2642  1.1004 -0.0610
 8187TIP3   OH246051   1.274   0.345  13.355  0.1207 -0.1937 -0.3205
 8187TIP3    H146052   1.325   0.415  13.397  1.5051 -0.5364 -1.3663
 8187TIP3    H246053   1.310   0.264  13.390 -0.1738 -0.4341 -0.5642
 8188TIP3   OH246054   4.631   3.206  11.791 -0.0064 -0.1761  0.1057
 8188TIP3    H146055   4.718   3.240  11.770  0.5218 -0.5269  1.5911
 8188TIP3    H246056   4.644   3.112  11.801 -1.2900 -0.8231 -3.1334
 8189TIP3   OH246057   4.436   6.219  16.492  0.5834 -0.3294  0.1537
 8189TIP3    H146058   4.485   6.228  16.574  1.1162  0.4752 -0.2466
 8189TIP3    H246059   4.501   6.233  16.423  0.0587 -0.6069 -0.4060
 8190TIP3   OH246060   2.540   0.415   5.976 -0.1114 -0.0316  0.2816
 8190TIP3    H146061   2.484   0.490   5.956 -1.1530 -0.7411  0.4465
 8190TIP3    H246062   2.487   0.338   5.952  0.6267 -0.7338  0.8405
 8191TIP3   OH246063   4.685   5.417  12.715  0.2415  0.2279 -0.8177
 8191TIP3    H146064   4.751   5.428  12.783  0.6370 -0.3148 -1.1002
 8191TIP3    H246065   4.736   5.404  12.635 -0.1877  2.5568 -1.5466
 8192TIP3   OH246066   4.473   6.787   3.058 -0.3140 -1.0545 -0.1194
 8192TIP3    H146067   4.480   6.844   2.981  1.6318 -0.0942  0.7069
 8192TIP3    H246068   4.558   6.743   3.064 -0.0846 -0.4460  1.9583
 8193TIP3   OH246069   3.223   4.239  15.992  0.2778  0.4286 -0.2680
 8193TIP3    H146070   3.234   4.331  15.967  2.1193  0.2030 -0.4191
 8193TIP3    H246071   3.197   4.243  16.084 -1.6153  1.1226 -0.7919
 8194TIP3   OH246072   0.493   6.266  16.897  0.0909 -0.0997  0.3237
 8194TIP3    H146073   0.496   6.324  16.821  2.2733 -0.6938 -0.1028
 8194TIP3    H246074   0.581   6.269  16.933 -0.0916 -2.1317  1.0644
 8195TIP3   OH246075   1.779   1.029  10.456  0.0034 -0.5286 -0.2756
 8195TIP3    H146076   1.843   1.094  10.427 -1.8632  1.2202 -0.6493
 8195TIP3    H246077   1.695   1.063  10.427 -1.1947 -2.4462  0.7493
 8196TIP3   OH246078   0.361   1.627   4.316  0.3106 -0.3688 -0.1441
 8196TIP3    H146079   0.421   1.586   4.255 -1.0308 -1.9928 -0.4490
 8196TIP3    H246080   0.292   1.562   4.330 -1.0470  1.1528  0.6750
 8197TIP3   OH246081   4.499   5.394  14.511 -0.0871  0.0420 -0.1357
 8197TIP3    H146082   4.429   5.460  14.518 -0.6861 -0.3012 -2.3248
 8197TIP3    H246083   4.468   5.333  14.444  2.1413 -0.3328 -0.9050
 8198TIP3   OH246084   5.062   3.442  14.213 -0.4627 -0.1896 -0.6527
 8198TIP3    H146085   5.066   3.362  14.161  0.1830 -0.0365 -0.8516
 8198TIP3    H246086   5.079   3.512  14.150  2.2683 -0.1148  0.0184
 8199TIP3   OH246087   4.768   1.080  11.590 -0.0760 -0.0788  0.0099
 8199TIP3    H146088   4.688   1.127  11.566 -0.8857 -0.0819  2.4290
 8199TIP3    H246089   4.778   1.097  11.684  1.4937 -1.9685  0.2369
 8200TIP3   OH246090   2.527   3.574   1.784  0.2798  0.3022  0.1834
 8200TIP3    H146091   2.573   3.501   1.826  0.4458  0.1504 -0.2587
 8200TIP3    H246092   2.440   3.572   1.823 -0.5790 -1.7358 -1.6246
 8201TIP3   OH246093   1.709   0.826   0.175  0.3836  0.1819 -0.0054
 8201TIP3    H146094   1.680   0.839   0.085  0.7278 -0.9448 -0.2908
 8201TIP3    H246095   1.704   0.913   0.214 -4.3371  0.0145  0.3037
 8202TIP3   OH246096   3.648   2.308  11.411  0.0975 -0.0659  0.0972
 8202TIP3    H146097   3.680   2.395  11.431  1.5583 -0.4999 -0.2299
 8202TIP3    H246098   3.664   2.257  11.491 -0.8599 -0.0173  0.3319
 8203TIP3   OH246099   4.980   6.353   4.543  0.5143  0.6260  0.3450
 8203TIP3    H146100   4.905   6.299   4.521  0.3573  0.4197  1.3250
 8203TIP3    H246101   4.959   6.440   4.509  0.1001  0.4298  0.1012
 8204TIP3   OH246102   2.169   2.543   3.181  0.4107 -0.0647  0.4594
 8204TIP3    H146103   2.237   2.604   3.153 -0.9348  0.5906 -1.6296
 8204TIP3    H246104   2.164   2.479   3.109  1.0645 -2.0953  2.1060
 8205TIP3   OH246105   3.035   6.120  13.543 -0.0400  0.3285  0.2843
 8205TIP3    H146106   2.999   6.033  13.563  0.1908 -0.1287 -1.1453
 8205TIP3    H246107   2.987   6.148  13.465 -0.2704  1.5953  0.8689
 8206TIP3   OH246108   1.748   3.149  13.685  0.3807  0.5845  0.0017
 8206TIP3    H146109   1.820   3.184  13.737  1.3507  1.7137 -2.0003
 8206TIP3    H246110   1.704   3.226  13.650 -0.8133 -0.1288 -0.1318
 8207TIP3   OH246111   1.419   3.551  15.776 -0.1583  0.1194  0.0629
 8207TIP3    H146112   1.427   3.456  15.762  2.4045  0.2936  0.0095
 8207TIP3    H246113   1.415   3.560  15.871  0.6591 -0.0067  0.1187
 8208TIP3   OH246114   0.958   3.716  10.726  0.6223 -0.0282 -0.0117
 8208TIP3    H146115   1.052   3.698  10.719  0.5342 -0.9443  0.9591
 8208TIP3    H246116   0.951   3.811  10.712  1.4648 -0.2048 -1.9797
 8209TIP3   OH246117   0.243   5.844   2.522 -0.6088  0.3341  0.1597
 8209TIP3    H146118   0.213   5.883   2.440  2.0493  1.9241 -0.1552
 8209TIP3    H246119   0.169   5.855   2.582 -1.0797  3.1474 -0.7999
 8210TIP3   OH246120   5.678   3.470   3.722  0.3000  0.7183 -0.8289
 8210TIP3    H146121   5.711   3.532   3.787  2.9617  0.6330 -1.9828
 8210TIP3    H246122   5.604   3.427   3.765  3.2341 -1.0211  3.1944
 8211TIP3   OH246123   2.508   1.369   0.690 -0.0878  0.3732  0.4642
 8211TIP3    H146124   2.532   1.375   0.782 -0.2320  0.7606  0.4770
 8211TIP3    H246125   2.435   1.430   0.679 -0.2929  0.0819  0.1669
 8212TIP3   OH246126   0.000   5.529  12.648  0.1214 -0.6564 -0.0934
 8212TIP3    H146127  -0.061   5.571  12.708  1.4898 -0.4719  1.2430
 8212TIP3    H246128  -0.025   5.436  12.649  0.8935 -0.9023  1.8415
 8213TIP3   OH246129   1.383   2.144   3.126 -0.1311 -0.0954  0.0766
 8213TIP3    H146130   1.430   2.115   3.048  0.9376  2.1399 -0.1877
 8213TIP3    H246131   1.450   2.149   3.194 -0.6749 -0.1265  0.6250
 8214TIP3   OH246132   0.789   0.612   3.142  0.3603 -0.7084  0.1847
 8214TIP3    H146133   0.856   0.675   3.117  0.5138 -1.0539 -0.3127
 8214TIP3    H246134   0.808   0.535   3.088 -0.0772 -1.0240  0.4725
 8215TIP3   OH246135   5.819   0.389  12.626  0.4910  0.1202 -0.3935
 8215TIP3    H146136   5.786   0.474  12.599 -0.3057  0.6432  1.9754
 8215TIP3    H246137   5.859   0.405  12.712 -1.0283 -2.1044  0.8373
 8216TIP3   OH246138   4.163   2.050   3.925 -0.2982  0.0739  0.1938
 8216TIP3    H146139   4.074   2.083   3.917 -0.4545 -0.2966  0.3628
 8216TIP3    H246140   4.181   2.009   3.840  0.8499  2.8082 -1.0207
 8217TIP3   OH246141   0.267   6.683  11.365 -0.0412 -0.4343  0.2772
 8217TIP3    H146142   0.216   6.749  11.316 -0.4657 -1.2233 -0.3669
 8217TIP3    H246143   0.216   6.669  11.445 -0.3951 -0.5996  0.0260
 8218TIP3   OH246144   5.765   3.395  14.736  0.3947  0.1458 -0.2012
 8218TIP3    H146145   5.810   3.312  14.747  1.8706  0.8834 -0.5223
 8218TIP3    H246146   5.739   3.420  14.825  0.3500 -0.4141 -0.0504
 8219TIP3   OH246147   3.374   4.364   2.064 -0.0270  0.6670 -0.0282
 8219TIP3    H146148   3.283   4.383   2.044 -0.0442  2.0556  1.2059
 8219TIP3    H246149   3.417   4.450   2.067  0.9423  0.1727  1.1485
 8220TIP3   OH246150   3.376   2.308   1.929  0.3092 -0.3083 -0.4635
 8220TIP3    H146151   3.436   2.314   1.854 -0.6595 -1.6196 -1.3992
 8220TIP3    H246152   3.431   2.328   2.005  1.6572 -0.3064 -1.3876
 8221TIP3   OH246153   3.972   6.019  16.901  0.7056  0.0880 -0.3569
 8221TIP3    H146154   4.047   6.057  16.855  0.5826  1.4330  0.5004
 8221TIP3    H246155   3.896   6.047  16.850  0.5426  1.8536  0.7439
 8222TIP3   OH246156   2.323   4.677  12.964  0.1110 -0.3721 -0.5463
 8222TIP3    H146157   2.234   4.711  12.953 -0.2291  0.0561  2.7222
 8222TIP3    H246158   2.333   4.664  13.058  3.0445 -1.7967 -0.9313
 8223TIP3   OH246159   2.580   2.940  12.669  0.2761 -0.4758 -0.1767
 8223TIP3    H146160   2.598   3.032  12.650 -1.4920 -0.1206 -0.2383
 8223TIP3    H246161   2.539   2.906  12.590 -1.4088 -0.6281  0.7243
 8224TIP3   OH246162   1.827   5.179  16.772  0.4619  0.1090 -0.3165
 8224TIP3    H146163   1.755   5.181  16.835  0.1924  1.3347 -0.6379
 8224TIP3    H246164   1.808   5.103  16.717  0.8782 -1.1723  1.2481
 8225TIP3   OH246165   4.244   3.092   6.094  0.4146 -0.4676  0.0307
 8225TIP3    H146166   4.245   3.151   6.169 -0.2646  0.4838 -0.6836
 8225TIP3    H246167   4.157   3.051   6.098  0.9886 -1.6940  0.6989
 8226TIP3   OH246168   0.548   5.496  11.363  0.3612 -0.0175 -0.1008
 8226TIP3    H146169   0.467   5.446  11.380  0.9340 -1.1254 -0.5229
 8226TIP3    H246170   0.612   5.458  11.423  1.2630 -1.0211 -1.6099
 8227TIP3   OH246171   5.114   0.389  12.781  0.2178  0.7679  0.6657
 8227TIP3    H146172   5.057   0.465  12.792  1.2106  1.4315  1.3980
 8227TIP3    H246173   5.055   0.313  12.787 -0.5219  1.4093  1.9158
 8228TIP3   OH246174   5.982   4.507  14.649 -0.4105 -0.7619  0.5556
 8228TIP3    H146175   6.045   4.554  14.704  0.3296  0.2764 -1.0993
 8228TIP3    H246176   6.022   4.422  14.634  1.0357  0.1369 -1.0734
 8229TIP3   OH246177   6.342   0.965   2.453 -0.3420 -0.5840  0.2569
 8229TIP3    H146178   6.325   0.973   2.359 -0.5040  0.9408  0.3857
 8229TIP3    H246179   6.329   0.873   2.472  0.0168 -0.9778 -1.2823
 8230TIP3   OH246180   5.996   4.830   2.540 -0.1343  0.1777  0.0545
 8230TIP3    H146181   5.916   4.805   2.494 -1.0573  2.0091  0.5532
 8230TIP3    H246182   6.064   4.827   2.473 -0.6516 -1.1075 -0.4476
 8231TIP3   OH246183   0.736   1.116  13.044 -0.3520 -0.5765  0.2847
 8231TIP3    H146184   0.768   1.078  12.962  1.8881  0.5632  0.5447
 8231TIP3    H246185   0.760   1.053  13.111  0.7020 -0.0903  0.3855
 8232TIP3   OH246186   5.094   2.223  16.536  0.3779 -0.7474  0.5476
 8232TIP3    H146187   5.005   2.257  16.547  0.9538  1.5327 -1.0822
 8232TIP3    H246188   5.086   2.153  16.471 -0.2898 -0.9098  0.8001
 8233TIP3   OH246189   1.259   0.101  10.424  0.2482 -0.7726  0.2043
 8233TIP3    H146190   1.255   0.192  10.396 -0.5270  0.1893  3.0966
 8233TIP3    H246191   1.173   0.065  10.401  0.0460 -0.3622  0.3156
 8234TIP3   OH246192   5.033   1.591   4.001 -0.5817  0.1230  0.3327
 8234TIP3    H146193   5.008   1.655   3.935 -0.4875  1.3590  1.4591
 8234TIP3    H246194   5.128   1.598   4.007 -0.5928  0.0247  0.6166
 8235TIP3   OH246195   3.720   0.461  13.235  0.3409  0.0955  0.2082
 8235TIP3    H146196   3.668   0.484  13.159 -0.4417  0.0037  0.6999
 8235TIP3    H246197   3.755   0.545  13.267  0.1543  0.2103  0.1119
 8236TIP3   OH246198   4.459   6.532  11.742  0.8040  0.5356 -0.4141
 8236TIP3    H146199   4.409   6.450  11.746  2.5851 -0.5476  1.1600
 8236TIP3    H246200   4.480   6.543  11.649 -0.9481  0.1855 -0.8908
 8237TIP3   OH246201   3.764   1.433   2.725  0.2050  0.1522 -0.0247
 8237TIP3    H146202   3.825   1.359   2.722 -0.4928 -0.3962 -1.4885
 8237TIP3    H246203   3.753   1.459   2.634 -2.0883 -0.0718  0.1306
 8238TIP3   OH246204   1.161   0.660  16.910  0.3457  0.6592  0.0136
 8238TIP3    H146205   1.126   0.669  16.999  3.0249  0.3223  1.1959
 8238TIP3    H246206   1.092   0.615  16.862 -1.5050  1.5723  1.6849
 8239TIP3   OH246207   0.193   4.542   2.314  0.4187  0.4074  0.3415
 8239TIP3    H146208   0.156   4.586   2.237 -0.0340  1.3774  1.0825
 8239TIP3    H246209   0.119   4.533   2.374  0.4767 -1.5399  0.1527
 8240TIP3   OH246210   2.245   2.226   0.145  0.6267 -0.2522  0.3839
 8240TIP3    H146211   2.210   2.251   0.230 -0.6832 -1.7815  0.3344
 8240TIP3    H246212   2.326   2.179   0.165  0.1571 -0.8939  0.8244
 8241TIP3   OH246213   2.862   1.541  16.585 -0.3518 -0.4797  0.1900
 8241TIP3    H146214   2.913   1.474  16.537 -0.0574  0.5960 -1.0551
 8241TIP3    H246215   2.771   1.515  16.573 -0.2232 -0.8812  0.0642
 8242TIP3   OH246216   5.751   2.134  16.907 -0.4225  0.3699 -0.4248
 8242TIP3    H146217   5.658   2.114  16.919 -0.1180 -1.5107 -0.8490
 8242TIP3    H246218   5.783   2.151  16.996 -0.5713 -2.0601  0.1752
 8243TIP3   OH246219   1.263   1.515   1.133 -0.5544 -0.2045 -0.4921
 8243TIP3    H146220   1.353   1.537   1.160 -0.8313 -1.0486  1.2923
 8243TIP3    H246221   1.262   1.531   1.039  1.4727 -0.1657 -0.5627
 8244TIP3   OH246222   4.972   2.777   5.414  0.3232 -0.5259 -0.0444
 8244TIP3    H146223   4.941   2.785   5.324 -0.5991 -2.4681  0.0372
 8244TIP3    H246224   4.953   2.862   5.454 -0.4304 -0.0609 -1.3335
 8245TIP3   OH246225   0.235   5.222   5.997 -0.6329 -0.3927  0.2456
 8245TIP3    H146226   0.192   5.228   6.082 -1.1782  0.2138 -0.0698
 8245TIP3    H246227   0.328   5.231   6.017 -0.9011  3.1303  0.5069
 8246TIP3   OH246228   5.559   1.066  11.213 -0.0897 -0.2839 -0.0612
 8246TIP3    H146229   5.565   1.161  11.206 -0.3545 -0.1364  1.4649
 8246TIP3    H246230   5.638   1.033  11.170  1.0610  0.7257  1.2066
 8247TIP3   OH246231   1.822   4.172   5.506  0.0216  0.3196 -0.1123
 8247TIP3    H146232   1.755   4.130   5.453 -0.2728 -0.1884  0.6465
 8247TIP3    H246233   1.781   4.184   5.592  0.9606 -0.1782  0.4212
 8248TIP3   OH246234   3.641   4.159  11.442  0.3445 -0.0421  0.0605
 8248TIP3    H146235   3.651   4.094  11.373 -1.7089 -0.8929  0.4846
 8248TIP3    H246236   3.704   4.133  11.509 -1.2856 -2.4502  0.7868
 8249TIP3   OH246237   4.215   2.862   3.131  0.0624 -0.2945 -0.2436
 8249TIP3    H146238   4.289   2.805   3.114  0.1987 -0.1319 -0.2015
 8249TIP3    H246239   4.138   2.807   3.115  0.1911 -0.4839 -0.2143
 8250TIP3   OH246240   5.870   3.837  14.849  0.3405 -0.1459 -0.5541
 8250TIP3    H146241   5.904   3.788  14.774  0.8023 -1.7368  0.6393
 8250TIP3    H246242   5.882   3.778  14.923 -2.9926  0.0486  0.3266
 8251TIP3   OH246243   3.292   3.598   1.240 -0.5083 -0.0418 -0.3116
 8251TIP3    H146244   3.208   3.636   1.265  0.5200  1.9712  0.3301
 8251TIP3    H246245   3.351   3.673   1.233  1.4008 -1.4455 -0.1039
 8252TIP3   OH246246   4.497   3.313  14.777 -0.7262  0.0368  0.7478
 8252TIP3    H146247   4.485   3.404  14.804 -0.1483 -0.0696  1.4084
 8252TIP3    H246248   4.559   3.277  14.841  0.5790 -0.2907 -0.6342
 8253TIP3   OH246249   4.349   3.094  10.444 -0.5888  0.0057  0.0678
 8253TIP3    H146250   4.406   3.041  10.500 -0.7609  0.0889  0.3264
 8253TIP3    H246251   4.275   3.038  10.424 -0.8204  0.1797  0.4265
 8254TIP3   OH246252   5.630   5.261   3.839  0.3398 -0.3030 -0.4750
 8254TIP3    H146253   5.623   5.329   3.906  0.0006  0.1771 -0.9923
 8254TIP3    H246254   5.680   5.303   3.768  0.1232 -0.5903 -0.7967
 8255TIP3   OH246255   4.841   2.525  14.065 -0.2792 -0.2964  0.2563
 8255TIP3    H146256   4.811   2.615  14.073  2.3883  0.5883  1.5494
 8255TIP3    H246257   4.935   2.530  14.081  0.2664 -3.0962 -1.3938
 8256TIP3   OH246258   4.973   1.039  17.046  0.2437  0.2378 -0.2374
 8256TIP3    H146259   5.033   0.973  17.013 -0.8343 -0.5280 -0.7128
 8256TIP3    H246260   4.994   1.118  16.996  0.5265 -0.1474 -0.7384
 8257TIP3   OH246261   3.614   5.505   1.867  0.6041  0.4501 -0.1901
 8257TIP3    H146262   3.605   5.457   1.950 -0.3128 -1.9567 -1.5933
 8257TIP3    H246263   3.555   5.581   1.877 -1.3276 -1.0511  0.5481
 8258TIP3   OH246264   1.699   1.698  16.271  0.2221 -0.5028  0.0891
 8258TIP3    H146265   1.715   1.793  16.267  1.1633 -0.6566 -0.2080
 8258TIP3    H246266   1.610   1.687  16.238  0.2100  0.2610 -0.1574
 8259TIP3   OH246267   2.323   0.600   4.108 -0.2300 -0.0366  0.0272
 8259TIP3    H146268   2.327   0.629   4.199 -0.8548  1.4954 -0.4105
 8259TIP3    H246269   2.274   0.518   4.111 -1.4663  0.6982  0.9315
 8260TIP3   OH246270   0.931   5.491  14.148  0.3183 -0.8495 -0.1088
 8260TIP3    H146271   0.844   5.502  14.184 -0.1825  1.2528 -1.7342
 8260TIP3    H246272   0.937   5.398  14.126 -1.3689 -1.0875  0.3282
 8261TIP3   OH246273   2.060   5.294   5.908 -0.1365 -0.5165 -0.0266
 8261TIP3    H146274   2.077   5.205   5.939 -0.4716 -1.5060 -2.4809
 8261TIP3    H246275   1.977   5.288   5.860 -0.7487  1.3922  0.6595
 8262TIP3   OH246276   0.651   0.437   3.697  0.4165  0.1415  0.3487
 8262TIP3    H146277   0.598   0.436   3.777 -1.6747 -2.1315 -0.9529
 8262TIP3    H246278   0.628   0.519   3.654 -0.4966  0.1175  0.7759
 8263TIP3   OH246279   1.371   0.804  12.403 -0.2811 -0.7240  0.4931
 8263TIP3    H146280   1.377   0.735  12.337 -0.2128 -0.8393  0.6180
 8263TIP3    H246281   1.357   0.885  12.353 -1.9441 -1.0266  0.4290
 8264TIP3   OH246282   1.234   2.613   4.373  0.3071 -0.1609  0.4037
 8264TIP3    H146283   1.309   2.561   4.403 -1.0737 -2.3737  0.2192
 8264TIP3    H246284   1.274   2.686   4.325  2.3627 -0.4243  1.5834
 8265TIP3   OH246285   4.869   0.618   2.656  0.3582 -0.3162 -0.5135
 8265TIP3    H146286   4.942   0.630   2.596  0.8483  0.3891  0.1932
 8265TIP3    H246287   4.891   0.672   2.732 -0.3836 -0.9379  0.1755
 8266TIP3   OH246288   2.245   4.642   1.668 -0.3431  0.5361  0.2060
 8266TIP3    H146289   2.218   4.711   1.728  0.3159  0.4766  0.5767
 8266TIP3    H246290   2.332   4.616   1.698 -1.0764 -1.3151  0.8181
 8267TIP3   OH246291   2.967   2.228  13.777  0.5060 -0.4248  0.6989
 8267TIP3    H146292   2.982   2.194  13.865 -0.1479 -0.8615  0.6454
 8267TIP3    H246293   2.974   2.151  13.721 -0.2260 -0.3450  0.4926
 8268TIP3   OH246294   3.094   2.547   4.685 -0.3725  0.6105 -0.0526
 8268TIP3    H146295   3.100   2.452   4.697  0.2697  0.3939 -1.8829
 8268TIP3    H246296   3.024   2.560   4.622 -0.0553  1.3132 -0.2752
 8269TIP3   OH246297   1.938   3.750  12.785 -0.1263 -0.0715  0.9206
 8269TIP3    H146298   1.869   3.687  12.807  0.4199 -0.8471  0.4633
 8269TIP3    H246299   2.015   3.718  12.832 -0.1165  0.9003  1.5844
 8270TIP3   OH246300   6.044   1.485  12.800 -0.0431  0.5197 -0.7076
 8270TIP3    H146301   6.057   1.576  12.772 -0.0074  0.0973 -2.1617
 8270TIP3    H246302   6.120   1.439  12.767  0.6878  0.1826  1.2995
 8271TIP3   OH246303   3.603   1.667   3.141 -0.6218 -0.0763  0.6367
 8271TIP3    H146304   3.621   1.760   3.153 -1.4588  0.0993  0.6375
 8271TIP3    H246305   3.572   1.660   3.051  0.3853 -0.5216  0.3099
 8272TIP3   OH246306   5.569   2.063   1.537  0.3444  0.0788 -0.3482
 8272TIP3    H146307   5.549   2.043   1.628 -1.2754 -1.1460 -0.9235
 8272TIP3    H246308   5.664   2.072   1.535  0.5172 -0.9638  1.2521
 8273TIP3   OH246309   6.240   4.452  15.339 -0.8668  0.4995  0.0060
 8273TIP3    H146310   6.153   4.471  15.373 -1.3934  1.0249 -1.5453
 8273TIP3    H246311   6.295   4.442  15.417 -2.1842  0.7394  0.9973
 8274TIP3   OH246312   5.182   4.662   1.257  0.4729  0.0026  0.5385
 8274TIP3    H146313   5.186   4.736   1.316 -0.9532 -0.0717  0.7600
 8274TIP3    H246314   5.253   4.604   1.286  2.1934  1.6309 -0.1955
 8275TIP3   OH246315   2.857   1.439  14.995 -0.6338 -0.0251 -0.3001
 8275TIP3    H146316   2.854   1.384  14.917 -0.4593 -0.4007 -0.0433
 8275TIP3    H246317   2.823   1.384  15.065  1.5788 -0.5888  0.4101
 8276TIP3   OH246318   1.638   5.563  16.216  0.5467  0.5282 -0.0656
 8276TIP3    H146319   1.592   5.479  16.215 -0.1928  0.9322 -0.7054
 8276TIP3    H246320   1.722   5.545  16.173  0.1644  0.2381 -0.7018
 8277TIP3   OH246321   5.145   1.390  13.478  0.3033  0.5973  0.1114
 8277TIP3    H146322   5.127   1.407  13.386  0.7509 -0.1749 -0.1213
 8277TIP3    H246323   5.240   1.384  13.483  0.1914 -1.8358  0.1769
 8278TIP3   OH246324   3.828   4.301   5.691 -0.3316 -0.2203  0.1263
 8278TIP3    H146325   3.750   4.329   5.739 -1.2681 -2.1307 -0.1848
 8278TIP3    H246326   3.893   4.282   5.760  0.4628  2.7511  0.3498
 8279TIP3   OH246327   2.048   1.087  10.740  0.1318  0.7038 -0.4977
 8279TIP3    H146328   2.061   1.144  10.664  0.3690  0.5092 -0.6032
 8279TIP3    H246329   2.136   1.056  10.763  0.3101  2.0949  0.8991
 8280TIP3   OH246330   6.108   1.191  11.594 -0.1322 -0.4096  0.2256
 8280TIP3    H146331   6.136   1.195  11.685 -1.5231  2.3672  0.6000
 8280TIP3    H246332   6.014   1.175  11.598  0.0230 -1.8660 -0.8327
 8281TIP3   OH246333   6.540   3.461   2.221 -0.2490 -0.4522 -0.3201
 8281TIP3    H146334   6.619   3.515   2.227 -0.5824 -0.0388  0.4280
 8281TIP3    H246335   6.471   3.522   2.194 -1.0404 -0.0499  2.3383
 8282TIP3   OH246336   0.246   4.606  16.422  0.0072  0.0968  0.4266
 8282TIP3    H146337   0.222   4.697  16.434  0.1498 -0.0263  1.9221
 8282TIP3    H246338   0.334   4.609  16.384 -0.2248  0.5728 -0.0802
 8283TIP3   OH246339   1.050   1.963  12.435  0.3925 -0.1874  0.1635
 8283TIP3    H146340   1.094   1.990  12.354 -0.6401  0.1652 -0.2899
 8283TIP3    H246341   1.077   2.028  12.500 -0.7811  1.0505 -0.5268
 8284TIP3   OH246342   6.252   3.886  15.475  0.0477 -0.2178 -0.1945
 8284TIP3    H146343   6.337   3.911  15.437  0.3640  0.7837  1.1156
 8284TIP3    H246344   6.188   3.933  15.422  0.5312  1.9016  0.9846
 8285TIP3   OH246345   0.824   0.669  14.497 -0.9908  0.2751  0.1334
 8285TIP3    H146346   0.781   0.646  14.414  0.2206 -0.9082 -0.2073
 8285TIP3    H246347   0.835   0.764  14.492 -1.0566  0.2433 -1.0178
 8286TIP3   OH246348   5.807   5.446   4.512  0.1006 -1.0324 -0.2589
 8286TIP3    H146349   5.886   5.499   4.508 -0.4747 -0.2424 -1.9783
 8286TIP3    H246350   5.788   5.424   4.421 -1.8176 -0.9237  0.0722
 8287TIP3   OH246351   3.259   5.992   6.078 -0.1271 -0.5987  0.1110
 8287TIP3    H146352   3.351   5.964   6.083 -0.0837 -0.2417  2.0566
 8287TIP3    H246353   3.215   5.939   6.144 -1.2863 -0.5484 -0.6007
 8288TIP3   OH246354   0.224   6.393  12.924 -0.0112  0.3975  0.5300
 8288TIP3    H146355   0.210   6.484  12.953  1.4160  0.9951 -0.5534
 8288TIP3    H246356   0.318   6.387  12.909 -0.3976 -0.5204 -1.8692
 8289TIP3   OH246357   2.557   4.820   4.438  0.9376 -0.2884 -0.1304
 8289TIP3    H146358   2.466   4.847   4.426  1.2631  0.6196 -0.6638
 8289TIP3    H246359   2.563   4.734   4.396  0.4904 -0.0397 -0.7129
 8290TIP3   OH246360   4.031   0.390   2.206 -0.0088 -0.7405  0.2379
 8290TIP3    H146361   3.953   0.372   2.153 -0.1702  0.8718 -0.1123
 8290TIP3    H246362   4.002   0.376   2.296 -1.1833  1.2717  0.2278
 8291TIP3   OH246363   1.628   2.667  16.258 -0.1311 -0.2716  0.1608
 8291TIP3    H146364   1.597   2.723  16.186  1.1543 -0.0064 -0.2061
 8291TIP3    H246365   1.603   2.715  16.337  0.6456  0.6723 -0.1466
 8292TIP3   OH246366   5.335   0.816   1.100  0.2113 -0.4450 -0.3735
 8292TIP3    H146367   5.371   0.848   1.183 -0.1903  0.0352 -0.3792
 8292TIP3    H246368   5.354   0.886   1.037 -1.3765  0.1831 -0.2110
 8293TIP3   OH246369   2.706   0.441  13.429  0.2780 -0.6730 -1.0602
 8293TIP3    H146370   2.611   0.451  13.433  0.1904 -1.3543 -1.2210
 8293TIP3    H246371   2.731   0.411  13.516  0.3556 -0.4094 -0.9917
 8294TIP3   OH246372   5.948   1.202   1.168 -0.2102 -0.0373  0.1895
 8294TIP3    H146373   5.887   1.214   1.240  1.2576 -0.2058  1.5160
 8294TIP3    H246374   5.895   1.216   1.089 -2.0649 -0.7640  1.2449
 8295TIP3   OH246375   6.693   1.865   6.216  0.3056 -0.4062 -0.0543
 8295TIP3    H146376   6.698   1.776   6.181 -0.5821 -0.0429 -1.1430
 8295TIP3    H246377   6.770   1.909   6.179  0.1566 -0.4181 -0.3753
 8296TIP3   OH246378   2.419   2.106  13.971 -0.0876  0.0181 -0.4719
 8296TIP3    H146379   2.324   2.115  13.979  0.0288  0.8265  0.1536
 8296TIP3    H246380   2.447   2.074  14.057  0.2374  0.0638 -0.5597
 8297TIP3   OH246381   3.580   0.687  15.706  0.4623 -0.2889 -0.1025
 8297TIP3    H146382   3.659   0.649  15.746  1.2712  1.8422  0.4497
 8297TIP3    H246383   3.573   0.642  15.622  2.2252 -0.6248 -0.1249
 8298TIP3   OH246384   4.025   1.464  16.062 -0.1337 -0.0696 -0.4775
 8298TIP3    H146385   4.082   1.539  16.044  0.2349 -0.2526 -0.0954
 8298TIP3    H246386   3.950   1.501  16.109 -0.6480  0.2678 -1.5141
 8299TIP3   OH246387   1.351   3.846   3.066 -0.6280  1.0784 -0.1564
 8299TIP3    H146388   1.267   3.803   3.081  0.5147 -1.1899  0.1387
 8299TIP3    H246389   1.365   3.900   3.144 -0.2502 -1.2692  1.4814
 8300TIP3   OH246390   1.893   5.537  14.633  0.0934  0.1870  0.5972
 8300TIP3    H146391   1.837   5.603  14.592  0.7682  0.5774  0.2746
 8300TIP3    H246392   1.913   5.476  14.561  2.1854  1.4734 -0.0194
 8301TIP3   OH246393   2.141   2.361  11.287  0.4365  0.1325 -0.2975
 8301TIP3    H146394   2.132   2.398  11.375  1.4696  1.0088 -0.5391
 8301TIP3    H246395   2.122   2.268  11.298 -0.6295  0.4412  0.6212
 8302TIP3   OH246396   6.220   1.332  12.669 -0.1046 -0.0304  0.4490
 8302TIP3    H146397   6.248   1.328  12.578 -2.6563  1.9534 -0.5604
 8302TIP3    H246398   6.174   1.249  12.683 -0.7261  0.1428 -0.4775
 8303TIP3   OH246399   5.089   0.709   1.541  0.1499 -0.0262  0.2311
 8303TIP3    H146400   5.175   0.733   1.509 -0.3381  1.2976 -0.1473
 8303TIP3    H246401   5.101   0.623   1.581  1.7093  0.3100  0.5257
 8304TIP3   OH246402   5.966   5.352   2.784 -0.7168 -0.2452  0.2364
 8304TIP3    H146403   5.901   5.356   2.713  1.7392  3.9431 -2.1580
 8304TIP3    H246404   5.956   5.436   2.830  2.1995  0.0821  0.4476
 8305TIP3   OH246405   6.672   4.279   3.970  0.7775  0.2790  0.2348
 8305TIP3    H146406   6.632   4.338   4.034  0.6142  0.8267 -0.3511
 8305TIP3    H246407   6.621   4.294   3.890  1.0445 -0.3125 -0.0473
 8306TIP3   OH246408   4.186   6.454   1.683 -0.0771  0.1045  0.3131
 8306TIP3    H146409   4.248   6.400   1.634  2.9297 -1.2629  5.0247
 8306TIP3    H246410   4.190   6.540   1.641  2.8295 -0.7098 -1.3369
 8307TIP3   OH246411   1.499   5.640  13.948 -0.1038 -0.4028  0.3951
 8307TIP3    H146412   1.519   5.642  14.042 -0.0083  1.5455  0.3749
 8307TIP3    H246413   1.470   5.551  13.932  1.2604 -1.1953  1.9839
 8308TIP3   OH246414   6.248   0.573  11.554  0.3024 -0.8618  0.0559
 8308TIP3    H146415   6.169   0.620  11.580  1.8874  1.8369  0.2604
 8308TIP3    H246416   6.233   0.483  11.585 -1.4837  0.2104  2.6376
 8309TIP3   OH246417   6.833   1.153  13.033 -0.0753 -0.3213  0.1820
 8309TIP3    H146418   6.850   1.197  12.949  1.1572 -0.0599  0.5427
 8309TIP3    H246419   6.876   1.209  13.098 -0.5952 -0.7861  0.9341
 8310TIP3   OH246420   4.754   5.457   6.418  0.3416 -0.1534 -0.3817
 8310TIP3    H146421   4.842   5.425   6.402 -0.1755 -1.2534 -1.1085
 8310TIP3    H246422   4.766   5.532   6.477  1.5332 -2.5035  2.6009
 8311TIP3   OH246423   1.737   2.477   0.199  0.3489 -0.0310 -0.5880
 8311TIP3    H146424   1.711   2.390   0.168  1.8731 -1.0885  0.8726
 8311TIP3    H246425   1.817   2.497   0.150  0.6079  0.0336 -0.1466
 8312TIP3   OH246426   1.194   2.847  14.095 -0.4182 -0.5776 -0.4369
 8312TIP3    H146427   1.183   2.759  14.058  0.0650 -0.9556  0.3040
 8312TIP3    H246428   1.282   2.846  14.132  0.1220  0.6730 -1.6247
 8313TIP3   OH246429   6.753   4.848  11.723 -0.3650 -0.4152  0.3051
 8313TIP3    H146430   6.804   4.821  11.799  0.8708  0.3956 -0.2161
 8313TIP3    H246431   6.784   4.792  11.652 -0.8879 -0.5718  0.1947
 8314TIP3   OH246432   3.901   3.123   2.949  0.5186  0.3191 -0.1131
 8314TIP3    H146433   3.860   3.162   3.025  1.3825 -0.3158  0.7000
 8314TIP3    H246434   3.925   3.197   2.893 -1.9662  0.7107 -0.7868
 8315TIP3   OH246435   2.977   0.982  16.480 -0.1051 -0.0267  0.0639
 8315TIP3    H146436   2.926   1.054  16.517 -0.0903  0.5379 -0.9739
 8315TIP3    H246437   3.067   0.998  16.508  0.6852  2.6613 -3.3092
 8316TIP3   OH246438   4.735   5.808  14.134 -0.4428  0.4540 -0.2153
 8316TIP3    H146439   4.715   5.884  14.188  1.1984  0.6309  0.2051
 8316TIP3    H246440   4.828   5.817  14.113 -0.9235  0.1802 -2.7861
 8317TIP3   OH246441   5.314   5.865   1.587  0.4353  0.2227 -0.1175
 8317TIP3    H146442   5.256   5.831   1.656 -0.6616 -0.1076 -1.1772
 8317TIP3    H246443   5.393   5.811   1.593 -0.8087 -1.8129 -1.0124
 8318TIP3   OH246444   0.729   1.602   4.758  0.0838  0.1184 -0.4465
 8318TIP3    H146445   0.712   1.509   4.774 -2.1514  0.6956  0.9573
 8318TIP3    H246446   0.813   1.619   4.802  0.0443 -1.0411  0.1128
 8319TIP3   OH246447   6.800   1.955   5.567  0.2590 -0.1023  0.1450
 8319TIP3    H146448   6.875   1.998   5.609  0.4281 -0.3726  0.1210
 8319TIP3    H246449   6.764   1.897   5.635  0.9397 -1.0496 -0.2756
 8320TIP3   OH246450   6.532   1.061   2.614 -0.9642  0.3477  0.3402
 8320TIP3    H146451   6.542   0.976   2.657  1.1838  0.0167 -0.6577
 8320TIP3    H246452   6.475   1.044   2.540 -0.5757 -0.2264  0.1672
 8321TIP3   OH246453   1.417   5.426  12.667  0.1533  0.2989  0.7262
 8321TIP3    H146454   1.445   5.507  12.710 -0.7240 -0.1092  2.1365
 8321TIP3    H246455   1.480   5.361  12.698 -0.3597  0.0466  1.2588
 8322TIP3   OH246456   4.738   5.138  12.772 -0.0403  0.2032  0.3336
 8322TIP3    H146457   4.674   5.074  12.801  0.9249 -1.2863 -0.6736
 8322TIP3    H246458   4.689   5.196  12.713 -0.3285 -1.4546 -1.1392
 8323TIP3   OH246459   1.280   1.557  15.068  0.0137 -0.5067  0.1513
 8323TIP3    H146460   1.354   1.591  15.119  0.5287 -0.3367 -0.6922
 8323TIP3    H246461   1.212   1.624  15.078  0.2405 -0.2958  0.3085
 8324TIP3   OH246462   5.575   0.312   2.897  0.3879 -0.0132 -0.2278
 8324TIP3    H146463   5.572   0.281   2.988  1.6960  1.1231  0.2556
 8324TIP3    H246464   5.520   0.251   2.848 -1.4638  0.1326  1.5536
 8325TIP3   OH246465   4.990   6.021   3.624  0.6539  0.0821  0.2851
 8325TIP3    H146466   5.073   6.000   3.581  0.7505  0.6511  0.1862
 8325TIP3    H246467   4.966   5.941   3.670 -0.4641 -1.2460 -2.4122
 8326TIP3   OH246468   4.598   6.571  14.792 -0.7715 -0.3279  0.2759
 8326TIP3    H146469   4.565   6.481  14.787 -1.0754 -0.1776 -0.7678
 8326TIP3    H246470   4.693   6.562  14.790 -0.8072 -0.5869 -1.1551
 8327TIP3   OH246471   3.218   3.023  12.335  0.0573  0.0211  0.1062
 8327TIP3    H146472   3.237   3.097  12.278  0.4146 -0.0963  0.0690
 8327TIP3    H246473   3.304   2.993  12.366 -0.1965  1.2413  2.2046
 8328TIP3   OH246474   2.705   1.865  14.475 -0.4074  0.0242  0.3858
 8328TIP3    H146475   2.790   1.896  14.506  0.1637 -2.2233  1.2361
 8328TIP3    H246476   2.655   1.851  14.555 -0.8776 -0.5716 -0.0083
 8329TIP3   OH246477   1.118   1.067  15.153 -0.3058  0.6482 -0.3176
 8329TIP3    H146478   1.143   1.159  15.152  2.2819  0.0103 -1.7150
 8329TIP3    H246479   1.152   1.031  15.071  0.3685 -1.9486  0.9784
 8330TIP3   OH246480   6.621   4.149  10.745 -0.0346 -0.1746  0.4866
 8330TIP3    H146481   6.528   4.135  10.766 -0.0255  0.9834  1.3698
 8330TIP3    H246482   6.668   4.098  10.811 -0.0037 -1.4230 -0.4420
 8331TIP3   OH246483   6.050   2.364  13.605  0.4063  0.2780  0.1731
 8331TIP3    H146484   6.105   2.317  13.542 -1.7732 -0.4618 -1.2747
 8331TIP3    H246485   6.060   2.456  13.581  3.2230  0.5257  1.8242
 8332TIP3   OH246486   1.314   6.661   1.496  0.4920 -0.0137  1.2168
 8332TIP3    H146487   1.257   6.694   1.566  0.9047  2.0689  0.6528
 8332TIP3    H246488   1.397   6.641   1.540 -0.2411 -1.8381  1.8270
 8333TIP3   OH246489   3.721   0.469   5.918 -0.3168  0.0968  0.3226
 8333TIP3    H146490   3.667   0.408   5.969 -0.8724  0.1582 -0.1930
 8333TIP3    H246491   3.775   0.513   5.984  0.4802 -1.3172  0.6727
 8334TIP3   OH246492   4.480   3.282   1.603 -0.2520 -0.0583 -0.4999
 8334TIP3    H146493   4.427   3.356   1.630 -0.2792 -0.8777  1.9892
 8334TIP3    H246494   4.557   3.285   1.660  0.9316 -0.5968 -1.9963
 8335TIP3   OH246495   0.252   0.261  16.401 -0.1128 -0.3307  0.1040
 8335TIP3    H146496   0.271   0.265  16.308  3.6238 -0.3836  0.7210
 8335TIP3    H246497   0.261   0.352  16.431  1.6622 -0.6818  0.7888
 8336TIP3   OH246498   6.555   6.285   1.382  0.2833  0.2403 -0.4916
 8336TIP3    H146499   6.504   6.365   1.386  0.4338  0.3699 -1.1781
 8336TIP3    H246500   6.493   6.217   1.354  0.2552  0.1912 -0.3176
 8337TIP3   OH246501   6.383   1.515  12.147 -0.0734  0.0428 -0.0682
 8337TIP3    H146502   6.371   1.517  12.052 -0.6391 -2.2612 -0.1090
 8337TIP3    H246503   6.443   1.442  12.163 -2.1503 -1.4511  1.4674
 8338TIP3   OH246504   5.789   2.761  16.460 -0.2278 -0.2006  0.6049
 8338TIP3    H146505   5.766   2.668  16.456 -0.0762 -0.2568  1.0223
 8338TIP3    H246506   5.822   2.774  16.549 -0.3220  0.2724  0.5724
 8339TIP3   OH246507   2.738   5.609  16.362 -0.0888  0.0402 -0.0020
 8339TIP3    H146508   2.774   5.645  16.281  1.3905 -1.2874 -0.0015
 8339TIP3    H246509   2.781   5.658  16.432  1.3659 -1.1201 -0.0149
 8340TIP3   OH246510   1.262   2.099   2.289 -0.3992  0.6530  0.4358
 8340TIP3    H146511   1.198   2.139   2.348 -0.6522  0.8208  0.0453
 8340TIP3    H246512   1.260   2.006   2.313 -4.3774 -0.3603 -2.7540
 8341TIP3   OH246513   6.644   5.144   0.052 -0.2486 -0.4031 -0.1102
 8341TIP3    H146514   6.724   5.149  -0.001 -1.6221 -0.3671 -2.3215
 8341TIP3    H246515   6.669   5.089   0.127  1.9177 -0.1105 -0.5291
 8342TIP3   OH246516   6.814   4.461   4.183 -0.4935  0.2598 -0.5369
 8342TIP3    H146517   6.864   4.428   4.257  0.6418 -1.0877 -1.8547
 8342TIP3    H246518   6.733   4.411   4.184 -0.2809 -0.0853 -0.4687
 8343TIP3   OH246519   0.172   1.721   2.463 -0.4584  0.4477 -0.4200
 8343TIP3    H146520   0.176   1.643   2.518  1.7966  0.8748  0.1412
 8343TIP3    H246521   0.237   1.706   2.394  0.2741  1.9385 -0.1005
 8344TIP3   OH246522   3.151   0.829   5.871 -0.1428 -0.3678  0.2370
 8344TIP3    H146523   3.172   0.740   5.841  2.6594  0.1544  0.3796
 8344TIP3    H246524   3.127   0.818   5.963 -0.3576 -1.0276  0.1070
 8345TIP3   OH246525   4.010   4.206   0.137  0.0443 -0.5984 -0.6245
 8345TIP3    H146526   4.043   4.168   0.056  0.0113 -2.1975  0.0702
 8345TIP3    H246527   4.047   4.151   0.206 -1.7004 -0.6582  0.3278
 8346TIP3   OH246528   0.126   1.285   0.526  0.0131 -0.0007 -0.0656
 8346TIP3    H146529   0.061   1.255   0.461  1.3614 -0.5168 -1.2246
 8346TIP3    H246530   0.210   1.274   0.482  0.7529  3.5447  0.2364
 8347TIP3   OH246531   4.098   2.618   3.316 -0.4418  0.2720 -0.1863
 8347TIP3    H146532   4.127   2.533   3.281  0.3898  0.8963 -1.0439
 8347TIP3    H246533   4.179   2.667   3.329 -0.8783  0.7181  0.9081
 8348TIP3   OH246534   1.139   1.634   3.189 -0.0760  0.7925 -0.1044
 8348TIP3    H146535   1.206   1.611   3.125 -0.2032 -0.6704  0.2354
 8348TIP3    H246536   1.056   1.615   3.144 -0.1479 -1.9855  1.0109
 8349TIP3   OH246537   3.067   1.318   0.297  0.1914  0.1633 -0.1697
 8349TIP3    H146538   3.139   1.269   0.256 -0.1061  0.5722 -1.2019
 8349TIP3    H246539   3.078   1.302   0.391  1.7605  0.3920 -0.2886
 8350TIP3   OH246540   2.511   1.363  14.323  0.4273 -0.5372 -0.9210
 8350TIP3    H146541   2.511   1.328  14.412 -0.1668 -3.1984 -1.8631
 8350TIP3    H246542   2.569   1.438  14.326 -0.9994  0.5753  2.0942
 8351TIP3   OH246543   3.653   6.041   4.130  0.3576 -0.7444  0.6466
 8351TIP3    H146544   3.736   5.994   4.126  0.7047 -0.0494 -1.5103
 8351TIP3    H246545   3.678   6.132   4.145  0.0728 -0.4110 -0.7675
 8352TIP3   OH246546   0.227   0.390   4.589 -0.5867  0.3809  0.2036
 8352TIP3    H146547   0.257   0.302   4.563 -1.7185  0.2865 -0.8185
 8352TIP3    H246548   0.271   0.405   4.672  1.2158 -0.3269 -0.5596
 8353TIP3   OH246549   2.137   2.412   0.752 -0.2743 -0.0086 -0.3808
 8353TIP3    H146550   2.086   2.404   0.832  3.6582 -1.1937  2.3055
 8353TIP3    H246551   2.130   2.327   0.710  0.0391 -0.4245  0.3873
 8354TIP3   OH246552   4.652   6.280  17.042  0.2357 -0.2776 -0.2015
 8354TIP3    H146553   4.593   6.205  17.033  0.6929 -0.5333 -1.1835
 8354TIP3    H246554   4.634   6.315  17.130 -0.8321 -0.8055 -0.2029
 8355TIP3   OH246555   4.864   1.200  11.214  0.1115 -0.2571  0.2075
 8355TIP3    H146556   4.915   1.223  11.137  1.1681  1.2203  1.2877
 8355TIP3    H246557   4.785   1.253  11.208  0.1203 -0.2611  0.0656
 8356TIP3   OH246558   4.864   6.207   4.801  0.7022  0.0061 -0.1780
 8356TIP3    H146559   4.869   6.302   4.802 -0.0631  0.0492  0.3515
 8356TIP3    H246560   4.889   6.180   4.889 -0.1297 -0.2098  0.0065
 8357TIP3   OH246561   0.756   2.280  16.816  0.3612  0.1371 -0.2140
 8357TIP3    H146562   0.768   2.213  16.884 -0.1787  1.1663  0.9378
 8357TIP3    H246563   0.719   2.355  16.862 -1.4999  0.3556 -1.9385
 8358TIP3   OH246564   1.956   0.712   5.890 -0.6416 -0.5165  0.0709
 8358TIP3    H146565   2.017   0.782   5.868 -0.2161 -0.5416  1.0916
 8358TIP3    H246566   1.916   0.687   5.807 -0.2308  0.4048 -0.4163
 8359TIP3   OH246567   4.141   0.598  14.932  0.2984  0.3609  0.1410
 8359TIP3    H146568   4.106   0.686  14.921  0.3119  0.4739  0.9110
 8359TIP3    H246569   4.165   0.570  14.844 -0.5326  0.7740 -0.2259
 8360TIP3   OH246570   1.964   1.323   4.234  0.2634 -0.1074  0.4289
 8360TIP3    H146571   2.048   1.277   4.235 -0.4361 -1.4502  0.7116
 8360TIP3    H246572   1.952   1.355   4.323  0.5686  0.2559  0.3381
 8361TIP3   OH246573   4.247   2.407   6.083 -0.1879  0.3653 -0.3829
 8361TIP3    H146574   4.319   2.373   6.030 -0.7971 -0.6655 -0.5821
 8361TIP3    H246575   4.253   2.502   6.075 -0.2383  0.2364 -2.2732
 8362TIP3   OH246576   0.041   0.457  15.396  0.4035 -0.1774 -0.4194
 8362TIP3    H146577   0.121   0.412  15.370  0.5975 -0.9854  1.3885
 8362TIP3    H246578  -0.029   0.409  15.352  0.7314 -1.2714  0.2186
 8363TIP3   OH246579   4.809   6.810   1.257  0.3368  0.4066 -0.5671
 8363TIP3    H146580   4.817   6.733   1.312 -1.3894  0.9536  0.5217
 8363TIP3    H246581   4.899   6.843   1.248  0.8550 -0.6429  0.5300
 8364TIP3   OH246582   4.490   5.394   0.770 -0.0246 -0.4401 -0.1122
 8364TIP3    H146583   4.434   5.347   0.832  0.7453 -2.1930 -0.6810
 8364TIP3    H246584   4.542   5.453   0.824 -2.5125  1.4495  0.4220
 8365TIP3   OH246585   5.296   0.386   2.205  0.0432  0.7295 -0.1544
 8365TIP3    H146586   5.392   0.380   2.207  0.0183 -0.0750  2.2899
 8365TIP3    H246587   5.268   0.306   2.161  0.4872  0.3423  0.2456
 8366TIP3   OH246588   5.477   6.803  14.961 -0.1691  0.2426  0.6233
 8366TIP3    H146589   5.462   6.892  14.930  0.0083 -0.3072 -1.1560
 8366TIP3    H246590   5.450   6.747  14.888  1.7826 -1.0755  0.8298
 8367TIP3   OH246591   0.622   2.658  13.336 -0.1866 -0.4045 -0.8105
 8367TIP3    H146592   0.660   2.721  13.397 -1.5978 -0.6894  0.4120
 8367TIP3    H246593   0.539   2.699  13.309 -0.1885 -0.8717 -1.5314
 8368TIP3   OH246594   6.029   4.104   2.612 -0.0755  0.1986  0.1172
 8368TIP3    H146595   6.095   4.130   2.675 -0.6483 -0.5550  1.0721
 8368TIP3    H246596   6.012   4.012   2.633 -0.3070 -0.0559 -1.1219
 8369TIP3   OH246597   6.672   4.647  15.669  0.1366  0.3671  0.4440
 8369TIP3    H146598   6.708   4.558  15.672  0.3955  0.2643 -2.3680
 8369TIP3    H246599   6.580   4.634  15.645  0.1900  0.8352 -0.0318
 8370TIP3   OH246600   1.689   5.818  16.951  0.5305 -0.3056 -0.0454
 8370TIP3    H146601   1.773   5.790  16.988 -0.1099 -0.4672  1.3719
 8370TIP3    H246602   1.655   5.739  16.908 -0.0501 -1.0199  1.6346
 8371TIP3   OH246603   1.915   0.622  16.929 -0.2694 -0.2519 -0.1770
 8371TIP3    H146604   1.901   0.634  17.023  0.8865  1.3965 -0.1799
 8371TIP3    H246605   1.964   0.699  16.901  0.8778 -1.5047 -1.8342
 8372TIP3   OH246606   4.262   2.155  16.158  0.2124 -0.0993 -0.3555
 8372TIP3    H146607   4.326   2.087  16.177  0.4228 -0.0605 -0.9043
 8372TIP3    H246608   4.271   2.218  16.229  0.2423 -0.4819 -0.0162
 8373TIP3   OH246609   2.073   3.316  14.335  0.4193 -0.2299 -0.6105
 8373TIP3    H146610   2.159   3.350  14.361  0.4173 -1.3768  1.1021
 8373TIP3    H246611   2.010   3.375  14.376  0.4189 -1.9046  2.0828
 8374TIP3   OH246612   5.954   2.164   3.430  0.3556 -0.1320  0.4281
 8374TIP3    H146613   5.940   2.152   3.336  0.3713  1.0931  0.2590
 8374TIP3    H246614   6.040   2.204   3.437  0.2967 -0.0878  0.9580
 8375TIP3   OH246615   2.335   3.065   2.254 -0.9221 -0.0640 -0.1117
 8375TIP3    H146616   2.247   3.028   2.253  0.0780 -2.7869  0.9879
 8375TIP3    H246617   2.366   3.050   2.343  0.8826  0.1841 -0.6516
 8376TIP3   OH246618   1.478   5.107  12.105  0.0893 -0.2161  0.5630
 8376TIP3    H146619   1.502   5.016  12.122  0.6166 -0.0278  0.8622
 8376TIP3    H246620   1.389   5.102  12.070  0.1081 -0.8437  0.5834
 8377TIP3   OH246621   4.993   0.117  13.279 -0.2767  0.1836  0.0237
 8377TIP3    H146622   4.921   0.165  13.320 -1.1694 -0.5036 -0.7035
 8377TIP3    H246623   4.969   0.025  13.287  0.6433 -0.0764 -0.0207
 8378TIP3   OH246624   3.863   1.753  13.931  0.2655  0.5670  0.6311
 8378TIP3    H146625   3.928   1.790  13.871  0.0598  0.7683  0.5323
 8378TIP3    H246626   3.825   1.828  13.975 -0.2977  0.4881  0.2790
 8379TIP3   OH246627   2.971   0.150  12.491  0.5846  0.1021 -0.4477
 8379TIP3    H146628   3.007   0.120  12.408  4.1608  0.8667  0.6437
 8379TIP3    H246629   2.974   0.072  12.548  1.7484  0.4213 -0.0359
 8380TIP3   OH246630   3.908   2.871   5.636  0.6697 -0.3660  0.1057
 8380TIP3    H146631   3.955   2.948   5.604  1.6885 -0.2244  1.8192
 8380TIP3    H246632   3.896   2.816   5.559  0.5167  1.1856 -1.0282
 8381TIP3   OH246633   3.505   5.749  15.556 -0.3763  0.2634 -0.1418
 8381TIP3    H146634   3.499   5.657  15.532 -0.6420 -0.0672  1.1681
 8381TIP3    H246635   3.416   5.782  15.547 -0.3234  0.3456 -0.3841
 8382TIP3   OH246636   1.862   2.277  14.874 -0.0103 -0.1267 -0.1081
 8382TIP3    H146637   1.931   2.309  14.933 -0.5235 -0.1263  0.5099
 8382TIP3    H246638   1.871   2.330  14.795  0.5182  0.0604  0.0747
 8383TIP3   OH246639   0.218   0.930   5.275  0.0731  0.5213  0.0871
 8383TIP3    H146640   0.283   0.883   5.328 -0.5449  2.4558  2.7600
 8383TIP3    H246641   0.141   0.934   5.332 -1.3562  0.9783 -1.8086
 8384TIP3   OH246642   5.089   5.417  17.083 -0.3296 -0.0553 -0.2377
 8384TIP3    H146643   5.164   5.460  17.042  1.0231 -2.6309 -0.6533
 8384TIP3    H246644   5.104   5.427  17.177  0.1517  0.0411 -0.3243
 8385TIP3   OH246645   1.739   4.791   5.592  0.5215  0.1891 -0.4119
 8385TIP3    H146646   1.781   4.708   5.569 -1.7579 -1.3255  0.4864
 8385TIP3    H246647   1.805   4.839   5.642  1.9352 -1.0406 -1.0340
 8386TIP3   OH246648   4.281   0.840  13.317  0.2571 -0.6586 -0.2778
 8386TIP3    H146649   4.288   0.907  13.249 -0.6148  0.5584  0.7997
 8386TIP3    H246650   4.302   0.758  13.271  0.1658  0.1742 -1.8931
 8387TIP3   OH246651   5.498   4.173  12.635  0.0065  0.6105  0.2384
 8387TIP3    H146652   5.420   4.211  12.596 -0.4865  0.2872  0.8836
 8387TIP3    H246653   5.502   4.210  12.723 -0.0627 -0.2262  0.6091
 8388TIP3   OH246654   5.860   3.262  12.894 -0.5723 -0.1373  0.1563
 8388TIP3    H146655   5.953   3.247  12.907 -0.4863 -1.3355 -1.5638
 8388TIP3    H246656   5.819   3.177  12.910 -1.7112  0.8516  3.1633
 8389TIP3   OH246657   6.422   1.348  13.384 -0.2711  0.5222 -0.8465
 8389TIP3    H146658   6.452   1.439  13.380 -0.6789  0.6317 -1.6565
 8389TIP3    H246659   6.449   1.310  13.301 -0.5570  0.0486 -0.7253
 8390TIP3   OH246660   2.121   0.589   4.476 -0.5711  0.2525 -0.2371
 8390TIP3    H146661   2.080   0.561   4.558 -0.3741 -1.8285 -0.7924
 8390TIP3    H246662   2.096   0.522   4.412  0.8016  0.8301 -1.4342
 8391TIP3   OH246663   5.214   0.579   4.215 -0.4182 -0.2192  0.3545
 8391TIP3    H146664   5.300   0.543   4.193 -0.3141 -0.2751  0.8575
 8391TIP3    H246665   5.156   0.503   4.218 -0.6537 -0.1019 -0.7509
 8392TIP3   OH246666   0.211   2.247   1.289  1.0423  1.0961 -0.6812
 8392TIP3    H146667   0.130   2.239   1.239  1.1988  2.4076 -1.1764
 8392TIP3    H246668   0.262   2.169   1.266 -0.5313 -0.3640  0.5397
 8393TIP3   OH246669   0.684   3.113   3.076 -0.0263  0.5451  0.3345
 8393TIP3    H146670   0.621   3.165   3.126 -1.6641 -1.4721  0.5419
 8393TIP3    H246671   0.769   3.153   3.094 -1.0689  2.5281  1.1925
 8394TIP3   OH246672   3.499   2.354   4.584  0.4113  0.0780 -0.0644
 8394TIP3    H146673   3.423   2.303   4.614  2.2620 -1.3719  2.5638
 8394TIP3    H246674   3.548   2.294   4.529  1.4238 -0.2833  1.1769
 8395TIP3   OH246675   3.254   0.128   2.364 -0.5705 -0.1160  0.2775
 8395TIP3    H146676   3.275   0.199   2.424 -0.7597  0.5290 -0.4050
 8395TIP3    H246677   3.162   0.141   2.341 -1.2405 -1.8114  1.7534
 8396TIP3   OH246678   3.987   3.429   5.049  0.1830  0.1370 -0.0064
 8396TIP3    H146679   4.079   3.407   5.064  0.0282  0.5523  1.7370
 8396TIP3    H246680   3.953   3.450   5.136 -1.0220  2.0054 -0.8729
 8397TIP3   OH246681   4.264   4.720   0.969 -0.0638 -0.1326  0.4874
 8397TIP3    H146682   4.195   4.778   0.935  0.7444  0.4187 -0.2648
 8397TIP3    H246683   4.264   4.736   1.063  0.1851  1.1585  0.2924
 8398TIP3   OH246684   5.954   1.336   5.251 -0.7136 -0.6113 -0.0879
 8398TIP3    H146685   5.909   1.252   5.241 -2.9046  0.6259 -1.2249
 8398TIP3    H246686   5.928   1.367   5.338 -3.7218  0.8955 -1.3742
 8399TIP3   OH246687   6.055   0.975  11.858 -0.5028 -0.1239 -0.4554
 8399TIP3    H146688   6.081   1.061  11.891 -0.1481 -0.0337 -0.9519
 8399TIP3    H246689   6.136   0.936  11.826 -0.6056 -0.7910  0.0821
 8400TIP3   OH246690   3.948   6.301  17.040 -0.3025 -0.0775  0.5174
 8400TIP3    H146691   3.965   6.216  16.998 -1.5555  0.3003 -0.8165
 8400TIP3    H246692   3.964   6.284  17.133 -0.0095 -1.6416  0.2221
 8401TIP3   OH246693   2.493   6.032   1.786 -0.3163 -0.4090 -0.3738
 8401TIP3    H146694   2.465   6.093   1.718 -0.4747  1.6648  1.4314
 8401TIP3    H246695   2.558   6.081   1.836 -1.9907 -0.8177  2.4409
 8402TIP3   OH246696   1.941   1.909   0.127 -0.3799 -0.2026 -0.1157
 8402TIP3    H146697   2.029   1.920   0.161 -0.3764  0.0555 -0.2018
 8402TIP3    H246698   1.912   1.824   0.160 -1.0194  0.7660  1.9621
 8403TIP3   OH246699   1.621   2.426   1.758 -0.0760  0.1687  0.3692
 8403TIP3    H146700   1.676   2.435   1.681 -0.5039 -0.4682 -0.0241
 8403TIP3    H246701   1.583   2.513   1.771  0.5701  0.4629  0.3069
 8404TIP3   OH246702   5.931   0.664   6.259  0.2547 -0.2636 -0.2824
 8404TIP3    H146703   5.984   0.695   6.185  0.2554 -0.7119 -0.4761
 8404TIP3    H246704   5.948   0.570   6.262  0.1156 -0.2741  0.1819
 8405TIP3   OH246705   1.054   0.111   1.118 -0.3239  0.3125  0.3151
 8405TIP3    H146706   0.983   0.125   1.181 -0.0223  0.2386  0.6754
 8405TIP3    H246707   1.105   0.192   1.121 -0.5889  0.5029 -0.2018
 8406TIP3   OH246708   6.799   6.194   3.683  0.0716  0.1789  0.2847
 8406TIP3    H146709   6.868   6.257   3.665 -1.7095  2.1802  0.0681
 8406TIP3    H246710   6.742   6.197   3.606  0.1152 -2.0330  0.0869
 8407TIP3   OH246711   0.242   3.084   1.285  0.5117 -0.8493 -0.1448
 8407TIP3    H146712   0.217   3.155   1.344 -0.2149 -2.1470  1.1817
 8407TIP3    H246713   0.315   3.041   1.329  0.1638 -1.6510 -0.3283
 8408TIP3   OH246714   3.849   3.543  13.442 -0.3676 -0.3857 -0.1223
 8408TIP3    H146715   3.796   3.594  13.381 -0.8768 -0.6908  0.0558
 8408TIP3    H246716   3.923   3.511  13.390 -0.4084 -0.0341 -0.3973
 8409TIP3   OH246717   6.816   2.117   5.170  0.3190 -0.0338  0.5277
 8409TIP3    H146718   6.844   2.092   5.082  2.5876 -1.3540  1.5544
 8409TIP3    H246719   6.896   2.113   5.223 -0.9462  0.9086  2.6315
 8410TIP3   OH246720   2.392   5.187   5.950 -0.6932  0.6073  0.0234
 8410TIP3    H146721   2.328   5.212   5.884 -0.1764  0.2338 -0.6272
 8410TIP3    H246722   2.464   5.149   5.901 -0.3550  0.2011  0.8141
 8411TIP3   OH246723   3.560   6.352   5.007 -0.1593  0.4782 -0.1914
 8411TIP3    H146724   3.518   6.332   5.091  0.4400  0.8372  0.1947
 8411TIP3    H246725   3.597   6.439   5.019  1.2512 -0.0911 -0.3127
 8412TIP3   OH246726   5.709   4.332   0.609  0.1139 -0.2428  0.4268
 8412TIP3    H146727   5.691   4.279   0.532  0.0007  0.9245 -0.3748
 8412TIP3    H246728   5.782   4.288   0.652  0.1971 -0.8935 -0.3549
 8413TIP3   OH246729   4.416   3.167  16.325  0.3801  0.4578  0.0596
 8413TIP3    H146730   4.412   3.249  16.276 -1.3003 -0.0807 -0.7872
 8413TIP3    H246731   4.395   3.191  16.415 -0.9377  0.8702 -0.3359
 8414TIP3   OH246732   1.419   2.213  14.091  0.5394  0.4850 -0.5808
 8414TIP3    H146733   1.476   2.136  14.083  1.0486  0.4965  2.0206
 8414TIP3    H246734   1.348   2.185  14.149  1.1638  2.1234  1.0814
 8415TIP3   OH246735   4.571   4.911  12.840  0.0007  0.3059 -0.4342
 8415TIP3    H146736   4.483   4.875  12.826 -0.4852  0.8993  0.8253
 8415TIP3    H246737   4.626   4.835  12.857 -0.6790  0.0115  0.6049
 8416TIP3   OH246738   3.031   0.993   0.589  0.5248 -0.7334 -0.2635
 8416TIP3    H146739   2.951   0.989   0.536  0.9770 -1.1426 -0.9304
 8416TIP3    H246740   3.000   0.985   0.679 -0.1180 -2.0360 -0.5693
 8417TIP3   OH246741   4.864   0.476  16.086 -0.0763  0.4124 -0.3000
 8417TIP3    H146742   4.916   0.481  16.167 -1.7159  0.3064  0.8017
 8417TIP3    H246743   4.822   0.390  16.090  0.0734  0.2775 -1.4397
 8418TIP3   OH246744   4.656   0.505   4.301 -0.4171 -0.1670  0.6362
 8418TIP3    H146745   4.613   0.441   4.358  0.2362 -0.4054  0.8662
 8418TIP3    H246746   4.627   0.590   4.333 -2.5086 -0.3461 -0.6088
 8419TIP3   OH246747   5.709   4.358  16.258 -0.0093  0.0516 -0.4029
 8419TIP3    H146748   5.702   4.263  16.256 -0.3065  0.0790 -1.1623
 8419TIP3    H246749   5.797   4.375  16.291 -0.4660 -0.4478  1.1680
 8420TIP3   OH246750   2.455   1.911  13.767 -0.2644 -0.2184  0.4138
 8420TIP3    H146751   2.487   1.919  13.677 -2.0482 -0.3362 -0.2725
 8420TIP3    H246752   2.482   1.992  13.810 -1.0142  0.6915 -0.7819
 8421TIP3   OH246753   6.268   4.774  15.536  0.6686 -0.0703  0.4878
 8421TIP3    H146754   6.319   4.838  15.487  1.0613 -1.3573 -0.8425
 8421TIP3    H246755   6.311   4.690  15.520 -2.0320 -1.3250 -1.0783
 8422TIP3   OH246756   2.940   6.078   4.265  0.5040  0.2287  0.5124
 8422TIP3    H146757   2.922   5.998   4.315  1.8041  0.4235  1.3417
 8422TIP3    H246758   2.933   6.148   4.330  0.5740  0.6663  0.0494
 8423TIP3   OH246759   0.723   2.001   2.794 -0.6259  0.3254 -0.6862
 8423TIP3    H146760   0.815   1.976   2.793 -1.6983 -5.2677 -3.2222
 8423TIP3    H246761   0.697   1.997   2.886  1.0855 -1.2195 -0.2112
 8424TIP3   OH246762   0.213   2.032  10.532 -0.5149  0.2420  0.2580
 8424TIP3    H146763   0.124   2.062  10.516 -0.7500 -0.3287  0.4734
 8424TIP3    H246764   0.236   1.982  10.454 -0.0057  1.2235 -0.2438
 8425TIP3   OH246765   1.592   5.565  15.017 -0.4991  0.4977  0.1869
 8425TIP3    H146766   1.660   5.531  14.959 -0.0748 -0.3989  1.1838
 8425TIP3    H246767   1.510   5.550  14.970 -0.0836  0.9561 -0.7221
 8426TIP3   OH246768   2.367   4.561   0.777  0.1778 -0.5929 -0.3476
 8426TIP3    H146769   2.287   4.594   0.816 -0.9990 -1.2860 -2.0670
 8426TIP3    H246770   2.366   4.467   0.795  1.9083 -0.2813  1.7697
 8427TIP3   OH246771   0.049   0.675  15.544 -0.4897  0.2069 -0.4383
 8427TIP3    H146772   0.050   0.584  15.513  0.0457  0.6167 -1.6735
 8427TIP3    H246773   0.141   0.702  15.541 -0.6194  0.7365  0.1335
 8428TIP3   OH246774   1.935   4.951  16.283 -0.4433  0.3753  0.3570
 8428TIP3    H146775   1.871   4.990  16.224  0.0418  0.0412 -0.4048
 8428TIP3    H246776   1.980   5.027  16.322  0.0028  0.6027 -0.5685
 8429TIP3   OH246777   4.319   3.877   0.176  0.3074 -0.0933  0.1814
 8429TIP3    H146778   4.348   3.799   0.128  0.2127  0.3079 -0.5561
 8429TIP3    H246779   4.394   3.937   0.174 -0.0502  0.3523 -0.4253
 8430TIP3   OH246780   0.439   6.120   3.227  0.0907 -0.5096 -0.6127
 8430TIP3    H146781   0.419   6.167   3.308 -0.2099 -1.2447 -0.2506
 8430TIP3    H246782   0.437   6.188   3.159  1.6370  0.3426  0.1514
 8431TIP3   OH246783   5.733   6.722  16.946  0.2091  0.7995  0.1921
 8431TIP3    H146784   5.668   6.685  16.886 -0.1373 -0.2507  1.1829
 8431TIP3    H246785   5.801   6.656  16.951  0.3996  1.0302  0.7037
 8432TIP3   OH246786   1.640   4.660   0.893 -0.0880  0.1132 -0.7621
 8432TIP3    H146787   1.641   4.755   0.889 -1.1649  0.1338 -0.7290
 8432TIP3    H246788   1.636   4.632   0.801  0.5962  0.0759 -0.7919
 8433TIP3   OH246789   2.958   3.009  13.523 -0.3145  0.1554  0.2260
 8433TIP3    H146790   2.868   3.035  13.506 -0.1898 -0.7972 -2.4100
 8433TIP3    H246791   2.963   2.997  13.618 -2.7672  0.8250  0.4873
 8434TIP3   OH246792   1.325   6.119  15.769  0.0453  0.0074 -0.0065
 8434TIP3    H146793   1.292   6.061  15.700 -2.9047 -0.2284  1.4347
 8434TIP3    H246794   1.266   6.194  15.768  0.9970  0.8153  1.1586
 8435TIP3   OH246795   5.111   4.272  15.899  0.2423 -0.2152 -0.0264
 8435TIP3    H146796   5.109   4.286  15.805 -0.6787  0.3207  0.0600
 8435TIP3    H246797   5.160   4.347  15.934 -0.5755  0.3192  0.0194
 8436TIP3   OH246798   3.225   6.596   3.331 -0.3747  0.5394  0.3517
 8436TIP3    H146799   3.296   6.539   3.302 -0.3510  0.7646 -0.0420
 8436TIP3    H246800   3.151   6.571   3.277 -0.5978  0.3085  0.7597
 8437TIP3   OH246801   2.941   2.600   5.139  0.2817  0.0848  0.0555
 8437TIP3    H146802   2.889   2.680   5.142  0.0241 -0.0873  0.2108
 8437TIP3    H246803   3.011   2.619   5.077 -0.4845  0.0099 -0.8524
 8438TIP3   OH246804   5.914   0.266  16.640  0.0340  0.0834  0.4545
 8438TIP3    H146805   5.999   0.308  16.649  0.4461 -0.5303 -0.3999
 8438TIP3    H246806   5.933   0.172  16.644 -0.3651 -0.1042 -1.3075
 8439TIP3   OH246807   0.869   2.565  12.370 -0.0690  0.1082 -0.1175
 8439TIP3    H146808   0.883   2.607  12.454  0.1156  0.2735 -0.2283
 8439TIP3    H246809   0.775   2.570  12.355  0.0116  1.0674 -0.4239
 8440TIP3   OH246810   4.962   3.534  12.002  0.1504  0.4038 -0.3338
 8440TIP3    H146811   5.054   3.508  12.003  0.3216  0.8850 -1.5792
 8440TIP3    H246812   4.951   3.587  12.081  0.9940  0.5206 -0.2859
 8441TIP3   OH246813   1.270   5.036   6.051 -0.2798 -0.2331  0.9602
 8441TIP3    H146814   1.247   5.126   6.028  1.5352 -0.2617 -1.3790
 8441TIP3    H246815   1.356   5.042   6.090  0.2933 -0.9968 -0.1192
 8442TIP3   OH246816   3.518   3.957  12.268  0.1332 -0.1522 -1.1665
 8442TIP3    H146817   3.492   4.043  12.302  0.2187 -0.4356 -0.3636
 8442TIP3    H246818   3.569   3.918  12.338  2.0063  0.0227 -2.3563
 8443TIP3   OH246819   2.478   0.807  12.800  0.1651 -0.0937 -0.8465
 8443TIP3    H146820   2.414   0.737  12.785 -0.1261 -0.1777  0.5906
 8443TIP3    H246821   2.443   0.855  12.875  0.8730  0.9916 -1.1869
 8444TIP3   OH246822   3.350   3.798   5.472  0.8455 -0.5633 -0.0946
 8444TIP3    H146823   3.285   3.784   5.403  1.0512 -1.0144 -0.2002
 8444TIP3    H246824   3.354   3.715   5.519  2.1674 -0.9309 -0.7957
 8445TIP3   OH246825   3.211   1.449   0.072  0.3512 -0.1867 -0.7440
 8445TIP3    H146826   3.261   1.367   0.069 -0.0815 -0.5961  1.7028
 8445TIP3    H246827   3.121   1.422   0.093  0.6672  0.9585  2.7314
 8446TIP3   OH246828   5.672   0.430  13.511  0.0676  0.3116 -1.1499
 8446TIP3    H146829   5.651   0.348  13.465  2.5003 -0.2462 -1.3938
 8446TIP3    H246830   5.749   0.464  13.466 -0.2564  2.2004 -0.3592
 8447TIP3   OH246831   5.006   3.193   1.693 -0.6477  0.0605  0.2678
 8447TIP3    H146832   5.006   3.115   1.637 -0.4781  0.8566 -0.8860
 8447TIP3    H246833   4.993   3.159   1.782  1.2465 -1.4375  0.0346
 8448TIP3   OH246834   5.468   5.445   4.958 -0.6172 -0.3822  0.4852
 8448TIP3    H146835   5.412   5.389   5.012 -1.9780 -0.9883 -1.4440
 8448TIP3    H246836   5.537   5.387   4.926 -0.7075 -0.3982  0.3199
 8449TIP3   OH246837   6.582   0.732   1.283 -0.5545 -0.0175 -0.1122
 8449TIP3    H146838   6.596   0.803   1.220 -0.8618 -1.5181 -2.0007
 8449TIP3    H246839   6.508   0.683   1.246  0.2168 -1.8074  0.6297
 8450TIP3   OH246840   4.046   5.790  13.217  0.8932 -0.1587 -0.1403
 8450TIP3    H146841   4.013   5.795  13.307 -1.0069  0.4857 -0.8107
 8450TIP3    H246842   4.135   5.758  13.225  0.7936 -0.0137  1.9811
 8451TIP3   OH246843   4.373   4.212  14.704  0.1473 -0.1281 -0.5588
 8451TIP3    H146844   4.388   4.266  14.627  1.3656 -0.2445 -0.4140
 8451TIP3    H246845   4.300   4.155  14.680  1.7462 -1.5145 -2.3372
 8452TIP3   OH246846   1.069   4.610  15.258 -0.0003  0.3461  0.5755
 8452TIP3    H146847   1.033   4.691  15.294 -2.7572 -0.7942  0.6211
 8452TIP3    H246848   1.036   4.608  15.168  2.4760  0.6031 -0.4339
 8453TIP3   OH246849   6.354   4.538  13.463  0.1307  0.1841  0.1345
 8453TIP3    H146850   6.300   4.618  13.465 -1.5723 -0.8354 -1.5742
 8453TIP3    H246851   6.383   4.527  13.554 -0.9757  1.8393  0.7502
 8454TIP3   OH246852   3.558   4.218  12.967 -0.4058 -0.4732  0.4486
 8454TIP3    H146853   3.512   4.145  12.925 -1.0345  1.1874 -1.9490
 8454TIP3    H246854   3.649   4.188  12.973 -1.0471 -2.3693  1.8568
 8455TIP3   OH246855   2.952   5.314  13.568 -0.5176  0.2465 -0.1012
 8455TIP3    H146856   3.024   5.352  13.617 -1.2496  1.0328  0.3997
 8455TIP3    H246857   2.936   5.375  13.496  1.5294 -1.6462 -2.2920
 8456TIP3   OH246858   0.225   5.093   3.285 -0.5786 -0.0092 -0.2097
 8456TIP3    H146859   0.251   5.021   3.227 -0.8680 -0.1025 -0.2250
 8456TIP3    H246860   0.189   5.050   3.362  0.5163  0.0973  0.3892
 8457TIP3   OH246861   5.454   4.902   6.192 -0.0712  0.1938  0.1111
 8457TIP3    H146862   5.382   4.912   6.129  0.1182  1.5630  0.0681
 8457TIP3    H246863   5.530   4.883   6.138 -0.3871 -1.3196  0.1612
 8458TIP3   OH246864   3.516   3.097  14.855  0.0253  0.2232  0.3577
 8458TIP3    H146865   3.541   3.004  14.858 -0.3748  0.0746 -0.4314
 8458TIP3    H246866   3.594   3.142  14.824  0.3820  0.2206  1.2393
 8459TIP3   OH246867   3.990   2.400   1.210 -0.6508 -0.9134 -0.0786
 8459TIP3    H146868   4.059   2.463   1.190 -0.6711 -0.8396  0.0882
 8459TIP3    H246869   3.964   2.365   1.124  1.4717 -2.9591  0.0326
 8460TIP3   OH246870   4.546   5.502  15.640  0.0325 -0.2363 -0.5701
 8460TIP3    H146871   4.620   5.550  15.603 -0.1660  1.4257  1.0695
 8460TIP3    H246872   4.585   5.422  15.676  0.4436 -1.1644 -2.8872
 8461TIP3   OH246873   4.207   5.170   2.689  0.6663  0.4547 -0.4302
 8461TIP3    H146874   4.232   5.089   2.645 -1.4126  0.5621 -1.9761
 8461TIP3    H246875   4.187   5.142   2.779  0.2946 -0.7066 -0.8463
 8462TIP3   OH246876   0.455   6.475   4.797  0.1330  0.0703  0.4915
 8462TIP3    H146877   0.364   6.471   4.768 -0.0444  0.7867  0.9322
 8462TIP3    H246878   0.462   6.407   4.864  0.1592 -0.5645 -0.1265
 8463TIP3   OH246879   2.458   1.207  14.103  0.1635 -0.1848  0.1179
 8463TIP3    H146880   2.503   1.276  14.153  1.2365 -0.1999 -0.8000
 8463TIP3    H246881   2.527   1.146  14.078 -0.3408 -0.1833 -1.3818
 8464TIP3   OH246882   5.798   3.668   4.161  0.1436  0.2590  0.2783
 8464TIP3    H146883   5.827   3.753   4.193  1.8213 -0.2802  0.2502
 8464TIP3    H246884   5.872   3.609   4.175 -1.2922 -1.4577  1.1879
 8465TIP3   OH246885   1.713   3.668   1.078  0.1371  0.3998  0.2289
 8465TIP3    H146886   1.807   3.663   1.092  0.1493 -0.5783 -0.0935
 8465TIP3    H246887   1.689   3.757   1.101  1.2514  0.8539 -0.3133
 8466TIP3   OH246888   5.408   4.196   6.585 -0.4013  0.5354 -0.0949
 8466TIP3    H146889   5.480   4.251   6.556  0.3328 -0.6651 -0.6343
 8466TIP3    H246890   5.333   4.255   6.589  0.4434  1.6580 -0.2085
 8467TIP3   OH246891   1.537   0.493  12.967  0.5635 -0.7064  0.5536
 8467TIP3    H146892   1.535   0.403  13.000 -1.5764 -0.7932  0.3557
 8467TIP3    H246893   1.499   0.545  13.037 -2.9348 -0.7300 -1.1326
 8468TIP3   OH246894   1.213   2.618   1.984 -0.0677 -0.9512 -0.2724
 8468TIP3    H146895   1.279   2.634   1.916  0.5442  0.1010  0.5415
 8468TIP3    H246896   1.262   2.617   2.066 -0.8586 -1.7749  0.2031
 8469TIP3   OH246897   0.184   2.696   0.540  0.1271 -0.0298 -0.3751
 8469TIP3    H146898   0.126   2.772   0.547  1.1926  0.6672  1.4784
 8469TIP3    H246899   0.147   2.645   0.467 -1.4413  1.5245 -0.7473
 8470TIP3   OH246900   5.119   2.335   1.484 -0.2270 -0.2303 -0.1379
 8470TIP3    H146901   5.202   2.313   1.527  0.5725  2.0424 -0.4027
 8470TIP3    H246902   5.144   2.370   1.399 -1.2339  2.3294  0.5127
 8471TIP3   OH246903   3.050   3.987  13.421 -0.9189  0.4547 -0.0215
 8471TIP3    H146904   3.012   3.916  13.370  0.4570  1.1028 -2.0563
 8471TIP3    H246905   3.136   3.953  13.449 -1.0698  0.6276  0.6856
 8472TIP3   OH246906   5.025   1.579  15.568  0.6932  0.5048  0.3510
 8472TIP3    H146907   5.054   1.628  15.644 -0.6421  2.1566 -0.1522
 8472TIP3    H246908   4.933   1.558  15.585  0.9117 -0.8382  0.0372
 8473TIP3   OH246909   1.999   4.558   1.600 -0.7186 -0.4152  0.0852
 8473TIP3    H146910   2.088   4.591   1.591 -0.9465 -0.2634 -2.2209
 8473TIP3    H246911   1.970   4.591   1.685  0.2513  2.4719 -0.5809
 8474TIP3   OH246912   1.440   3.214   0.740 -0.2305 -0.5029 -1.0361
 8474TIP3    H146913   1.378   3.176   0.802  0.1154 -1.9188 -1.5171
 8474TIP3    H246914   1.386   3.267   0.681 -0.7057 -0.1137 -0.2746
 8475TIP3   OH246915   2.232   5.641  10.708  0.6010  0.3164  0.2049
 8475TIP3    H146916   2.230   5.690  10.790  0.2638  0.3980  0.1487
 8475TIP3    H246917   2.142   5.645  10.675  0.5953 -0.2292  0.1355
 8476TIP3   OH246918   1.984   5.784   0.406  0.3589 -0.0007  0.1554
 8476TIP3    H146919   1.891   5.771   0.428  0.1855 -1.0120 -1.0662
 8476TIP3    H246920   2.021   5.696   0.405  0.6707  0.0840 -2.0331
 8477TIP3   OH246921   0.335   4.779  12.088 -0.3368 -0.9517 -0.8747
 8477TIP3    H146922   0.372   4.795  12.174 -0.4051 -0.3942 -0.9493
 8477TIP3    H246923   0.273   4.707  12.102 -1.6068  0.2545 -0.1222
 8478TIP3   OH246924   6.105   5.380   4.467 -0.2395 -0.0822  0.4999
 8478TIP3    H146925   6.164   5.308   4.444  0.1061 -0.1858  1.6440
 8478TIP3    H246926   6.162   5.447   4.504 -0.1269  2.0364 -3.0453
 8479TIP3   OH246927   0.234   0.480   3.592  0.2968  0.1231  0.1712
 8479TIP3    H146928   0.239   0.385   3.605  0.2529 -0.0332 -0.8368
 8479TIP3    H246929   0.325   0.509   3.595  0.2745  0.1362  1.0013
 8480TIP3   OH246930   4.897   4.570   4.264  0.0089 -0.0613 -0.1240
 8480TIP3    H146931   4.806   4.578   4.293  0.3599 -0.5714  1.1383
 8480TIP3    H246932   4.890   4.549   4.170 -1.1689  0.0287 -0.0663
 8481TIP3   OH246933   5.965   5.210   2.365 -0.6489 -0.2909 -0.1189
 8481TIP3    H146934   5.927   5.138   2.314 -0.6342 -0.2251 -0.2245
 8481TIP3    H246935   6.037   5.242   2.310 -0.1646 -0.6970  0.2728
 8482TIP3   OH246936   3.441   2.203   6.432  0.1677 -0.4646  0.2785
 8482TIP3    H146937   3.506   2.262   6.471  0.0686  0.1344 -0.4298
 8482TIP3    H246938   3.369   2.260   6.406 -0.7702 -1.1521  1.2718
 8483TIP3   OH246939   5.432   4.228   0.214  0.0547  0.1518  0.3765
 8483TIP3    H146940   5.347   4.184   0.204  0.9867 -2.2374  2.0870
 8483TIP3    H246941   5.410   4.317   0.239 -1.9530 -0.3067  0.4276
 8484TIP3   OH246942   2.255   3.169  12.009 -0.4176 -0.5268 -0.3603
 8484TIP3    H146943   2.276   3.220  12.087  0.4792 -0.4684 -0.6313
 8484TIP3    H246944   2.180   3.214  11.970  1.2186  1.4988 -1.3965
 8485TIP3   OH246945   2.113   1.702  12.569  0.2756  0.1827  0.0160
 8485TIP3    H146946   2.191   1.697  12.514  0.7536 -0.4291  0.7372
 8485TIP3    H246947   2.097   1.796  12.580  0.7561  0.3091 -0.3403
 8486TIP3   OH246948   3.318   0.614  16.699  0.0024  0.5738 -0.2295
 8486TIP3    H146949   3.384   0.683  16.688 -0.8244  1.5643  0.7193
 8486TIP3    H246950   3.324   0.562  16.620  1.1341  1.3307 -0.6705
 8487TIP3   OH246951   2.147   5.557  14.816 -0.4122  0.5369 -0.2723
 8487TIP3    H146952   2.128   5.522  14.729 -0.8007 -0.1162  0.0682
 8487TIP3    H246953   2.199   5.636  14.799 -0.7300  0.5819 -1.1029
 8488TIP3   OH246954   4.550   1.355   0.868 -0.0002  0.0179 -0.1071
 8488TIP3    H146955   4.620   1.296   0.895 -0.3553  0.4696  1.9912
 8488TIP3    H246956   4.485   1.298   0.828  0.8127 -0.6283 -0.5495
 8489TIP3   OH246957   4.529   0.331   4.472  0.1757 -0.1997  0.0464
 8489TIP3    H146958   4.456   0.379   4.511  0.0338 -1.2795  1.1676
 8489TIP3    H246959   4.488   0.276   4.405 -0.0013 -0.5780  0.4630
 8490TIP3   OH246960   3.983   5.175  13.484  0.4912 -0.0754  0.0436
 8490TIP3    H146961   3.933   5.190  13.564  0.3870 -0.2894  0.0190
 8490TIP3    H246962   3.935   5.107  13.438  1.6114 -1.3790  0.7395
 8491TIP3   OH246963   6.104   0.440   2.699 -0.0789 -0.2667 -0.2901
 8491TIP3    H146964   6.066   0.405   2.619  0.1582  1.4711 -1.1958
 8491TIP3    H246965   6.049   0.405   2.769  0.3447 -2.6740 -1.0748
 8492TIP3   OH246966   3.068   3.239  12.674  0.4564  0.0164 -0.0874
 8492TIP3    H146967   3.048   3.171  12.738  0.2157 -0.0857 -0.2675
 8492TIP3    H246968   3.063   3.321  12.723  0.4246 -0.0730  0.0578
 8493TIP3   OH246969   1.963   5.262   1.528 -0.6341 -0.8493 -0.5174
 8493TIP3    H146970   1.916   5.340   1.496 -0.0648 -0.7750 -1.2070
 8493TIP3    H246971   2.047   5.264   1.481  0.1422 -0.8782  0.8319
 8494TIP3   OH246972   2.531   3.831   0.988  0.3199  0.3571 -0.1238
 8494TIP3    H146973   2.541   3.898   1.055  0.4302  0.3469 -0.1294
 8494TIP3    H246974   2.601   3.850   0.925 -0.0198  0.6016 -0.4365
 8495TIP3   OH246975   6.432   3.068   2.523 -0.4266  0.4034  0.6180
 8495TIP3    H146976   6.421   2.973   2.527 -0.8074  0.4826  1.7145
 8495TIP3    H246977   6.522   3.081   2.494  0.4306 -0.3229  2.7642
 8496TIP3   OH246978   3.541   2.398   2.531 -0.5041  0.3198 -0.1605
 8496TIP3    H146979   3.488   2.440   2.599  0.8220  1.3366  0.2764
 8496TIP3    H246980   3.543   2.305   2.556 -2.0717  0.2493 -0.2030
 8497TIP3   OH246981   5.043   6.030  14.106 -0.1574  0.6174 -0.2905
 8497TIP3    H146982   4.985   6.099  14.076  0.5294  1.4008  0.1281
 8497TIP3    H246983   4.997   5.990  14.180  0.1082  1.6799  0.4728
 8498TIP3   OH246984   0.542   0.051   1.059  0.3080  0.0142  0.8227
 8498TIP3    H146985   0.479   0.047   0.987  1.0680 -0.0917  0.1515
 8498TIP3    H246986   0.544   0.143   1.085  0.2458  0.1034  0.5137
 8499TIP3   OH246987   6.176   0.162   6.176 -0.3558  0.3888  0.0306
 8499TIP3    H146988   6.097   0.204   6.213 -0.4225 -1.4325  2.1507
 8499TIP3    H246989   6.247   0.223   6.197 -0.7632  0.5513  1.0179
 8500TIP3   OH246990   5.627   1.007   2.472 -0.2514 -0.1194 -0.3171
 8500TIP3    H146991   5.705   1.061   2.455  0.6946 -1.8647 -1.8777
 8500TIP3    H246992   5.609   1.020   2.565  1.0247  1.4375 -0.2363
 8501TIP3   OH246993   5.518   0.885  12.986 -0.2361 -0.0557 -0.1330
 8501TIP3    H146994   5.441   0.866  12.933 -1.2135  0.6755  0.9746
 8501TIP3    H246995   5.584   0.824  12.954 -1.2196 -0.6241 -1.1893
 8502TIP3   OH246996   3.205   2.695  13.287 -0.0499  0.4335 -0.0233
 8502TIP3    H146997   3.274   2.719  13.350 -0.7605  2.0140  0.1875
 8502TIP3    H246998   3.144   2.642  13.338  1.0233 -1.1095 -0.2435
 8503TIP3   OH246999   5.979   2.374   4.629 -0.0578 -0.1122 -0.0667
 8503TIP3    H147000   5.895   2.412   4.653 -0.1618 -0.1320 -0.3871
 8503TIP3    H247001   6.016   2.437   4.567  1.8502  1.8364  2.7998
 8504TIP3   OH247002   2.486   3.053   3.426  0.0158 -0.0801  0.0714
 8504TIP3    H147003   2.483   3.081   3.518 -1.9950 -0.7794  0.2612
 8504TIP3    H247004   2.578   3.032   3.411  0.4452  0.3716  1.8183
 8505TIP3   OH247005   4.232   4.967  13.549 -0.3604  0.2151  0.3150
 8505TIP3    H147006   4.223   4.944  13.456  2.6937  2.8539 -0.8288
 8505TIP3    H247007   4.300   4.907  13.582 -1.9660 -1.2289  1.1663
 8506TIP3   OH247008   4.389   2.850   4.823  0.3427  0.4018  0.0529
 8506TIP3    H147009   4.474   2.846   4.779 -0.3167  1.7735 -1.4800
 8506TIP3    H247010   4.325   2.845   4.752 -0.9896 -2.4569  1.2792
 8507TIP3   OH247011   5.212   1.201  12.831 -0.3738 -0.0049  0.3061
 8507TIP3    H147012   5.127   1.224  12.793  0.1632  1.5321 -0.0530
 8507TIP3    H247013   5.256   1.150  12.763 -0.6929 -0.0976  0.1697
 8508TIP3   OH247014   6.722   0.752   0.087  0.2134 -0.2366  0.2293
 8508TIP3    H147015   6.696   0.739   0.178  0.0444 -0.1040  0.2023
 8508TIP3    H247016   6.797   0.694   0.074 -1.3281 -2.2329 -0.2625
 8509TIP3   OH247017   5.309   0.528  11.214 -0.0041 -0.1338 -0.8509
 8509TIP3    H147018   5.345   0.610  11.249 -0.4788 -0.8161  1.3909
 8509TIP3    H247019   5.385   0.480  11.181  0.4332  0.6608 -1.0225
 8510TIP3   OH247020   4.860   2.736   5.152  0.2700  0.1682 -0.7906
 8510TIP3    H147021   4.853   2.806   5.086 -0.0430  0.4515 -0.4634
 8510TIP3    H247022   4.773   2.696   5.153 -0.2273  1.1969  0.5686
 8511TIP3   OH247023   3.585   6.483   3.576 -0.4712 -0.0952 -0.5072
 8511TIP3    H147024   3.680   6.478   3.567 -0.3159  1.4460 -0.1158
 8511TIP3    H247025   3.564   6.416   3.641  0.6605  0.9839  1.0604
 8512TIP3   OH247026   3.425   4.183   6.418 -0.6894  0.3167 -0.0437
 8512TIP3    H147027   3.417   4.091   6.442  1.0524  0.2204  0.3097
 8512TIP3    H247028   3.469   4.224   6.493 -1.0727  1.3551 -0.3680
 8513TIP3   OH247029   3.196   5.883   4.387  0.0453  0.4343  0.7158
 8513TIP3    H147030   3.221   5.942   4.316 -2.3074  2.6548  1.5449
 8513TIP3    H247031   3.139   5.818   4.347  0.3813  0.4316  0.2430
 8514TIP3   OH247032   0.645   4.427   0.703 -0.3162  0.1729 -0.2024
 8514TIP3    H147033   0.664   4.420   0.609 -1.4877  0.1639 -0.4560
 8514TIP3    H247034   0.682   4.512   0.727  1.2842 -0.4527 -0.3209
 8515TIP3   OH247035   0.836   4.555  17.016  0.0973 -0.0442 -0.0969
 8515TIP3    H147036   0.915   4.530  16.969 -0.0878 -1.4722  0.3307
 8515TIP3    H247037   0.764   4.529  16.958 -0.1011 -0.5469  0.3760
 8516TIP3   OH247038   4.170   3.051  14.620  0.3624 -0.3542  0.4376
 8516TIP3    H147039   4.121   3.035  14.539 -0.1699  0.7135  0.5387
 8516TIP3    H247040   4.199   2.964  14.647 -2.3236 -1.1992  0.9039
 8517TIP3   OH247041   1.546   5.909   5.172  0.5494 -0.3631  0.6288
 8517TIP3    H147042   1.633   5.879   5.143  0.9679  0.7022  0.7373
 8517TIP3    H247043   1.557   5.926   5.265  0.6121  1.0476  0.3883
 8518TIP3   OH247044   2.354   3.475  11.130 -0.8012 -0.4318 -0.5795
 8518TIP3    H147045   2.339   3.395  11.080 -2.3795 -0.3736 -0.2455
 8518TIP3    H247046   2.345   3.545  11.066 -0.1440 -0.4759 -0.7271
 8519TIP3   OH247047   0.968   6.605  11.379  0.6146  0.2311 -0.1130
 8519TIP3    H147048   0.959   6.522  11.332 -0.1765  0.0510  0.3436
 8519TIP3    H247049   0.881   6.644  11.378  1.1236  1.4109 -0.9310
 8520TIP3   OH247050   3.423   2.170  14.618 -0.0021 -0.1109 -0.0291
 8520TIP3    H147051   3.373   2.209  14.690  1.7705  1.3424  0.4776
 8520TIP3    H247052   3.363   2.172  14.544 -1.5303 -0.7229  1.1306
 8521TIP3   OH247053   4.596   1.268   3.373 -0.2241  0.1492 -0.0616
 8521TIP3    H147054   4.615   1.352   3.416 -0.0670  0.4264 -0.6633
 8521TIP3    H247055   4.682   1.235   3.347 -0.2411 -0.4188  0.5567
 8522TIP3   OH247056   6.569   4.029   2.166 -0.5292 -0.1243  0.9818
 8522TIP3    H147057   6.608   4.069   2.088  0.9310 -0.2418  1.6174
 8522TIP3    H247058   6.640   4.028   2.230 -1.6934 -0.0468  2.3213
 8523TIP3   OH247059   5.234   6.543   5.900 -0.0034  0.0598  0.3563
 8523TIP3    H147060   5.235   6.559   5.995  0.2312 -0.7151  0.4888
 8523TIP3    H247061   5.180   6.465   5.890 -2.6237  1.8525 -0.4454
 8524TIP3   OH247062   4.140   1.153   1.624  0.7748 -0.5080 -0.1276
 8524TIP3    H147063   4.188   1.233   1.601  2.3987 -1.7753 -1.3625
 8524TIP3    H247064   4.052   1.183   1.643  1.4686  1.6470 -0.0769
 8525TIP3   OH247065   0.687   0.864   4.607  0.3409  0.4100 -0.0744
 8525TIP3    H147066   0.757   0.799   4.596  0.2003  0.1117  0.7516
 8525TIP3    H247067   0.715   0.916   4.682 -0.0973  0.5894 -0.0350
 8526TIP3   OH247068   5.843   3.247   4.227 -0.0324  0.2347 -0.0594
 8526TIP3    H147069   5.938   3.258   4.232  0.0164  0.0832 -0.5901
 8526TIP3    H247070   5.820   3.278   4.140 -0.2247 -1.3803 -0.6322
 8527TIP3   OH247071   5.099   2.398   2.623 -0.4940 -0.6357  0.4000
 8527TIP3    H147072   5.006   2.386   2.643 -0.6604 -0.4846 -0.2839
 8527TIP3    H247073   5.104   2.398   2.528 -0.5498  4.7046  0.1208
 8528TIP3   OH247074   0.196   0.724  13.485 -0.4588  0.6968 -0.3880
 8528TIP3    H147075   0.129   0.666  13.523 -0.7133  0.5544 -1.0498
 8528TIP3    H247076   0.247   0.667  13.428 -0.6046  1.0921 -0.9158
 8529TIP3   OH247077   3.810   1.965   4.084  0.2700 -0.0980 -0.0815
 8529TIP3    H147078   3.822   1.908   4.160 -0.6429 -0.9782 -0.5732
 8529TIP3    H247079   3.825   2.053   4.118  0.9161 -0.5584  0.8810
 8530TIP3   OH247080   6.076   2.355   3.640  0.5009 -0.3024  0.0811
 8530TIP3    H147081   6.090   2.448   3.655 -1.1012  0.5803 -2.9300
 8530TIP3    H247082   6.122   2.311   3.711  1.9669  2.7424  1.1675
 8531TIP3   OH247083   4.474   0.839  15.233 -0.0144  0.1393 -0.4965
 8531TIP3    H147084   4.454   0.746  15.239  2.8301 -0.4737  0.9447
 8531TIP3    H247085   4.391   0.883  15.254 -0.7070 -2.0926  1.8783
 8532TIP3   OH247086   0.969   5.639  13.713 -0.2194  0.1046 -0.1104
 8532TIP3    H147087   0.913   5.648  13.791 -0.7120  1.4966 -0.5984
 8532TIP3    H247088   1.028   5.567  13.735  0.4819  1.2511  2.0787
 8533TIP3   OH247089   0.912   0.857   0.812 -0.6710 -0.2547 -0.1539
 8533TIP3    H147090   0.912   0.945   0.774 -1.3073 -0.2319 -0.1022
 8533TIP3    H247091   1.004   0.842   0.835 -0.2174 -0.3864 -1.9584
 8534TIP3   OH247092   3.181   4.192   1.155 -0.2747 -0.0420 -0.2754
 8534TIP3    H147093   3.252   4.231   1.104  0.1990 -0.7282 -0.1532
 8534TIP3    H247094   3.104   4.244   1.133  0.2998  0.8366 -0.2654
 8535TIP3   OH247095   4.905   3.083   2.688 -0.5065  0.0975 -0.6809
 8535TIP3    H147096   4.851   3.157   2.717 -0.4703 -0.2651  0.3658
 8535TIP3    H247097   4.917   3.097   2.594 -0.2676  1.5802 -0.4588
 8536TIP3   OH247098   6.531   1.538  12.370 -0.2961 -0.5514 -0.0739
 8536TIP3    H147099   6.447   1.529  12.325 -0.4098  0.8676 -0.1702
 8536TIP3    H247100   6.511   1.587  12.450  0.4474 -0.1592 -0.1225
 8537TIP3   OH247101   0.342   0.210   6.244  0.3419  0.2915 -0.6211
 8537TIP3    H147102   0.323   0.304   6.236 -1.1456 -0.0019 -0.7455
 8537TIP3    H247103   0.321   0.189   6.335  0.4694  0.0300 -0.6516
 8538TIP3   OH247104   5.047   6.383   4.223  0.7729 -0.4309  0.4277
 8538TIP3    H147105   5.130   6.360   4.263  1.1179  0.1019  0.0397
 8538TIP3    H247106   5.010   6.450   4.280 -0.2784 -1.9585  1.6129
 8539TIP3   OH247107   1.209   5.996  15.517 -0.2675  0.4338 -0.2322
 8539TIP3    H147108   1.251   5.923  15.563 -2.1258  0.2303  1.2816
 8539TIP3    H247109   1.194   5.963  15.429  3.2352  0.7679 -1.0912
 8540TIP3   OH247110   1.978   0.303   2.396 -0.6568  0.1528  0.1295
 8540TIP3    H147111   2.054   0.361   2.387  0.5140 -1.3646 -0.2113
 8540TIP3    H247112   1.902   0.362   2.395  0.5039  1.7119  0.4375
 8541TIP3   OH247113   0.003   4.594   0.179 -0.0452  0.1316  0.0407
 8541TIP3    H147114   0.097   4.582   0.167  0.0837  0.2735  0.8022
 8541TIP3    H247115  -0.017   4.542   0.257 -0.4858  0.5501  0.2139
 8542TIP3   OH247116   3.580   4.595   3.450 -0.4881 -0.5374 -0.5983
 8542TIP3    H147117   3.587   4.525   3.385  2.8448 -0.0477 -0.9515
 8542TIP3    H247118   3.657   4.650   3.434 -1.6585  1.8450  1.2629
 8543TIP3   OH247119   2.634   6.292   2.231 -0.1401  0.0480 -0.1367
 8543TIP3    H147120   2.651   6.376   2.188  0.3124 -0.1253 -0.2968
 8543TIP3    H247121   2.565   6.251   2.178 -1.2454  0.8440  0.6374
 8544TIP3   OH247122   0.541   1.134  11.491  0.2402 -0.0909  0.0116
 8544TIP3    H147123   0.445   1.132  11.499  0.0886 -0.6357 -1.5850
 8544TIP3    H247124   0.557   1.148  11.398  1.7112 -1.1170  0.0679
 8545TIP3   OH247125   2.993   4.236   5.741 -0.2338  0.2454 -0.3150
 8545TIP3    H147126   3.074   4.254   5.694 -0.1758  1.3078  0.1660
 8545TIP3    H247127   2.924   4.248   5.676 -0.1670  1.8834 -0.1408
 8546TIP3   OH247128   4.712   5.516   4.603 -0.0864 -0.2768 -0.4519
 8546TIP3    H147129   4.668   5.470   4.674 -0.7232  0.6723 -0.2130
 8546TIP3    H247130   4.669   5.486   4.523 -0.9750  0.4080 -0.2430
 8547TIP3   OH247131   1.034   2.838   2.434  0.2837  0.3539 -0.4397
 8547TIP3    H147132   0.971   2.781   2.388 -0.1090  0.5670 -0.1694
 8547TIP3    H247133   1.118   2.793   2.423  0.2302  0.4926 -1.5173
 8548TIP3   OH247134   6.770   1.186   2.657  0.0249  0.2611 -0.4920
 8548TIP3    H147135   6.676   1.187   2.675  0.0762  2.2322 -0.0437
 8548TIP3    H247136   6.785   1.104   2.610 -1.9912  0.1029 -0.9581
 8549TIP3   OH247137   4.500   1.371  15.476  0.2834 -0.2286 -0.0576
 8549TIP3    H147138   4.580   1.418  15.451 -0.7808  2.3745  1.0882
 8549TIP3    H247139   4.449   1.367  15.395  0.0993  1.2785 -0.0455
 8550TIP3   OH247140   3.026   4.605   5.589  0.4630 -0.1024 -0.0314
 8550TIP3    H147141   3.097   4.570   5.642  1.2687  0.3506 -0.8016
 8550TIP3    H247142   3.067   4.671   5.533 -0.9842  2.0715  1.3311
 8551TIP3   OH247143   5.472   5.650  14.787 -0.7097 -0.0443  0.1321
 8551TIP3    H147144   5.380   5.664  14.764 -0.6787 -0.4035 -0.1967
 8551TIP3    H247145   5.479   5.556  14.803  0.0749 -0.3854 -1.9329
 8552TIP3   OH247146   0.741   1.510   0.430  0.0267 -0.1228 -0.2129
 8552TIP3    H147147   0.820   1.495   0.481  0.3226  0.6795 -0.4221
 8552TIP3    H247148   0.672   1.523   0.495  0.1158 -0.5233 -0.0318
 8553TIP3   OH247149   6.088   0.232  14.350 -0.2616  0.1682 -0.0228
 8553TIP3    H147150   6.027   0.178  14.401 -1.2665  1.8885  0.7083
 8553TIP3    H247151   6.123   0.295  14.413 -0.0249  1.1110 -1.0584
 8554TIP3   OH247152   4.251   1.949   0.574 -0.6803 -0.2116  0.0803
 8554TIP3    H147153   4.227   1.917   0.661 -0.3503  0.0379  0.2629
 8554TIP3    H247154   4.346   1.951   0.574 -0.6899  0.4592 -0.0377
 8555TIP3   OH247155   3.545   3.104   2.309 -0.3728  0.0655  0.0816
 8555TIP3    H147156   3.505   3.041   2.370 -0.6086  0.5768  0.4673
 8555TIP3    H247157   3.589   3.167   2.366  0.6210 -0.2403 -0.3308
 8556TIP3   OH247158   3.121   1.594   0.944 -0.6032 -0.1330  0.0978
 8556TIP3    H147159   3.087   1.664   1.000  0.6442 -0.7945  1.7700
 8556TIP3    H247160   3.211   1.582   0.972 -0.2336 -1.1898 -1.4139
 8557TIP3   OH247161   1.834   0.289   4.470 -0.5429  0.0045 -0.0406
 8557TIP3    H147162   1.785   0.218   4.513  1.0162 -0.3574  1.2457
 8557TIP3    H247163   1.926   0.267   4.485  0.0189  1.1452 -1.5894
 8558TIP3   OH247164   4.262   4.356   0.049 -0.1771 -0.3882  0.4258
 8558TIP3    H147165   4.245   4.263   0.033  0.3378 -0.5270  0.6608
 8558TIP3    H247166   4.237   4.399  -0.032  0.6559 -0.8657 -0.0994
 8559TIP3   OH247167   3.725   6.792   1.296  0.7072 -0.4015  0.2428
 8559TIP3    H147168   3.641   6.753   1.320  0.0980 -0.1004 -1.3131
 8559TIP3    H247169   3.727   6.788   1.201  2.3332 -0.1232  0.2391
 8560TIP3   OH247170   6.359   6.713   0.361  0.0772  0.0989 -0.0486
 8560TIP3    H147171   6.427   6.688   0.423 -1.1117  0.1023  1.2991
 8560TIP3    H247172   6.401   6.706   0.275  1.7632  0.1108  0.7394
 8561TIP3   OH247173   2.048   0.770  11.629  0.5554  0.2168  0.1659
 8561TIP3    H147174   2.130   0.778  11.580  1.3846  1.9196  1.6793
 8561TIP3    H247175   2.062   0.823  11.707 -2.2638  1.1183  0.1693
 8562TIP3   OH247176   2.407   3.843   4.531 -0.5820  0.3956 -0.1862
 8562TIP3    H147177   2.369   3.830   4.444  0.5644  0.0361 -0.6570
 8562TIP3    H247178   2.346   3.900   4.577 -0.5789  1.6100 -1.6587
 8563TIP3   OH247179   5.920   3.823  15.803 -0.0949 -0.0299 -0.3956
 8563TIP3    H147180   5.918   3.916  15.825  0.0321  0.0079 -0.5402
 8563TIP3    H247181   5.829   3.801  15.782  0.0710  0.3725 -1.6068
 8564TIP3   OH247182   6.619   2.243   1.210 -0.7696  0.0372 -0.1144
 8564TIP3    H147183   6.602   2.324   1.161  0.0669  0.9323  1.0164
 8564TIP3    H247184   6.682   2.196   1.156  1.7647  1.9749  0.9784
 8565TIP3   OH247185   3.422   5.890   2.440  0.8455 -0.4241 -0.7233
 8565TIP3    H147186   3.371   5.913   2.363  1.2593 -1.5880 -1.3826
 8565TIP3    H247187   3.507   5.861   2.404  0.8824 -1.4134  0.1150
 8566TIP3   OH247188   3.350   3.671  16.882 -0.2601 -0.4683 -0.3780
 8566TIP3    H147189   3.362   3.747  16.940 -0.2165 -0.3681 -0.5171
 8566TIP3    H247190   3.359   3.707  16.794  0.5390 -0.7746 -0.4295
 8567TIP3   OH247191   6.304   4.632   5.915  0.7511 -0.3745 -0.1344
 8567TIP3    H147192   6.338   4.704   5.861  0.3819 -0.9485 -1.1626
 8567TIP3    H247193   6.220   4.663   5.947  2.4008  1.3375  2.9934
 8568TIP3   OH247194   6.299   5.636   3.806 -0.1463 -0.0472 -0.3639
 8568TIP3    H147195   6.222   5.680   3.841  0.3618  1.3265 -0.9170
 8568TIP3    H247196   6.267   5.591   3.728 -0.3964  0.5483 -0.6107
 8569TIP3   OH247197   6.340   1.439   4.993  0.2203 -0.2049  0.4884
 8569TIP3    H147198   6.266   1.378   4.992 -0.7879  0.9521 -1.3055
 8569TIP3    H247199   6.384   1.425   4.909 -0.6406  2.1473 -0.4375
 8570TIP3   OH247200   3.730   3.095  14.269 -0.7420 -0.3967  0.3876
 8570TIP3    H147201   3.766   3.173  14.227  1.0288 -1.7782 -0.8302
 8570TIP3    H247202   3.666   3.062  14.206  1.4453 -2.1059 -1.0869
 8571TIP3   OH247203   5.905   1.454   2.762 -0.2770  0.1467 -0.3822
 8571TIP3    H147204   5.934   1.467   2.672  0.7946  1.4409  0.1156
 8571TIP3    H247205   5.907   1.359   2.774  2.0853  0.0678 -0.9557
 8572TIP3   OH247206   4.534   5.227   1.843 -0.2904 -0.1349  0.8290
 8572TIP3    H147207   4.605   5.266   1.894 -1.3952  2.1620  0.7306
 8572TIP3    H247208   4.471   5.198   1.909  0.2839 -1.3171  0.8813
 8573TIP3   OH247209   5.710   5.531   6.109 -0.2949 -0.2438 -0.2000
 8573TIP3    H147210   5.725   5.458   6.049  2.0769 -0.5072  0.5967
 8573TIP3    H247211   5.710   5.491   6.196  0.1487  0.5812  0.1891
 8574TIP3   OH247212   2.816   5.206  12.722  0.1340  0.8130  0.6263
 8574TIP3    H147213   2.761   5.255  12.660 -0.5666 -1.2672 -0.4702
 8574TIP3    H247214   2.902   5.201  12.679 -0.1618 -0.0300  0.1084
 8575TIP3   OH247215   6.629   1.832  12.314 -0.3788  0.2913 -0.2621
 8575TIP3    H147216   6.603   1.740  12.322 -0.2765  0.1755 -1.1036
 8575TIP3    H247217   6.569   1.880  12.370 -1.1556 -0.1755 -0.6830
 8576TIP3   OH247218   4.314   1.901   5.909 -0.3617  0.2659 -0.1214
 8576TIP3    H147219   4.331   1.947   5.991 -3.1212 -1.0144  1.3099
 8576TIP3    H247220   4.381   1.833   5.905  1.2105  1.7531 -0.1760
 8577TIP3   OH247221   5.619   0.305  14.151 -0.4558  0.4440  0.2966
 8577TIP3    H147222   5.686   0.295  14.218 -0.9503  3.8853  1.5071
 8577TIP3    H247223   5.666   0.334  14.073 -0.4094  1.9362  0.8645
 8578TIP3   OH247224   5.376   0.672   5.193 -0.3121  0.2841  0.0382
 8578TIP3    H147225   5.426   0.754   5.198 -0.0542  0.4501 -3.2064
 8578TIP3    H247226   5.285   0.700   5.187 -0.3069  0.2689 -0.0992
 8579TIP3   OH247227   6.115   3.712   4.084  0.5894 -0.6650 -0.4402
 8579TIP3    H147228   6.060   3.688   4.010 -0.4495  1.2667 -0.3281
 8579TIP3    H247229   6.097   3.644   4.150 -1.1605 -0.4668 -0.6632
 8580TIP3   OH247230   2.400   4.882   1.477  0.0016 -0.4650  0.5674
 8580TIP3    H147231   2.317   4.877   1.429  1.0275  1.2445 -1.5489
 8580TIP3    H247232   2.413   4.795   1.513 -1.5937 -1.3978 -0.9929
 8581TIP3   OH247233   0.595   1.954  10.847  0.3057 -0.3822 -0.4649
 8581TIP3    H147234   0.678   1.968  10.893  0.1202  1.0693 -0.5445
 8581TIP3    H247235   0.620   1.946  10.755  0.4689 -1.2454 -0.3560
 8582TIP3   OH247236   2.544   4.575   5.606 -0.0869 -0.2328  0.3931
 8582TIP3    H147237   2.541   4.524   5.688 -3.0045 -0.5385  0.2164
 8582TIP3    H247238   2.540   4.666   5.635  1.0032 -0.2398  0.6094
 8583TIP3   OH247239   2.508   4.279   2.339  0.4107  0.2987 -0.1521
 8583TIP3    H147240   2.458   4.227   2.276  1.0554 -0.9467  0.3286
 8583TIP3    H247241   2.475   4.368   2.328  0.1402  0.0280 -1.8742
 8584TIP3   OH247242   6.196   3.159  11.101  0.2214 -0.3462  0.3348
 8584TIP3    H147243   6.137   3.209  11.157  1.2102  0.2823  0.8370
 8584TIP3    H247244   6.251   3.109  11.161 -0.1956 -1.4117 -0.1434
 8585TIP3   OH247245   4.540   2.068   4.831 -0.4812 -0.3521  0.2551
 8585TIP3    H147246   4.492   2.083   4.913 -0.4804 -2.4524  0.6926
 8585TIP3    H247247   4.475   2.030   4.772  0.3111 -2.1407  0.4728
 8586TIP3   OH247248   5.980   3.327   4.901 -0.0277  0.4309 -0.5816
 8586TIP3    H147249   6.071   3.355   4.894  0.0550  0.3300  0.0313
 8586TIP3    H247250   5.934   3.402   4.938  0.3652 -0.4764  1.9772
 8587TIP3   OH247251   0.820   0.532  11.527 -0.7520 -0.7593  0.5965
 8587TIP3    H147252   0.756   0.534  11.598 -0.2886 -0.7017  1.0193
 8587TIP3    H247253   0.837   0.625  11.509  0.6262 -0.7356  1.7977
 8588TIP3   OH247254   6.368   6.475  14.946 -0.9191  0.1062  0.3581
 8588TIP3    H147255   6.383   6.430  15.029  0.9554 -0.9902 -0.5245
 8588TIP3    H247256   6.437   6.540  14.940  0.1275 -1.0667 -1.1370
 8589TIP3   OH247257   6.103   4.964   1.914  0.1045  0.4814 -0.1869
 8589TIP3    H147258   6.163   5.030   1.881  0.3266 -0.2784 -1.3811
 8589TIP3    H247259   6.154   4.883   1.913 -0.9235 -0.1958 -1.3130
 8590TIP3   OH247260   0.464   0.648   4.683  0.0114  0.6652  0.1236
 8590TIP3    H147261   0.502   0.733   4.659  0.3476  0.5880  0.3811
 8590TIP3    H247262   0.523   0.583   4.645 -0.3104  0.5440 -0.1751
 8591TIP3   OH247263   1.343   4.436  16.201  0.3684  0.1281  0.0440
 8591TIP3    H147264   1.428   4.394  16.189 -0.1043 -0.8563  0.0461
 8591TIP3    H247265   1.335   4.449  16.295  1.2404  1.8089 -0.0789
 8592TIP3   OH247266   0.706   3.968   1.463  0.3270 -0.0543 -0.9309
 8592TIP3    H147267   0.738   4.014   1.541  0.2605  0.9579 -1.4951
 8592TIP3    H247268   0.718   3.875   1.484  1.7610  0.2424 -0.3350
 8593TIP3   OH247269   6.696   6.025  16.362 -0.3324 -0.4344 -0.5091
 8593TIP3    H147270   6.780   6.061  16.390 -0.7023 -0.6114  0.9246
 8593TIP3    H247271   6.650   6.099  16.321 -0.1781  0.1383  0.3327
 8594TIP3   OH247272   4.936   1.744  13.693  0.2987 -0.3005 -0.2684
 8594TIP3    H147273   5.026   1.743  13.724  0.1961 -0.3643  0.0287
 8594TIP3    H247274   4.934   1.679  13.623  0.3923 -0.5749 -0.0176
 8595TIP3   OH247275   4.525   5.791   5.234  0.3286  0.2379 -0.1496
 8595TIP3    H147276   4.497   5.771   5.324 -1.0908  0.9743 -0.4044
 8595TIP3    H247277   4.481   5.725   5.180  0.5252  0.3094 -0.3996
 8596TIP3   OH247278   1.678   3.970   2.731 -0.4361 -0.3148 -0.1509
 8596TIP3    H147279   1.600   3.965   2.786 -0.9674  0.4496 -0.8265
 8596TIP3    H247280   1.751   3.956   2.792 -1.0886 -1.0443  0.4802
 8597TIP3   OH247281   3.241   0.990   5.517  0.1658  0.0220  0.1259
 8597TIP3    H147282   3.294   0.939   5.456 -0.9975 -1.3503  0.2206
 8597TIP3    H247283   3.187   1.045   5.460 -0.5107 -0.8402 -0.0787
 8598TIP3   OH247284   2.806   4.619  15.149 -0.5693 -0.4485 -0.4009
 8598TIP3    H147285   2.785   4.688  15.212 -0.1028 -0.9210  0.2883
 8598TIP3    H247286   2.730   4.615  15.092 -0.2582  1.2117 -0.9895
 8599TIP3   OH247287   1.710   2.825  14.338  0.5083  0.0698  0.0910
 8599TIP3    H147288   1.803   2.820  14.319  0.4830  0.4395 -0.1407
 8599TIP3    H247289   1.694   2.755  14.401  0.8253 -0.3869 -0.3304
 8600TIP3   OH247290   0.125   3.347   5.060  0.1013  0.2376 -0.5919
 8600TIP3    H147291   0.204   3.391   5.092 -0.5185  1.9014 -1.2668
 8600TIP3    H247292   0.081   3.412   5.005 -0.7529 -1.3162 -1.8236
 8601TIP3   OH247293   6.818   5.437   6.114  0.4178  0.2119 -0.0403
 8601TIP3    H147294   6.820   5.511   6.174  1.4234 -0.1956  0.4505
 8601TIP3    H247295   6.851   5.363   6.165  1.9843  0.0072 -1.2610
 8602TIP3   OH247296   2.701   4.054  15.609 -1.1273  0.0405  0.8186
 8602TIP3    H147297   2.676   3.968  15.575  0.3825 -1.4839  3.2190
 8602TIP3    H247298   2.725   4.104  15.531 -0.1737 -2.3950 -0.5887
 8603TIP3   OH247299   2.330   2.168  12.607  0.4142  0.0973  0.3906
 8603TIP3    H147300   2.378   2.166  12.524 -0.3670  0.7570 -0.0959
 8603TIP3    H247301   2.370   2.099  12.660 -0.6573 -2.0350 -1.4135
 8604TIP3   OH247302   5.566   4.388   2.285  0.0439  0.0224 -0.5125
 8604TIP3    H147303   5.662   4.382   2.286 -0.0443 -2.8948  0.7767
 8604TIP3    H247304   5.545   4.413   2.195  1.9693  0.0280 -1.0220
 8605TIP3   OH247305   2.270   4.742  16.498  0.0066 -0.1373 -0.4162
 8605TIP3    H147306   2.311   4.658  16.520 -0.3985 -0.5824 -1.3019
 8605TIP3    H247307   2.188   4.742  16.547  0.5264  0.2741  0.4985
 8606TIP3   OH247308   6.136   2.668   4.612  0.9359 -0.5627 -0.4360
 8606TIP3    H147309   6.195   2.720   4.556  0.6166  0.9198  0.5459
 8606TIP3    H247310   6.188   2.649   4.690  0.3146  0.3181  0.2168
 8607TIP3   OH247311   6.527   0.467   1.036  0.0064  0.1352  0.0750
 8607TIP3    H147312   6.490   0.549   1.005  0.4714  0.8421  1.2961
 8607TIP3    H247313   6.478   0.399   0.991  0.4205  1.0836 -1.8845
 8608TIP3   OH247314   6.349   0.112  14.685  0.4816  0.0978 -0.3259
 8608TIP3    H147315   6.414   0.149  14.746  0.5534  0.0713 -0.3854
 8608TIP3    H247316   6.295   0.056  14.739 -0.6111  1.4799  0.0763
 8609TIP3   OH247317   5.493   4.107  14.934  0.0740 -0.2246  0.9116
 8609TIP3    H147318   5.400   4.086  14.939 -0.0516  0.2276  0.5547
 8609TIP3    H247319   5.496   4.194  14.893  0.6234  0.0246  1.4589
 8610TIP3   OH247320   3.583   2.847   6.026 -0.1814 -0.3106 -0.6658
 8610TIP3    H147321   3.599   2.934   6.063  0.3648 -0.2045 -1.1334
 8610TIP3    H247322   3.488   2.837   6.029 -0.2214  0.1453 -0.2515
 8611TIP3   OH247323   5.064   1.934  11.660 -0.7523 -0.0078  0.6798
 8611TIP3    H147324   5.017   2.016  11.670  0.5101  0.8290 -0.0571
 8611TIP3    H247325   5.021   1.890  11.586  0.1292  1.1266 -0.5313
 8612TIP3   OH247326   2.765   4.717  15.584  0.0614  0.1787  0.6288
 8612TIP3    H147327   2.675   4.685  15.573 -0.2028  1.0012  0.2761
 8612TIP3    H247328   2.767   4.752  15.673 -0.1418  0.6731  0.4429
 8613TIP3   OH247329   0.487   2.523  13.933 -0.4790  0.3697 -0.6640
 8613TIP3    H147330   0.486   2.597  13.872 -0.4066 -1.3783 -2.9280
 8613TIP3    H247331   0.398   2.520  13.968 -0.1386  2.2616  0.4969
 8614TIP3   OH247332   4.429   1.789  13.803 -0.2387 -0.6187  0.3672
 8614TIP3    H147333   4.438   1.760  13.894  0.1228  0.6829  0.7594
 8614TIP3    H247334   4.516   1.776  13.766 -0.8509 -3.0534 -0.4164
 8615TIP3   OH247335   1.054   4.893  15.220  0.8440  0.2252  0.1618
 8615TIP3    H147336   1.070   4.906  15.313  0.0320  2.9040 -0.0054
 8615TIP3    H247337   0.962   4.915  15.207  0.9901  0.0934 -1.3084
 8616TIP3   OH247338   2.631   2.234  15.901 -0.3298 -0.4326 -0.4598
 8616TIP3    H147339   2.619   2.142  15.926 -0.2324 -0.5156 -0.7158
 8616TIP3    H247340   2.592   2.284  15.973 -0.3028 -0.6738 -0.2778
 8617TIP3   OH247341   4.478   4.230   4.499  0.3671 -0.6332  0.1245
 8617TIP3    H147342   4.411   4.229   4.431  0.7781  2.3043 -0.4318
 8617TIP3    H247343   4.428   4.238   4.581 -0.0189  0.2824 -0.1910
 8618TIP3   OH247344   2.185   2.691   0.695  0.1636  0.4274 -0.2715
 8618TIP3    H147345   2.163   2.598   0.695  1.4432  0.1000  0.4748
 8618TIP3    H247346   2.140   2.726   0.619  0.2916 -0.9706 -1.0324
 8619TIP3   OH247347   0.838   2.935  11.807 -0.3339 -0.7199  0.2690
 8619TIP3    H147348   0.923   2.891  11.808  2.0267  3.3240  0.9268
 8619TIP3    H247349   0.799   2.914  11.891  0.8179 -1.2553  0.6965
 8620TIP3   OH247350   3.051   4.115  10.900  0.2423  0.4558 -0.5472
 8620TIP3    H147351   3.113   4.048  10.870  0.4904 -0.3938  1.6357
 8620TIP3    H247352   3.106   4.184  10.937 -0.0545  0.7309 -0.6214
 8621TIP3   OH247353   3.477   4.628   1.438 -0.2355  0.3542  0.6426
 8621TIP3    H147354   3.476   4.586   1.352 -1.2610  1.8889 -0.1507
 8621TIP3    H247355   3.551   4.689   1.433 -0.1985  0.3328  0.9140
 8622TIP3   OH247356   0.805   4.633   3.130  0.3339 -0.2230  0.4921
 8622TIP3    H147357   0.743   4.627   3.202  0.5532 -1.0736  0.6212
 8622TIP3    H247358   0.884   4.671   3.169  0.7988 -1.5979  0.9523
 8623TIP3   OH247359   3.152   5.435  12.902 -0.2081  0.0012  0.1133
 8623TIP3    H147360   3.133   5.376  12.829  2.2711  0.0537 -0.6543
 8623TIP3    H247361   3.223   5.391  12.950 -0.0623  1.1718  1.0106
 8624TIP3   OH247362   4.718   3.585   4.565 -0.4792  0.0271  0.3095
 8624TIP3    H147363   4.709   3.543   4.480 -1.2870  2.0070 -0.6364
 8624TIP3    H247364   4.682   3.673   4.553 -1.1157  0.1970  2.8328
 8625TIP3   OH247365   3.304   0.953  11.566 -0.2520 -0.0393 -0.1857
 8625TIP3    H147366   3.230   0.917  11.517 -0.9277  1.3735 -0.2375
 8625TIP3    H247367   3.361   0.877  11.583 -1.9363 -1.2395  0.2867
 8626TIP3   OH247368   0.603   4.502  14.458 -0.0941 -0.2484  0.3899
 8626TIP3    H147369   0.577   4.582  14.504  2.0068  1.0005 -0.4404
 8626TIP3    H247370   0.530   4.484  14.399 -0.2114  1.6566 -0.1097
 8627TIP3   OH247371   6.272   5.109   0.403 -0.3643  0.0367 -0.3320
 8627TIP3    H147372   6.329   5.090   0.478  0.1392  1.3306 -0.3624
 8627TIP3    H247373   6.183   5.101   0.437 -0.1569 -0.5026  0.1038
 8628TIP3   OH247374   5.758   0.117  16.395  0.3801 -0.1872 -0.1863
 8628TIP3    H147375   5.761   0.022  16.389  0.6273 -0.1479 -0.8137
 8628TIP3    H247376   5.820   0.139  16.465  1.8236 -0.3841 -1.3589
 8629TIP3   OH247377   3.043   1.991   5.708 -0.6150 -0.0174  0.3615
 8629TIP3    H147378   2.951   1.971   5.689 -0.2417 -1.9933  0.3560
 8629TIP3    H247379   3.089   1.973   5.626  0.0032 -0.9944  0.8984
 8630TIP3   OH247380   5.356   0.104  12.248 -0.0736  0.3619 -0.0885
 8630TIP3    H147381   5.422   0.094  12.179 -0.6448  1.5388 -0.8385
 8630TIP3    H247382   5.272   0.095  12.203 -0.4715 -1.6160  0.9342
 8631TIP3   OH247383   2.142   6.547  14.547  0.2732 -0.0060 -0.1806
 8631TIP3    H147384   2.211   6.543  14.481 -0.1646  0.8904 -0.7053
 8631TIP3    H247385   2.159   6.629  14.594 -0.1349 -0.0391  0.0267
 8632TIP3   OH247386   0.314   1.181  12.542  0.4119  0.0058  0.0494
 8632TIP3    H147387   0.313   1.162  12.635 -1.3641 -0.5112 -0.0261
 8632TIP3    H247388   0.295   1.275  12.536 -3.3278 -0.5629  0.2311
 8633TIP3   OH247389   6.661   5.341  11.326 -0.2498 -1.0406 -0.0443
 8633TIP3    H147390   6.596   5.277  11.294 -0.0000 -0.7120 -1.2420
 8633TIP3    H247391   6.727   5.287  11.369 -0.8579 -1.4527  0.4066
 8634TIP3   OH247392   1.808   3.377   4.599 -0.2319  0.2663 -0.6024
 8634TIP3    H147393   1.856   3.459   4.607 -0.3032  0.1213  2.8123
 8634TIP3    H247394   1.721   3.396   4.635  0.0669 -1.4708  1.2389
 8635TIP3   OH247395   6.329   1.517   2.350  0.3151 -0.5504  0.2421
 8635TIP3    H147396   6.326   1.597   2.401  2.7912  0.2419 -0.6913
 8635TIP3    H247397   6.354   1.449   2.413 -2.0549 -0.7274  1.0868
 8636TIP3   OH247398   0.022   0.874  12.901  0.0484 -0.0214 -0.0789
 8636TIP3    H147399  -0.021   0.889  12.986  1.6472 -0.2622  0.7967
 8636TIP3    H247400   0.011   0.957  12.854 -2.1010 -0.3412 -0.2466
 8637TIP3   OH247401   6.246   5.446  16.305 -0.0375 -0.0434  0.4977
 8637TIP3    H147402   6.276   5.519  16.251  1.3842 -0.9695 -0.0237
 8637TIP3    H247403   6.201   5.387  16.243  3.4423 -2.1614 -0.2688
 8638TIP3   OH247404   2.413   0.271   3.750 -0.7609  0.0199 -0.1458
 8638TIP3    H147405   2.492   0.319   3.725 -2.0705  1.7592 -1.1916
 8638TIP3    H247406   2.353   0.339   3.781 -2.3656 -1.0677 -0.7463
 8639TIP3   OH247407   3.601   6.643   2.830  0.3825 -0.1020 -0.0309
 8639TIP3    H147408   3.645   6.621   2.912 -0.3591 -2.1147 -0.1225
 8639TIP3    H247409   3.647   6.721   2.798  1.5134 -0.0392  1.6381
 8640TIP3   OH247410   4.517   4.699  12.509  0.1020 -0.2109  0.4862
 8640TIP3    H147411   4.551   4.644  12.580  0.5622 -0.3316  0.1785
 8640TIP3    H247412   4.440   4.742  12.547  0.9149  0.4996  1.3966
 8641TIP3   OH247413   3.447   6.637  11.116  0.0700 -0.2099 -0.2602
 8641TIP3    H147414   3.529   6.651  11.069 -1.0125  0.4124 -2.0875
 8641TIP3    H247415   3.395   6.581  11.059 -0.9731 -0.1716  0.6046
 8642TIP3   OH247416   4.256   3.187   2.747 -0.3489  0.3072 -0.7148
 8642TIP3    H147417   4.193   3.134   2.698 -1.9215  0.7265  0.7555
 8642TIP3    H247418   4.251   3.154   2.836 -0.6328  2.2309  0.0334
 8643TIP3   OH247419   4.850   4.931   4.317  0.0274 -0.7229 -0.6239
 8643TIP3    H147420   4.824   4.881   4.239 -0.9316 -0.7331 -0.3203
 8643TIP3    H247421   4.769   4.974   4.345  0.7835  0.8225 -0.7304
 8644TIP3   OH247422   2.089   4.669   2.836 -0.2036 -0.2366  0.3101
 8644TIP3    H147423   2.161   4.605   2.835 -0.8708 -1.0547 -2.0413
 8644TIP3    H247424   2.109   4.728   2.763 -0.6961  1.0107  1.1570
 8645TIP3   OH247425   2.520   3.596  17.174 -0.4048  0.0314 -0.8785
 8645TIP3    H147426   2.541   3.586  17.266 -0.4311  0.9859 -0.7529
 8645TIP3    H247427   2.425   3.604  17.171 -0.5185 -1.2322 -1.1284
 8646TIP3   OH247428   1.441   1.244  12.945 -0.3366 -0.0153  0.2228
 8646TIP3    H147429   1.536   1.255  12.949  0.0770 -1.8589 -1.8856
 8646TIP3    H247430   1.415   1.291  12.866 -0.5766 -2.2053 -1.1031
 8647TIP3   OH247431   1.525   4.098  13.382 -0.0931  0.1626 -0.0034
 8647TIP3    H147432   1.500   4.119  13.292  0.4482 -1.0670 -0.4645
 8647TIP3    H247433   1.442   4.100  13.431 -0.7150 -1.1088 -0.9437
 8648TIP3   OH247434   1.812   4.962  14.988 -0.2210 -0.1785  0.2227
 8648TIP3    H147435   1.756   5.010  14.928 -0.6758  1.5822  1.9540
 8648TIP3    H247436   1.901   4.977  14.956 -0.5634 -1.7441 -1.6584
 8649TIP3   OH247437   0.712   0.010   0.486 -0.0285 -0.0212 -0.5992
 8649TIP3    H147438   0.746  -0.079   0.492  0.2985  0.1463  0.1453
 8649TIP3    H247439   0.787   0.066   0.508 -1.0416  0.3182  2.5242
 8650TIP3   OH247440   5.039   3.305  16.876 -0.2642  0.1962 -0.2635
 8650TIP3    H147441   5.058   3.214  16.896  2.5095  0.3809 -1.6152
 8650TIP3    H247442   5.001   3.303  16.788 -0.0521  0.3588 -0.3599
 8651TIP3   OH247443   5.902   3.175   3.767  0.1770  0.0325  0.5440
 8651TIP3    H147444   5.863   3.246   3.819 -1.6696 -0.0046 -0.7018
 8651TIP3    H247445   5.951   3.220   3.698  0.7545  0.0763  0.9746
 8652TIP3   OH247446   2.166   1.701  15.466  0.3539  0.0968  0.4110
 8652TIP3    H147447   2.121   1.670  15.387 -1.5864 -2.2068  2.2765
 8652TIP3    H247448   2.257   1.711  15.438 -0.2153 -0.7716 -2.0678
 8653TIP3   OH247449   3.778   6.208  11.856 -0.1491  0.0368 -0.0021
 8653TIP3    H147450   3.846   6.260  11.898 -1.0519  1.0453  0.2412
 8653TIP3    H247451   3.779   6.124  11.902 -0.0150  0.5468  0.9344
 8654TIP3   OH247452   5.544   5.653  17.060 -0.2123  0.3787  0.3138
 8654TIP3    H147453   5.477   5.614  17.004  0.0604  0.5331 -0.1202
 8654TIP3    H247454   5.602   5.700  17.000  1.1025 -0.9253  0.5179
 8655TIP3   OH247455   6.654   6.720  11.190 -0.3420 -0.3760  0.2050
 8655TIP3    H147456   6.609   6.804  11.190 -0.5628 -0.4634 -1.4694
 8655TIP3    H247457   6.654   6.693  11.282 -1.3728  0.8532  0.5965
 8656TIP3   OH247458   6.756   0.030   1.123 -0.4209  0.3204  0.3033
 8656TIP3    H147459   6.815  -0.037   1.089 -0.5377  0.2140  0.3103
 8656TIP3    H247460   6.722   0.074   1.045  1.2341  1.7542  0.3312
 8657TIP3   OH247461   0.031   3.526  12.086 -0.1262 -0.5068 -0.4856
 8657TIP3    H147462  -0.001   3.496  12.001 -0.2252 -1.1781 -0.2147
 8657TIP3    H247463  -0.020   3.606  12.104  0.0584 -0.2283 -1.1539
 8658TIP3   OH247464   5.023   5.672  16.114 -0.1038 -0.2413  0.0322
 8658TIP3    H147465   5.102   5.692  16.163  0.4146 -1.0069 -0.4743
 8658TIP3    H247466   4.977   5.756  16.106 -0.0870 -0.0619  1.5969
 8659TIP3   OH247467   1.579   2.617   5.414 -0.3333 -0.8626  0.8068
 8659TIP3    H147468   1.606   2.645   5.327 -4.7909  0.4089 -0.4193
 8659TIP3    H247469   1.541   2.530   5.400 -1.7869 -0.3262  1.2488
 8660TIP3   OH247470   6.401   5.217  16.139 -0.2334 -0.1610 -0.5434
 8660TIP3    H147471   6.343   5.142  16.151  1.0501 -0.9770  0.9719
 8660TIP3    H247472   6.355   5.290  16.180  0.0730 -0.9681  1.3508
 8661TIP3   OH247473   3.134   4.221   4.118 -0.2193 -0.1266  0.3959
 8661TIP3    H147474   3.213   4.203   4.068  0.0507  0.9602  0.3906
 8661TIP3    H247475   3.069   4.160   4.085 -0.2208  0.9531 -1.7496
 8662TIP3   OH247476   0.310   2.127   1.827  0.2686  0.5470  0.2495
 8662TIP3    H147477   0.372   2.170   1.768  0.5353 -1.3678 -0.9824
 8662TIP3    H247478   0.255   2.197   1.861 -0.2675  1.7185 -2.7415
 8663TIP3   OH247479   6.535   3.624  14.855 -0.1137 -0.0789  0.6843
 8663TIP3    H147480   6.464   3.560  14.861 -0.2388 -0.3152 -2.0771
 8663TIP3    H247481   6.494   3.702  14.820  1.0201 -0.4224 -1.5614
 8664TIP3   OH247482   1.563   6.385   3.519  0.2110  0.2979  0.2517
 8664TIP3    H147483   1.577   6.434   3.600 -0.9552 -1.2815  1.4690
 8664TIP3    H247484   1.631   6.318   3.519 -0.1789 -0.1035  0.2557
 8665TIP3   OH247485   2.477   5.741   1.791 -1.0516 -0.1923 -0.8548
 8665TIP3    H147486   2.466   5.836   1.782  1.4964  0.2817  0.3002
 8665TIP3    H247487   2.551   5.720   1.735 -0.6186 -1.2330  0.0823
 8666TIP3   OH247488   6.692   5.871   2.897  0.2036  0.0732  1.2272
 8666TIP3    H147489   6.628   5.931   2.859  3.0341  1.3786 -1.8916
 8666TIP3    H247490   6.685   5.792   2.843  1.6470  0.5075  0.3560
 8667TIP3   OH247491   6.784   0.477   3.767 -0.3250 -0.2414 -0.3249
 8667TIP3    H147492   6.690   0.484   3.787 -0.0424 -0.8499  1.3749
 8667TIP3    H247493   6.810   0.392   3.803  0.9250 -0.0196 -0.6528
 8668TIP3   OH247494   5.786   4.543   0.380  0.1673  0.8487  0.0386
 8668TIP3    H147495   5.694   4.546   0.405 -0.6415  1.5887 -2.6950
 8668TIP3    H247496   5.785   4.552   0.285  2.8603 -2.7375 -0.5388
 8669TIP3   OH247497   5.662   6.772   4.014 -0.3917 -0.0759  0.7932
 8669TIP3    H147498   5.668   6.865   3.991  0.1679 -0.6575 -1.7882
 8669TIP3    H247499   5.571   6.749   3.997 -0.0943 -0.3898 -0.5020
 8670TIP3   OH247500   6.783   3.072   6.329 -0.2966 -0.0755  0.5910
 8670TIP3    H147501   6.718   3.142   6.330  0.1073  0.3169  0.1027
 8670TIP3    H247502   6.854   3.106   6.274 -0.4743 -1.1941 -0.3654
 8671TIP3   OH247503   5.727   1.976  13.690 -0.0283 -0.3337 -0.1014
 8671TIP3    H147504   5.785   1.992  13.616 -0.0194 -0.0138 -0.0235
 8671TIP3    H247505   5.758   1.894  13.728 -0.0352 -0.5011 -0.4543
 8672TIP3   OH247506   3.344   6.401   4.746  0.1210 -0.3182  0.1318
 8672TIP3    H147507   3.387   6.463   4.804 -0.7780 -0.6459  1.1741
 8672TIP3    H247508   3.336   6.448   4.663  1.4770  0.1327  0.2232
 8673TIP3   OH247509   1.160   0.979   1.131  0.0597 -0.5835 -0.2419
 8673TIP3    H147510   1.183   0.945   1.044 -0.3964 -1.3393 -0.0730
 8673TIP3    H247511   1.214   1.057   1.141  0.6413 -0.8911 -0.9111
 8674TIP3   OH247512   3.467   4.994   3.238 -0.2086  0.1870 -0.1936
 8674TIP3    H147513   3.544   4.946   3.270  0.2594  1.5853  0.8718
 8674TIP3    H247514   3.441   5.050   3.312 -1.4454  0.7114 -0.9924
 8675TIP3   OH247515   1.390   3.009   6.430  0.2671  0.3590 -0.2067
 8675TIP3    H147516   1.312   2.970   6.391  0.2001 -1.5462  1.6766
 8675TIP3    H247517   1.461   2.950   6.405  1.2516  2.2336 -2.1573
 8676TIP3   OH247518   2.935   5.567  15.691 -0.4421 -0.3968 -0.3320
 8676TIP3    H147519   2.847   5.545  15.660 -0.9798 -0.1354  0.9275
 8676TIP3    H247520   2.992   5.503  15.650 -1.4743 -1.7491  0.2587
 8677TIP3   OH247521   6.537   0.636  15.895 -0.2936 -0.0712 -0.2610
 8677TIP3    H147522   6.504   0.726  15.893  0.7134  0.2921 -1.4507
 8677TIP3    H247523   6.632   0.645  15.891 -0.2028 -1.1866 -1.2948
 8678TIP3   OH247524   0.121   2.653  14.689  0.2054 -0.5710  0.5013
 8678TIP3    H147525   0.200   2.700  14.661 -0.6824  0.4871 -0.3294
 8678TIP3    H247526   0.097   2.693  14.773  2.1795 -2.9193  2.3216
 8679TIP3   OH247527   1.975   6.017   5.286 -0.2152  0.1375 -0.2465
 8679TIP3    H147528   1.955   6.045   5.197  0.7934 -0.1370 -0.5722
 8679TIP3    H247529   1.892   5.983   5.319 -1.1924  2.3807 -0.2337
 8680TIP3   OH247530   1.885   4.557  16.470 -0.1074 -0.5805  0.1040
 8680TIP3    H147531   1.955   4.604  16.425  0.9247 -0.8428  1.3732
 8680TIP3    H247532   1.930   4.503  16.535 -1.5004 -0.5403  1.1540
 8681TIP3   OH247533   4.178   1.695   6.592  0.1813 -0.1037  0.1550
 8681TIP3    H147534   4.158   1.766   6.653 -0.5339  1.0985 -1.3988
 8681TIP3    H247535   4.103   1.692   6.533  0.5348 -1.6901 -0.2626
 8682TIP3   OH247536   1.507   6.197  12.224 -0.2270 -0.3050  0.2048
 8682TIP3    H147537   1.496   6.112  12.266  0.0254 -0.1359  0.6259
 8682TIP3    H247538   1.430   6.207  12.169 -0.9515 -0.2121  1.2027
 8683TIP3   OH247539   3.068   4.652  16.882  0.7392  0.2137 -0.1927
 8683TIP3    H147540   3.038   4.740  16.864 -1.0202 -0.6793 -1.9613
 8683TIP3    H247541   3.003   4.595  16.842  1.9075 -1.9115  0.7273
 8684TIP3   OH247542   3.654   6.681   4.285  0.5119 -0.3699  0.0373
 8684TIP3    H147543   3.562   6.703   4.267 -0.1572 -1.0518  2.3531
 8684TIP3    H247544   3.694   6.679   4.198 -1.5204  0.4852 -1.0141
 8685TIP3   OH247545   4.636   5.063   2.649  0.1540 -0.4691  0.0911
 8685TIP3    H147546   4.634   5.051   2.744 -1.2573 -2.9152 -0.1514
 8685TIP3    H247547   4.729   5.057   2.626  0.5756  0.7893  1.3455
 8686TIP3   OH247548   1.739   4.528  11.099  0.1602 -0.1005  0.5372
 8686TIP3    H147549   1.646   4.513  11.118 -0.7376 -2.3846 -4.1940
 8686TIP3    H247550   1.780   4.443  11.118  0.6260 -0.0889 -0.4154
 8687TIP3   OH247551   1.936   0.758   0.900  0.1954 -0.3487  0.4175
 8687TIP3    H147552   2.012   0.723   0.854 -0.3864 -1.0950  0.0205
 8687TIP3    H247553   1.934   0.851   0.876  0.3689 -0.5536 -0.4180
 8688TIP3   OH247554   5.986   0.700  16.220  0.2582  0.0564  0.1185
 8688TIP3    H147555   6.053   0.632  16.223 -0.9234 -1.1488  0.4313
 8688TIP3    H247556   5.907   0.654  16.191 -0.2808  1.5749 -0.9778
 8689TIP3   OH247557   2.799   3.783   2.322 -0.0119  0.5851  0.0860
 8689TIP3    H147558   2.739   3.855   2.308 -1.8265 -1.0214 -0.8678
 8689TIP3    H247559   2.867   3.819   2.380 -0.1563  3.3360 -1.2929
 8690TIP3   OH247560   3.603   0.949  14.331  0.0544  0.3009  0.1641
 8690TIP3    H147561   3.624   1.007  14.405  2.5958 -0.9476  0.5313
 8690TIP3    H247562   3.664   0.974  14.262  0.9810 -1.6360  0.2084
 8691TIP3   OH247563   3.449   0.165  14.753  0.5202 -0.1184 -0.4530
 8691TIP3    H147564   3.487   0.159  14.665 -1.4921  0.2243 -1.3881
 8691TIP3    H247565   3.490   0.243  14.791  2.8321 -1.3133 -0.3063
 8692TIP3   OH247566   4.862   2.754   2.061  0.4286  0.2161 -0.9502
 8692TIP3    H147567   4.809   2.719   1.990  3.0023 -1.1988 -2.3250
 8692TIP3    H247568   4.920   2.818   2.019  0.9151  0.5488  0.1826
 8693TIP3   OH247569   4.679   2.606  16.810 -0.1754 -0.3536 -0.2365
 8693TIP3    H147570   4.745   2.559  16.759  0.2594 -0.0403  0.0347
 8693TIP3    H247571   4.684   2.696  16.779  1.1995  0.1977  1.4421
 8694TIP3   OH247572   4.739   0.413   1.116  0.2345 -0.5518 -0.3471
 8694TIP3    H147573   4.663   0.469   1.097 -0.4499 -2.0026 -2.2148
 8694TIP3    H247574   4.711   0.360   1.191  0.4884  0.8096  0.7456
 8695TIP3   OH247575   5.707   4.124  13.944 -0.5552  0.0635  0.2614
 8695TIP3    H147576   5.642   4.156  14.006  0.3488  2.0167  0.2403
 8695TIP3    H247577   5.655   4.074  13.880 -1.8103  0.1527  1.1778
 8696TIP3   OH247578   5.225   6.166  13.250 -0.0870  0.5750  0.2871
 8696TIP3    H147579   5.154   6.129  13.198 -0.2443 -0.6133  1.3029
 8696TIP3    H247580   5.233   6.257  13.219 -0.0018 -0.1462 -1.9518
 8697TIP3   OH247581   5.661   1.466  14.869 -0.0423 -0.1088 -0.2338
 8697TIP3    H147582   5.727   1.400  14.846  1.5696  1.2535  0.2944
 8697TIP3    H247583   5.681   1.540  14.812 -0.7178  0.5738  0.3970
 8698TIP3   OH247584   1.192   6.465   5.706 -0.0468 -0.5172  0.2460
 8698TIP3    H147585   1.159   6.376   5.708  0.4041 -0.8506 -2.4899
 8698TIP3    H247586   1.287   6.455   5.710  0.1026 -0.3707 -1.7168
 8699TIP3   OH247587   4.897   4.896  14.206  0.3888  0.4870 -0.1588
 8699TIP3    H147588   4.878   4.891  14.112  1.8640  0.8099 -0.5024
 8699TIP3    H247589   4.855   4.976  14.235  0.2698  0.6023 -0.6356
 8700TIP3   OH247590   4.855   3.245  13.439  0.3022 -0.3886 -0.2254
 8700TIP3    H147591   4.854   3.182  13.511  1.3366 -1.8922 -1.4388
 8700TIP3    H247592   4.885   3.327  13.478  2.3353 -1.5535  0.7906
 8701TIP3   OH247593   2.106   0.101  10.660 -0.1582  0.1952  0.8630
 8701TIP3    H147594   2.117   0.042  10.586  0.0233  0.3960  0.7272
 8701TIP3    H247595   2.193   0.139  10.673  0.2762 -1.1915  2.3384
 8702TIP3   OH247596   3.783   1.269   1.016 -0.4945  0.1499 -0.3767
 8702TIP3    H147597   3.821   1.182   1.010 -0.7493  0.0235 -0.1971
 8702TIP3    H247598   3.698   1.261   0.973  0.3597  0.8467 -2.2933
 8703TIP3   OH247599   0.456   0.820  13.262  0.6623  0.1245  0.1401
 8703TIP3    H147600   0.415   0.753  13.208 -0.7709  0.2750  0.9931
 8703TIP3    H247601   0.403   0.898  13.248 -0.1733  0.0076  2.2036
 8704TIP3   OH247602   2.824   6.784   2.907 -0.3503 -0.4617 -0.2305
 8704TIP3    H147603   2.800   6.712   2.849  1.2201 -0.1054 -1.3787
 8704TIP3    H247604   2.904   6.755   2.950 -1.1484 -0.4573  1.3220
 8705TIP3   OH247605   1.880   4.050  11.941  0.7043 -0.2680  0.2206
 8705TIP3    H147606   1.801   4.077  11.987  0.7158 -0.7673  0.5406
 8705TIP3    H247607   1.951   4.094  11.987  0.5998  0.3914 -0.2297
 8706TIP3   OH247608   4.887   1.563   5.149 -0.0243  0.3359 -0.1020
 8706TIP3    H147609   4.855   1.570   5.239  0.3323  0.0732  0.0487
 8706TIP3    H247610   4.813   1.591   5.095  0.1453  1.6509  0.3160
 8707TIP3   OH247611   3.791   4.064  16.472 -0.4464 -0.1808 -0.2654
 8707TIP3    H147612   3.823   4.046  16.383 -1.8537 -0.3171 -0.7715
 8707TIP3    H247613   3.698   4.083  16.460 -0.9421 -1.4041  1.3191
 8708TIP3   OH247614   6.743   1.175   3.791 -0.0756  0.7909 -0.4473
 8708TIP3    H147615   6.784   1.227   3.861  1.2845 -0.9192  0.1314
 8708TIP3    H247616   6.661   1.144   3.829  0.2155  0.6427  0.0793
 8709TIP3   OH247617   2.177   4.229  17.061 -0.1899  0.2921  0.1132
 8709TIP3    H147618   2.097   4.278  17.044  0.3268  0.8339 -0.8927
 8709TIP3    H247619   2.162   4.185  17.144 -1.3566  0.7358  0.1521
 8710TIP3   OH247620   1.937   5.222  12.850  0.3148  0.0819  0.1880
 8710TIP3    H147621   1.932   5.186  12.939 -0.5672 -1.4120 -0.4288
 8710TIP3    H247622   1.846   5.241  12.827  0.4331 -0.4061 -0.7196
 8711TIP3   OH247623   5.375   2.149   3.832  0.5516  0.0345  0.3269
 8711TIP3    H147624   5.397   2.056   3.828 -1.5473 -0.5447  0.5597
 8711TIP3    H247625   5.369   2.168   3.925 -1.5429 -0.3468  0.3353
 8712TIP3   OH247626   3.909   4.582  12.376 -0.2500  0.5329  0.7646
 8712TIP3    H147627   3.861   4.657  12.340  0.9865  1.6896  1.4666
 8712TIP3    H247628   3.977   4.620  12.431  2.3298 -0.9542 -1.1375
 8713TIP3   OH247629   2.953   5.648  15.323 -0.7169  0.2140  0.1087
 8713TIP3    H147630   3.031   5.629  15.271  1.2756 -0.0890  2.9842
 8713TIP3    H247631   2.947   5.743  15.324  0.1525  0.2744  0.5392
 8714TIP3   OH247632   3.371   2.380  16.294 -0.3347 -0.4270 -0.7022
 8714TIP3    H147633   3.355   2.289  16.321 -0.3493  0.1913  1.5424
 8714TIP3    H247634   3.463   2.395  16.315 -0.7864  0.5977  0.6891
 8715TIP3   OH247635   1.377   3.796   1.182 -0.1468  0.3255  0.1323
 8715TIP3    H147636   1.453   3.827   1.132 -0.8364  1.1528 -0.4245
 8715TIP3    H247637   1.366   3.705   1.154 -0.0008  0.5181 -0.5818
 8716TIP3   OH247638   3.057   6.763  12.703  0.1340 -0.2855 -0.0093
 8716TIP3    H147639   3.074   6.806  12.786  1.2209 -1.2524  0.2987
 8716TIP3    H247640   3.066   6.669  12.722 -0.7073 -0.5796 -0.9702
 8717TIP3   OH247641   6.012   2.114   4.526  0.0673  0.1482 -0.3919
 8717TIP3    H147642   5.998   2.205   4.552  0.2160 -0.3398  1.4802
 8717TIP3    H247643   6.070   2.120   4.449 -0.9027  1.6548 -1.0468
 8718TIP3   OH247644   2.925   3.983  15.766 -0.5706 -0.1084  0.6554
 8718TIP3    H147645   2.861   4.012  15.701 -0.6826 -0.1731  0.7373
 8718TIP3    H247646   2.919   4.047  15.836 -0.5545 -0.1213  0.6684
 8719TIP3   OH247647   4.035   3.746  15.406  0.1717  0.3369  0.7432
 8719TIP3    H147648   3.988   3.784  15.332 -0.1521  0.0472  0.7970
 8719TIP3    H247649   4.127   3.764  15.388  0.0419  0.9220  0.6413
 8720TIP3   OH247650   3.159   3.395  17.088 -0.3088 -0.2362 -0.1697
 8720TIP3    H147651   3.120   3.310  17.104  0.7788 -0.8619 -0.7277
 8720TIP3    H247652   3.238   3.396  17.143  0.6991 -0.3645 -1.5615
 8721TIP3   OH247653   1.859   2.748  10.920 -0.1518  0.1681  0.2265
 8721TIP3    H147654   1.924   2.757  10.990 -0.5313  0.3732  0.5563
 8721TIP3    H247655   1.889   2.809  10.852 -1.1533  1.9121  1.2703
 8722TIP3   OH247656   3.680   0.396   0.292  0.8032  0.6718 -0.1273
 8722TIP3    H147657   3.611   0.339   0.258  1.2994 -0.2741  0.4004
 8722TIP3    H247658   3.724   0.430   0.214  0.9624 -0.2543 -0.4558
 8723TIP3   OH247659   4.529   3.506   4.065  0.2252  0.1145  0.2991
 8723TIP3    H147660   4.442   3.493   4.025  1.5559 -0.0631 -2.8352
 8723TIP3    H247661   4.563   3.418   4.078 -0.1866  0.1744  1.9310
 8724TIP3   OH247662   3.673   5.974   0.826 -0.1701 -0.0332  0.1915
 8724TIP3    H147663   3.685   6.008   0.915 -0.6948  0.6746  0.0015
 8724TIP3    H247664   3.588   6.009   0.799 -0.6775 -1.3798 -0.0716
 8725TIP3   OH247665   3.087   5.555   0.532  0.3646 -0.1679 -0.4631
 8725TIP3    H147666   3.078   5.642   0.493 -2.5267 -0.1132  0.0945
 8725TIP3    H247667   3.099   5.496   0.458 -0.3422  0.4382 -1.0725
 8726TIP3   OH247668   2.442   2.736   0.809 -0.1299  0.2614  0.1992
 8726TIP3    H147669   2.364   2.736   0.753 -0.3675  2.1534  0.4451
 8726TIP3    H247670   2.421   2.798   0.878  1.3159  0.2217  0.7099
 8727TIP3   OH247671   6.416   2.417  17.069  0.4092 -0.3709 -0.4397
 8727TIP3    H147672   6.389   2.334  17.030 -0.9928  0.0865 -0.4979
 8727TIP3    H247673   6.396   2.483  17.003 -0.4058  0.2246  0.3796
 8728TIP3   OH247674   2.746   5.336   0.845 -0.5720  0.2175 -0.2746
 8728TIP3    H147675   2.758   5.430   0.833  0.1920  0.1461 -0.0991
 8728TIP3    H247676   2.736   5.302   0.756 -1.2217  0.4996 -0.3211
 8729TIP3   OH247677   1.690   6.044   3.221 -0.2453  0.0854  0.2010
 8729TIP3    H147678   1.740   6.021   3.300 -0.8626 -1.7530  0.1053
 8729TIP3    H247679   1.605   6.004   3.235 -0.6471  0.4658 -1.0473
 8730TIP3   OH247680   0.968   6.187  11.939 -0.0380 -0.5092  0.4740
 8730TIP3    H147681   0.944   6.131  11.865  0.7124 -0.6799  0.3508
 8730TIP3    H247682   1.064   6.192  11.935 -0.0417  0.0771  1.0001
 8731TIP3   OH247683   1.240   4.583   1.362  0.5347  0.1686  0.2977
 8731TIP3    H147684   1.239   4.647   1.291  0.6653 -0.4263 -0.2560
 8731TIP3    H247685   1.274   4.630   1.438 -2.7873  1.8300  0.9581
 8732TIP3   OH247686   2.544   1.610   1.416 -0.2354  0.2175  0.3725
 8732TIP3    H147687   2.458   1.605   1.457 -0.2687 -0.2177  0.2562
 8732TIP3    H247688   2.569   1.702   1.422 -0.3218  0.1903  1.1948
 8733TIP3   OH247689   0.078   6.791   3.620  0.0126  0.0491 -0.6514
 8733TIP3    H147690   0.026   6.711   3.606 -0.6724  0.6114 -1.4883
 8733TIP3    H247691   0.117   6.808   3.534  0.4765  0.3969 -0.3720
 8734TIP3   OH247692   1.964   5.207   3.769  0.3190 -0.4992  0.5307
 8734TIP3    H147693   1.900   5.137   3.781 -0.9517  0.1402 -1.8412
 8734TIP3    H247694   1.998   5.193   3.680 -0.2684  2.0475 -0.1834
 8735TIP3   OH247695   2.511   6.472   3.751 -0.0391 -0.2154 -0.1013
 8735TIP3    H147696   2.578   6.511   3.806 -0.9925 -0.8466  1.5654
 8735TIP3    H247697   2.534   6.379   3.748 -0.5284 -0.3454  0.0450
 8736TIP3   OH247698   4.179   1.638  15.063  0.4303  0.2113 -0.0146
 8736TIP3    H147699   4.229   1.677  15.135 -0.1178 -1.1891  1.1802
 8736TIP3    H247700   4.177   1.705  14.995  0.1001  1.9787  1.6704
 8737TIP3   OH247701   3.133   2.909   2.837 -0.3495 -0.3888 -0.2385
 8737TIP3    H147702   3.051   2.938   2.799 -0.6721 -1.6374 -0.5619
 8737TIP3    H247703   3.119   2.816   2.856  0.4306 -0.2482  1.2185
 8738TIP3   OH247704   0.161   3.224  17.028 -0.1786  0.0798 -0.1844
 8738TIP3    H147705   0.102   3.162  16.985  0.7862 -0.2343 -1.1105
 8738TIP3    H247706   0.207   3.267  16.956  2.8256 -1.7345  0.4443
 8739TIP3   OH247707   4.995   4.031   2.134 -0.4873  0.5737  0.0576
 8739TIP3    H147708   5.059   3.964   2.160  0.0576  1.7157  1.9187
 8739TIP3    H247709   4.926   4.025   2.200 -0.9578  1.1263 -0.3775
 8740TIP3   OH247710   1.558   6.350   0.798  0.4669 -0.4437 -0.1641
 8740TIP3    H147711   1.495   6.396   0.854 -0.9604 -2.3433 -0.1144
 8740TIP3    H247712   1.504   6.290   0.746  2.2440 -2.5287  0.2416
 8741TIP3   OH247713   4.323   0.874   5.241 -0.7217 -0.5910  0.1843
 8741TIP3    H147714   4.293   0.897   5.329  1.9736 -0.9698  1.3020
 8741TIP3    H247715   4.342   0.958   5.200 -2.0505 -0.4077 -0.1160
 8742TIP3   OH247716   5.631   3.683   5.909  0.2021  0.0184  0.3256
 8742TIP3    H147717   5.614   3.648   5.822 -0.5020 -0.4443  0.6408
 8742TIP3    H247718   5.726   3.678   5.919  0.3497  0.6249 -0.6358
 8743TIP3   OH247719   5.252   1.817  15.454  0.6212 -0.8006 -0.4484
 8743TIP3    H147720   5.324   1.860  15.499  2.5517 -3.4173 -0.8141
 8743TIP3    H247721   5.246   1.730  15.495 -1.4104 -1.1673 -1.3896
 8744TIP3   OH247722   2.552   1.762   5.580  0.5928  0.0235 -0.7390
 8744TIP3    H147723   2.523   1.844   5.541 -0.5890 -0.8361 -1.7233
 8744TIP3    H247724   2.561   1.702   5.506 -1.7540 -1.6647  0.2439
 8745TIP3   OH247725   5.335   6.663  14.784 -0.4115  0.2791 -0.2300
 8745TIP3    H147726   5.370   6.670  14.695 -1.3716 -0.7651 -0.7164
 8745TIP3    H247727   5.269   6.594  14.778 -1.1363  0.8306  1.0934
 8746TIP3   OH247728   1.180   2.217   5.076  0.5362 -0.9944 -0.0666
 8746TIP3    H147729   1.232   2.136   5.073  1.2651 -0.6217  1.4122
 8746TIP3    H247730   1.220   2.268   5.147  0.4364  0.9164 -1.3336
 8747TIP3   OH247731   4.150   5.732  15.529 -0.0315  0.4643 -0.3618
 8747TIP3    H147732   4.129   5.639  15.538  0.6038  0.4269  0.9016
 8747TIP3    H247733   4.118   5.772  15.609 -0.2242  1.3350 -0.8618
 8748TIP3   OH247734   2.193   0.770  15.118  0.2297  0.0342  0.0727
 8748TIP3    H147735   2.101   0.747  15.107  0.6052 -0.5179 -2.8499
 8748TIP3    H247736   2.192   0.864  15.135 -0.8675 -0.0907  0.8384
 8749TIP3   OH247737   0.500   2.770   4.641  0.2678  0.1069 -0.7825
 8749TIP3    H147738   0.445   2.738   4.712 -0.0079 -1.4345 -1.6500
 8749TIP3    H247739   0.503   2.865   4.654 -1.5795  0.1006 -0.0040
 8750TIP3   OH247740   2.368   0.673   5.995 -0.2559  0.1840 -0.0530
 8750TIP3    H147741   2.298   0.656   6.057 -0.7064 -1.8202 -1.0379
 8750TIP3    H247742   2.329   0.657   5.909  1.4695 -1.4113 -0.6129
 8751TIP3   OH247743   6.441   3.656   0.183 -0.0892  0.2042  0.4196
 8751TIP3    H147744   6.396   3.578   0.153  2.0504 -1.5549  1.4809
 8751TIP3    H247745   6.529   3.649   0.146  0.1401  2.1862  0.4709
 8752TIP3   OH247746   4.330   3.873  16.455  0.3404 -0.1188 -0.0582
 8752TIP3    H147747   4.286   3.945  16.409  0.6874  0.4795  0.5458
 8752TIP3    H247748   4.402   3.914  16.501  2.2990 -1.2363 -1.9262
 8753TIP3   OH247749   2.230   0.954   4.984  0.4078 -0.1742  0.0671
 8753TIP3    H147750   2.278   0.904   4.918  0.1944  0.3477 -0.4886
 8753TIP3    H247751   2.139   0.926   4.974  0.6035 -1.4452  1.3727
 8754TIP3   OH247752   3.176   5.128  14.205  0.0380 -0.3547 -0.6952
 8754TIP3    H147753   3.241   5.180  14.252 -0.8941  0.0145  0.2349
 8754TIP3    H247754   3.223   5.093  14.129  1.6757 -1.1490  0.5964
 8755TIP3   OH247755   4.259   0.339   1.581  0.8537 -0.3767  0.1768
 8755TIP3    H147756   4.220   0.385   1.656 -0.7074  1.3764 -1.5922
 8755TIP3    H247757   4.352   0.361   1.586  0.4930  1.2385  0.6108
 8756TIP3   OH247758   0.101   5.401   2.280  0.1727  0.3323  0.1376
 8756TIP3    H147759   0.100   5.496   2.271  1.3276  0.3323 -0.0954
 8756TIP3    H247760   0.133   5.369   2.195  0.0968 -0.2432  0.3222
 8757TIP3   OH247761   5.137   1.549   2.564  0.1854 -0.1662  0.1038
 8757TIP3    H147762   5.189   1.571   2.641 -1.7420 -0.6375  1.6257
 8757TIP3    H247763   5.201   1.538   2.494  1.9580  0.9225  1.4625
 8758TIP3   OH247764   5.600   4.341  15.443 -0.3619 -0.0939  0.1773
 8758TIP3    H147765   5.631   4.384  15.523 -0.4672 -0.0027  0.1690
 8758TIP3    H247766   5.528   4.286  15.472  0.3019 -0.9117  0.3312
 8759TIP3   OH247767   5.443   0.699   2.424 -0.0470  0.0415  0.0922
 8759TIP3    H147768   5.475   0.736   2.342  0.9783 -0.0607  0.4332
 8759TIP3    H247769   5.400   0.773   2.468 -1.1949 -0.0668 -0.8212
 8760TIP3   OH247770   6.465   4.916  15.345  0.1436  0.2458  0.1285
 8760TIP3    H147771   6.550   4.943  15.380  1.3792  1.4672 -3.4401
 8760TIP3    H247772   6.486   4.851  15.278 -1.7952  0.3160 -0.6070
 8761TIP3   OH247773   1.719   3.444  15.765 -0.3099  0.6988  0.6078
 8761TIP3    H147774   1.624   3.439  15.776 -0.5876  1.1096 -1.1630
 8761TIP3    H247775   1.751   3.477  15.848 -1.8470  1.5711  0.9088
 8762TIP3   OH247776   2.514   2.316  16.447  0.4077 -0.2340 -0.0239
 8762TIP3    H147777   2.505   2.279  16.535 -1.9148 -0.1185 -0.1344
 8762TIP3    H247778   2.476   2.249  16.389 -2.2492  1.4423 -0.4083
 8763TIP3   OH247779   2.967   2.660  12.508  0.4462  0.3498  0.2670
 8763TIP3    H147780   2.915   2.591  12.466 -1.3099  1.4510  0.5847
 8763TIP3    H247781   2.991   2.623  12.593  0.0817 -0.1033  0.1772
 8764TIP3   OH247782   3.154   5.920  12.726  0.2718  0.0857  0.2021
 8764TIP3    H147783   3.148   5.982  12.798  2.2362 -0.2521  0.7263
 8764TIP3    H247784   3.204   5.846  12.762 -2.1800 -1.9773 -0.3228
 8765TIP3   OH247785   1.451   5.675  12.821 -0.4499  0.2921  0.1282
 8765TIP3    H147786   1.374   5.690  12.876  1.6725  2.3155  2.8430
 8765TIP3    H247787   1.462   5.757  12.773 -0.1202 -0.0987 -0.4799
 8766TIP3   OH247788   2.236   0.178   5.299 -0.2288 -0.4287  0.1804
 8766TIP3    H147789   2.266   0.265   5.326 -1.6910  0.1991 -0.0885
 8766TIP3    H247790   2.269   0.119   5.367  1.2420  0.2370  0.0839
 8767TIP3   OH247791   4.612   1.748  15.268  0.3338 -0.2549 -0.5052
 8767TIP3    H147792   4.692   1.696  15.265  0.6929  0.1867  0.6992
 8767TIP3    H247793   4.572   1.736  15.182  1.3995 -0.9345 -0.9277
 8768TIP3   OH247794   3.125   6.498  16.634  0.0279  0.3594 -0.0369
 8768TIP3    H147795   3.069   6.475  16.560  1.2490  0.2553 -0.9655
 8768TIP3    H247796   3.160   6.414  16.664  0.6949  0.5289 -0.3120
 8769TIP3   OH247797   4.613   2.076   3.449 -0.5962 -0.0322 -0.4034
 8769TIP3    H147798   4.551   2.149   3.447 -1.3221 -0.6537 -1.3955
 8769TIP3    H247799   4.567   2.006   3.494 -0.7461 -0.6029 -1.4249
 8770TIP3   OH247800   2.664   3.580  16.953  0.4887 -0.0575 -0.1645
 8770TIP3    H147801   2.611   3.576  17.033  0.8675 -2.1737  0.0152
 8770TIP3    H247802   2.604   3.553  16.883  0.7781 -0.4140 -0.2737
 8771TIP3   OH247803   6.652   1.890  15.664  0.6387  0.5201  0.3604
 8771TIP3    H147804   6.609   1.952  15.605  1.1570  0.1299 -0.4403
 8771TIP3    H247805   6.681   1.819  15.607 -1.2315 -1.2186  1.4040
 8772TIP3   OH247806   6.031   2.315   6.369 -0.2096  0.6723 -0.2136
 8772TIP3    H147807   6.069   2.397   6.400 -0.2958  1.0305 -1.0199
 8772TIP3    H247808   6.071   2.247   6.423 -0.2036  1.2553  0.5156
 8773TIP3   OH247809   0.033   6.709  12.531  0.2010  0.1728  0.2682
 8773TIP3    H147810  -0.052   6.669  12.550  0.4490  0.8464  3.1170
 8773TIP3    H247811   0.097   6.643  12.558  0.5848  0.6890  0.6355
 8774TIP3   OH247812   0.523   1.989   6.137  0.0938 -0.2481 -0.4352
 8774TIP3    H147813   0.609   2.000   6.179 -0.6884  1.2663  0.8757
 8774TIP3    H247814   0.466   2.052   6.182 -1.9394 -1.8298 -0.6681
 8775TIP3   OH247815   1.087   5.266   2.485  0.4018  0.0081 -0.0432
 8775TIP3    H147816   1.126   5.313   2.559  1.1969 -1.7140  0.6698
 8775TIP3    H247817   1.000   5.241   2.516  0.8778 -1.0419  0.4617
 8776TIP3   OH247818   6.597   2.473   0.095 -0.1084 -0.4592 -0.5335
 8776TIP3    H147819   6.537   2.437   0.030 -1.4066  2.0771 -0.8699
 8776TIP3    H247820   6.546   2.477   0.175 -1.0997  3.1388 -1.1718
 8777TIP3   OH247821   6.298   0.590  12.098  0.2376 -0.4531 -0.0007
 8777TIP3    H147822   6.272   0.648  12.027  0.1786  0.1128  0.4766
 8777TIP3    H247823   6.236   0.610  12.169 -2.1428 -3.5755 -0.9702
 8778TIP3   OH247824   4.139   4.728   2.815 -0.4934  0.2783  0.2919
 8778TIP3    H147825   4.154   4.645   2.770 -0.1871  0.7224 -0.4588
 8778TIP3    H247826   4.044   4.737   2.818 -0.5348 -0.3082  0.7777
 8779TIP3   OH247827   4.688   4.971  15.108 -0.4749 -0.3934 -0.3792
 8779TIP3    H147828   4.627   4.903  15.079 -0.3901 -0.9888  0.8018
 8779TIP3    H247829   4.773   4.944  15.073 -1.0455  1.2783 -3.4507
 8780TIP3   OH247830   2.454   4.096   2.115 -0.3751  0.3133 -0.1081
 8780TIP3    H147831   2.423   4.008   2.095  0.6389 -0.2297  0.5999
 8780TIP3    H247832   2.536   4.105   2.066 -0.5536  0.9283 -0.3040
 8781TIP3   OH247833   1.661   2.757   0.235  0.1402  0.0081  0.0344
 8781TIP3    H147834   1.583   2.785   0.187 -0.6110 -0.3740  1.0137
 8781TIP3    H247835   1.674   2.666   0.210 -1.3642 -0.7915  1.9242
 8782TIP3   OH247836   2.949   3.988   0.641 -0.3218 -0.1478 -0.3674
 8782TIP3    H147837   2.985   4.056   0.583  0.6435 -0.3119  0.0227
 8782TIP3    H247838   3.018   3.972   0.705 -0.7440 -1.1385 -0.1410
 8783TIP3   OH247839   0.217   2.997   5.813  0.3956 -0.7717  0.4031
 8783TIP3    H147840   0.215   3.076   5.759  0.0651 -0.7344  0.4658
 8783TIP3    H247841   0.142   2.945   5.783  0.2986 -0.8191  0.7240
 8784TIP3   OH247842   2.789   3.053  15.628 -0.1486  0.8749 -0.2435
 8784TIP3    H147843   2.755   2.988  15.566 -0.6183  0.2945  0.6006
 8784TIP3    H247844   2.765   3.019  15.714  2.3128  0.6083  0.4096
 8785TIP3   OH247845   0.706   1.175  11.927  0.1522 -0.6441  0.1938
 8785TIP3    H147846   0.624   1.139  11.961 -0.6562 -0.4141 -1.4007
 8785TIP3    H247847   0.742   1.105  11.873 -0.8848  0.4246 -2.0486
 8786TIP3   OH247848   1.050   0.853  14.080 -0.1764 -0.9179  0.1580
 8786TIP3    H147849   1.129   0.856  14.133  0.1548  3.1488 -0.2624
 8786TIP3    H247850   1.081   0.844  13.990 -0.3784 -1.7699  0.1648
 8787TIP3   OH247851   2.581   1.085   0.917  0.4310 -0.4625  0.0448
 8787TIP3    H147852   2.670   1.079   0.950  0.2615 -1.0496  0.4207
 8787TIP3    H247853   2.528   1.042   0.984  0.3155 -3.8662 -2.0101
 8788TIP3   OH247854   0.194   3.030   1.023 -0.1290 -0.2765 -0.4334
 8788TIP3    H147855   0.202   3.036   1.118 -0.0441 -3.5424 -0.1027
 8788TIP3    H247856   0.104   2.999   1.009  0.1170 -0.6100 -1.3530
 8789TIP3   OH247857   4.581   2.675  13.963 -0.5204 -0.1253  0.3571
 8789TIP3    H147858   4.506   2.725  13.929 -0.9517  0.1887  1.6959
 8789TIP3    H247859   4.617   2.731  14.032  0.3317 -0.7361  0.4233
 8790TIP3   OH247860   2.084   1.620  15.213 -0.1996  0.1515 -0.9532
 8790TIP3    H147861   2.027   1.544  15.223 -0.4304  0.5000  0.6401
 8790TIP3    H247862   2.162   1.586  15.170  1.1218 -1.7884  2.5377
 8791TIP3   OH247863   2.598   3.198  12.585 -0.3318  0.0108  0.1004
 8791TIP3    H147864   2.503   3.205  12.581 -0.4037 -0.9108  0.1310
 8791TIP3    H247865   2.627   3.223  12.498 -0.4996  1.5774  0.4510
 8792TIP3   OH247866   6.819   4.313  14.729  0.7129  0.1958  0.4347
 8792TIP3    H147867   6.806   4.281  14.639 -0.2889  0.7765  0.3658
 8792TIP3    H247868   6.831   4.407  14.719  3.1741 -0.0078  0.6882
 8793TIP3   OH247869   2.613   6.822  13.258  0.1359 -0.1038  0.1423
 8793TIP3    H147870   2.630   6.864  13.342  0.2143 -0.4975  0.3285
 8793TIP3    H247871   2.578   6.891  13.202 -2.5641 -0.3948  1.3195
 8794TIP3   OH247872   5.833   0.149   4.471  0.2404  0.2797 -0.2108
 8794TIP3    H147873   5.755   0.116   4.426 -0.4056  1.5219 -0.0663
 8794TIP3    H247874   5.906   0.123   4.415  0.0203 -3.0085  0.8401
 8795TIP3   OH247875   4.682   4.284  11.707 -0.5913  0.0750  0.0143
 8795TIP3    H147876   4.730   4.348  11.654 -0.0713 -0.3598 -0.0394
 8795TIP3    H247877   4.591   4.312  11.699 -0.9513 -1.4713 -3.3387
 8796TIP3   OH247878   2.866   2.755  15.258  0.6608 -0.2004  0.3218
 8796TIP3    H147879   2.807   2.765  15.333 -1.8209 -1.4654 -1.2933
 8796TIP3    H247880   2.829   2.812  15.191  2.0825 -0.0479 -0.3689
 8797TIP3   OH247881   5.403   3.628   4.485  0.4378  0.1871 -0.5494
 8797TIP3    H147882   5.470   3.562   4.505  1.2567  1.7317  2.5062
 8797TIP3    H247883   5.321   3.579   4.485  1.2634 -1.2873 -1.4280
 8798TIP3   OH247884   3.616   1.598   0.123  0.3144 -0.4160  0.5595
 8798TIP3    H147885   3.531   1.640   0.110 -1.2946 -3.4268  0.4827
 8798TIP3    H247886   3.678   1.657   0.082 -1.8920  1.2953 -0.5374
 8799TIP3   OH247887   0.728   6.417  15.859 -0.1037 -0.0015  0.3482
 8799TIP3    H147888   0.775   6.370  15.928  0.2133 -0.3468 -0.0960
 8799TIP3    H247889   0.777   6.398  15.779 -1.9766 -1.8805 -0.4722
 8800TIP3   OH247890   4.142   4.056   4.558 -0.5561 -0.1929  0.3308
 8800TIP3    H147891   4.123   3.962   4.558 -0.3812 -0.2312 -0.1792
 8800TIP3    H247892   4.083   4.092   4.493 -0.4006  0.0047  0.2998
 8801TIP3   OH247893   5.743   4.325  14.628 -0.5713 -0.5089 -0.5398
 8801TIP3    H147894   5.813   4.385  14.651 -1.4354  1.8518 -3.3792
 8801TIP3    H247895   5.787   4.249  14.590  0.5109  0.4108 -1.1827
 8802TIP3   OH247896   0.266   4.260   5.843  0.1510  0.1366  0.8938
 8802TIP3    H147897   0.221   4.276   5.761 -1.2916  0.8123  1.7821
 8802TIP3    H247898   0.336   4.199   5.820  0.1576  0.7645 -0.9285
 8803TIP3   OH247899   4.792   4.521   1.120 -0.1117  0.8463 -0.2168
 8803TIP3    H147900   4.710   4.569   1.131 -0.1247  0.7875 -0.0427
 8803TIP3    H247901   4.767   4.429   1.117  0.0179  0.7719  0.6988
 8804TIP3   OH247902   5.818   4.224   4.220 -0.5225  0.6957  0.2189
 8804TIP3    H147903   5.771   4.288   4.166 -2.0932 -0.3110  0.3355
 8804TIP3    H247904   5.750   4.173   4.262  0.6958 -0.4781  0.8487
 8805TIP3   OH247905   4.145   1.618   4.375 -0.2267  0.3428 -0.1166
 8805TIP3    H147906   4.240   1.627   4.383 -0.0704 -1.6765  0.9720
 8805TIP3    H247907   4.109   1.690   4.426  0.5819  3.1277 -3.0766
 8806TIP3   OH247908   4.202   6.523  14.818  0.2060 -0.1860 -0.2776
 8806TIP3    H147909   4.136   6.523  14.887  0.0638 -0.1719 -0.4125
 8806TIP3    H247910   4.154   6.495  14.739  0.5379 -1.0139 -0.2027
 8807TIP3   OH247911   0.506   5.100  11.895 -0.1961  0.1926 -0.0564
 8807TIP3    H147912   0.572   5.152  11.849  0.2937  0.2068  0.6479
 8807TIP3    H247913   0.445   5.073  11.827 -0.1904  1.2776 -0.5182
 8808TIP3   OH247914   4.184   0.078   0.584 -0.3940 -0.3445 -0.1784
 8808TIP3    H147915   4.273   0.053   0.612  0.1346  0.7519 -0.8385
 8808TIP3    H247916   4.127   0.018   0.632  0.7198 -1.3656 -0.0727
 8809TIP3   OH247917   0.464   6.649   0.871  0.2826  0.2505  0.0795
 8809TIP3    H147918   0.378   6.684   0.848  0.7792  0.6841 -1.1797
 8809TIP3    H247919   0.448   6.595   0.948 -1.2586 -0.3540 -0.6396
 8810TIP3   OH247920   3.410   1.979   1.932  0.3792 -0.4497 -0.2954
 8810TIP3    H147921   3.486   2.024   1.894  0.8910 -0.4606  0.6877
 8810TIP3    H247922   3.358   2.049   1.971  0.5513 -0.5777  0.1661
 8811TIP3   OH247923   3.603   1.335  15.177  0.7211 -0.0553  0.0914
 8811TIP3    H147924   3.574   1.322  15.087 -0.8415 -1.1006  0.7102
 8811TIP3    H247925   3.689   1.293  15.181  2.2045  2.5707 -1.6284
 8812TIP3   OH247926   1.468   3.921  16.733 -0.3591  0.1477  0.1539
 8812TIP3    H147927   1.416   3.886  16.805  1.3822  0.3977  1.6038
 8812TIP3    H247928   1.548   3.954  16.774  0.2688  1.2306 -1.7792
 8813TIP3   OH247929   3.832   0.693   1.508 -0.1692 -0.3845 -0.4402
 8813TIP3    H147930   3.888   0.620   1.535 -0.5157 -0.4752  0.0346
 8813TIP3    H247931   3.889   0.770   1.515  0.6005 -0.7238 -2.1566
 8814TIP3   OH247932   0.804   1.334  14.992 -0.1062 -0.4588 -0.5335
 8814TIP3    H147933   0.836   1.424  14.998 -0.8409 -0.2820  1.6071
 8814TIP3    H247934   0.710   1.342  14.974 -0.2142 -0.7722 -0.1442
 8815TIP3   OH247935   6.335   5.850  16.845  0.0337  0.7368 -0.0407
 8815TIP3    H147936   6.281   5.928  16.851  0.2844  0.8154  1.5013
 8815TIP3    H247937   6.276   5.781  16.816 -0.7972  0.9289  1.1448
 8816TIP3   OH247938   0.738   5.109   1.468 -0.1558 -0.2722 -0.0839
 8816TIP3    H147939   0.664   5.118   1.408 -0.7121 -2.1948  0.2234
 8816TIP3    H247940   0.734   5.018   1.497  1.7042 -0.1246  0.7954
 8817TIP3   OH247941   3.913   3.276   4.110  0.3573 -0.3515  0.4398
 8817TIP3    H147942   3.860   3.322   4.045  1.1335  0.0176  0.0588
 8817TIP3    H247943   3.970   3.344   4.146  0.1789 -0.6251  1.2602
 8818TIP3   OH247944   4.712   4.656   5.628 -0.4529  0.0828  0.1050
 8818TIP3    H147945   4.692   4.615   5.712 -1.8763  0.1060 -0.1851
 8818TIP3    H247946   4.685   4.591   5.563  0.6794  0.0455 -0.3423
 8819TIP3   OH247947   2.642   2.741  13.154 -0.3238 -0.1081 -0.1651
 8819TIP3    H147948   2.560   2.772  13.191  1.0341  0.9505  2.2238
 8819TIP3    H247949   2.685   2.819  13.121  0.6826 -0.2624  0.7118
 8820TIP3   OH247950   5.536   2.663  13.225 -0.2668  0.1873 -0.3988
 8820TIP3    H147951   5.626   2.632  13.234 -0.6237 -0.9922 -0.7196
 8820TIP3    H247952   5.520   2.716  13.304 -0.1744 -1.8867  1.0805
 8821TIP3   OH247953   2.294   0.669  13.636 -0.7063 -0.9646  0.5455
 8821TIP3    H147954   2.239   0.747  13.644  0.1693 -0.2879  0.1671
 8821TIP3    H247955   2.267   0.629  13.553 -0.8829 -0.8402  0.5432
 8822TIP3   OH247956   3.000   2.599  12.132 -0.1058 -0.0321  0.0512
 8822TIP3    H147957   3.010   2.538  12.059 -2.1661 -1.4616  0.8532
 8822TIP3    H247958   2.967   2.545  12.204  0.1594  1.6527  1.5052
 8823TIP3   OH247959   3.391   5.973  13.613  0.7198  0.4042  0.1294
 8823TIP3    H147960   3.468   5.915  13.611  0.0543 -0.6651  2.4740
 8823TIP3    H247961   3.427   6.061  13.616  1.9459 -0.1001  1.9569
 8824TIP3   OH247962   2.295   4.447  13.446  0.0773 -0.5229 -0.1451
 8824TIP3    H147963   2.327   4.429  13.357  3.3006  2.1296  0.2801
 8824TIP3    H247964   2.291   4.543  13.451 -1.8452 -0.6182  2.0618
 8825TIP3   OH247965   1.330   2.825  16.700  0.2976  0.0304 -0.4077
 8825TIP3    H147966   1.272   2.750  16.718  0.6755  0.0246  0.8890
 8825TIP3    H247967   1.357   2.814  16.609  2.3672 -2.8460  0.4245
 8826TIP3   OH247968   1.511   0.361   1.460  0.6600  0.4900 -0.3762
 8826TIP3    H147969   1.433   0.307   1.472  2.0983 -1.3320  1.5073
 8826TIP3    H247970   1.483   0.450   1.482 -0.3711 -0.4837  2.6693
 8827TIP3   OH247971   6.128   3.223   4.238  0.3727 -0.0008  0.4085
 8827TIP3    H147972   6.130   3.283   4.312  1.0813  1.1164 -0.4874
 8827TIP3    H247973   6.159   3.140   4.274  2.8721  1.0629  0.9404
 8828TIP3   OH247974   1.255   6.714   1.222 -0.6071 -0.2736 -0.5536
 8828TIP3    H147975   1.174   6.761   1.245 -0.2230  0.5812 -0.9116
 8828TIP3    H247976   1.296   6.695   1.307 -1.4967 -1.2979 -0.3356
 8829TIP3   OH247977   5.799   6.823  11.943 -0.0799 -0.3450  0.0840
 8829TIP3    H147978   5.819   6.872  11.864 -0.2933  1.6492  1.1785
 8829TIP3    H247979   5.857   6.747  11.940 -0.6936 -0.7906 -2.3605
 8830TIP3   OH247980   1.939   4.018  16.472 -0.2322 -0.4807 -0.1261
 8830TIP3    H147981   1.918   4.101  16.430  0.5700 -0.2375 -0.0737
 8830TIP3    H247982   1.970   4.042  16.559 -0.2165 -0.8533 -0.0274
 8831TIP3   OH247983   5.037   5.845  14.647 -0.1501 -0.0584 -0.1507
 8831TIP3    H147984   5.025   5.900  14.724 -0.3540 -0.0357 -0.1978
 8831TIP3    H247985   5.075   5.904  14.582  3.0913 -0.7978  0.8948
 8832TIP3   OH247986   4.732   3.794   2.027 -0.6101  0.0383 -0.5943
 8832TIP3    H147987   4.694   3.850   2.094 -2.9248 -0.6354 -1.2612
 8832TIP3    H247988   4.685   3.817   1.946 -0.5618 -1.7929 -1.1827
 8833TIP3   OH247989   3.162   0.709   5.527 -0.1181  0.1849  0.5828
 8833TIP3    H147990   3.158   0.800   5.497  0.1723  0.5828  1.7150
 8833TIP3    H247991   3.097   0.704   5.598  0.6471 -0.2017  1.2694
 8834TIP3   OH247992   3.927   6.447   5.504 -0.2095 -0.6795  0.0679
 8834TIP3    H147993   3.948   6.444   5.598  2.3884 -0.9013 -0.4307
 8834TIP3    H247994   3.834   6.469   5.501  0.2916  2.6854  2.6928
 8835TIP3   OH247995   5.331   6.128   4.165  0.4987 -0.2584 -0.5594
 8835TIP3    H147996   5.250   6.130   4.114  1.3567 -2.1988 -2.0851
 8835TIP3    H247997   5.326   6.207   4.220 -2.2135 -0.1061 -0.8844
 8836TIP3   OH247998   5.646   4.609  14.973  0.4106  0.0375 -0.8070
 8836TIP3    H147999   5.677   4.627  15.061  1.6433  3.3817 -1.7795
 8836TIP3    H248000   5.556   4.642  14.971  0.7694  1.0445 -1.0562
 8837TIP3   OH248001   1.558   0.261  10.458 -0.4912 -0.4140  0.2191
 8837TIP3    H148002   1.596   0.179  10.426  0.8335  0.2633 -0.0272
 8837TIP3    H248003   1.482   0.276  10.401 -1.3601 -1.9595  0.9135
 8838TIP3   OH248004   6.035   2.262  16.341 -0.1823 -0.4215  0.4962
 8838TIP3    H148005   5.961   2.293  16.393 -1.9765 -2.3515 -0.7481
 8838TIP3    H248006   6.010   2.281  16.250  1.0797 -0.6648  0.0834
 8839TIP3   OH248007   6.819   5.479  15.583  0.0904  0.0522 -0.7944
 8839TIP3    H148008   6.882   5.460  15.514  1.2125  2.0147 -0.3673
 8839TIP3    H248009   6.853   5.434  15.660 -0.3809 -0.9264 -1.1442
 8840TIP3   OH248010   6.663   1.711   1.097  0.4556  0.0990 -0.4327
 8840TIP3    H148011   6.732   1.752   1.045 -0.6269  1.1570 -1.1070
 8840TIP3    H248012   6.669   1.754   1.183  1.1416 -0.4013 -0.2234
 8841TIP3   OH248013   6.683   2.532  15.879  0.7986  0.5769 -0.0875
 8841TIP3    H148014   6.591   2.522  15.853  0.6294  1.1324  0.2729
 8841TIP3    H248015   6.697   2.465  15.945  0.4902  0.8446  0.2538
 8842TIP3   OH248016   1.436   2.552   2.156  0.8679  0.3688 -0.0070
 8842TIP3    H148017   1.470   2.554   2.245  0.3214 -0.3331  0.2281
 8842TIP3    H248018   1.512   2.571   2.101  1.0495  1.5856  0.6353
 8843TIP3   OH248019   6.105   6.386  15.834  0.5783 -0.4234 -0.1558
 8843TIP3    H148020   6.090   6.348  15.748  0.4057 -0.7070 -0.0050
 8843TIP3    H248021   6.115   6.480  15.818  0.4979 -0.4683 -0.4766
 8844TIP3   OH248022   2.423   1.318  13.770 -0.1449  0.3349 -0.5067
 8844TIP3    H148023   2.449   1.230  13.796 -0.1589  0.5385  0.2204
 8844TIP3    H248024   2.332   1.310  13.744  0.3556 -0.2159 -2.2372
 8845TIP3   OH248025   0.058   1.766  11.226 -0.1788 -0.3046  0.0926
 8845TIP3    H148026   0.133   1.799  11.177  0.3201  0.1980  1.1572
 8845TIP3    H248027   0.060   1.671  11.213 -0.1757 -0.1645 -0.9921
 8846TIP3   OH248028   2.567   4.544   5.327  0.3157  0.4351  0.2419
 8846TIP3    H148029   2.559   4.547   5.422 -0.9475 -1.3397  0.2377
 8846TIP3    H248030   2.522   4.622   5.296 -0.7229  0.1872  1.0678
 8847TIP3   OH248031   0.547   2.322  15.710 -0.2611  0.0367 -0.9067
 8847TIP3    H148032   0.564   2.415  15.722  0.0577  0.2413 -2.6222
 8847TIP3    H248033   0.500   2.295  15.789 -0.8196  1.7617 -0.6148
 8848TIP3   OH248034   2.343   6.031   6.469  0.1151  0.4571  0.1379
 8848TIP3    H148035   2.252   6.001   6.464 -0.7498  2.9953 -2.7579
 8848TIP3    H248036   2.394   5.951   6.481 -2.4038 -1.2158  0.4533
 8849TIP3   OH248037   1.741   4.586  15.080 -0.3269  0.0542  0.2524
 8849TIP3    H148038   1.724   4.624  14.993 -0.3328  0.3412  0.3787
 8849TIP3    H248039   1.698   4.645  15.141  3.2866  2.4251  0.8284
 8850TIP3   OH248040   6.163   0.919   4.035  0.8193  0.6057  0.6809
 8850TIP3    H148041   6.104   0.941   4.107  2.3950  0.6815  2.0105
 8850TIP3    H248042   6.250   0.943   4.067  1.8355 -1.3806 -0.4195
 8851TIP3   OH248043   3.583   6.035  12.403 -0.0092  0.4470 -0.1162
 8851TIP3    H148044   3.554   6.043  12.494  1.3077  2.4255  0.1812
 8851TIP3    H248045   3.504   6.009  12.355 -0.5582 -1.3583  1.6640
 8852TIP3   OH248046   1.292   5.472   4.224 -0.0049  0.0909 -0.6204
 8852TIP3    H148047   1.266   5.539   4.161 -0.2334  1.4848  0.9014
 8852TIP3    H248048   1.275   5.511   4.310  1.2118 -1.3738  0.3431
 8853TIP3   OH248049   0.071   1.732   1.788 -0.0010 -0.1996  0.1374
 8853TIP3    H148050   0.127   1.688   1.851  2.2679  1.5163 -0.5277
 8853TIP3    H248051  -0.005   1.675   1.779  0.9176 -1.8972  2.2401
 8854TIP3   OH248052   6.202   1.172  12.957 -0.5057 -0.4495  0.0199
 8854TIP3    H148053   6.190   1.140  13.046 -2.1326  2.3923  0.9742
 8854TIP3    H248054   6.114   1.199  12.929  0.1906 -0.0001 -1.9289
 8855TIP3   OH248055   3.182   0.162   0.988 -0.0955  0.1211  0.0212
 8855TIP3    H148056   3.113   0.196   0.931 -2.7632 -4.4851 -0.0168
 8855TIP3    H248057   3.169   0.207   1.072 -1.6260  1.0420 -0.6797
 8856TIP3   OH248058   4.229   5.217  14.683  0.0094  0.0818  0.0596
 8856TIP3    H148059   4.295   5.147  14.682 -0.1732 -0.1168 -1.3423
 8856TIP3    H248060   4.227   5.248  14.592 -1.2047  0.6755  0.2722
 8857TIP3   OH248061   3.353   4.610  15.296 -0.0232 -0.2962 -0.0283
 8857TIP3    H148062   3.317   4.664  15.226  0.6087 -0.1633 -0.2526
 8857TIP3    H248063   3.448   4.614  15.284  0.0632 -0.8518  0.4029
 8858TIP3   OH248064   4.438   1.008  14.326  0.6090  0.7424 -0.1955
 8858TIP3    H148065   4.478   1.090  14.299 -0.6703  1.0314 -1.3036
 8858TIP3    H248066   4.357   1.002  14.276 -0.1279 -0.4290  1.0413
 8859TIP3   OH248067   0.951   0.480   0.879  0.1616 -0.0667 -0.3260
 8859TIP3    H148068   0.858   0.501   0.875  0.4366  1.2903 -0.0579
 8859TIP3    H248069   0.957   0.391   0.845 -0.8584  0.9380 -3.4422
 8860TIP3   OH248070   5.751   1.284   1.351 -0.3214 -0.5559 -0.4076
 8860TIP3    H148071   5.660   1.273   1.321  0.4381 -1.0492 -2.7466
 8860TIP3    H248072   5.749   1.361   1.407 -2.7353 -2.3683  2.2369
 8861TIP3   OH248073   4.315   3.633  13.786 -0.6165  0.4263 -0.3810
 8861TIP3    H148074   4.298   3.711  13.838 -2.5948 -0.0738 -0.2009
 8861TIP3    H248075   4.396   3.652  13.739 -1.2862  2.7660 -0.6900
 8862TIP3   OH248076   3.579   0.664  13.587 -0.2063  0.4704 -0.1284
 8862TIP3    H148077   3.619   0.627  13.665 -1.8238 -1.7133 -0.2276
 8862TIP3    H248078   3.650   0.667  13.523  0.8169  0.9935  0.9932
 8863TIP3   OH248079   5.396   2.910   3.904 -0.2726 -0.6220  0.5785
 8863TIP3    H148080   5.383   2.991   3.952  0.5018  1.6204 -2.6676
 8863TIP3    H248081   5.491   2.895   3.907 -0.1000  0.0544 -0.9261
 8864TIP3   OH248082   5.732   1.137  16.678 -0.1827 -1.0798 -0.2448
 8864TIP3    H148083   5.818   1.134  16.720 -0.5571 -2.3497  0.4921
 8864TIP3    H248084   5.678   1.077  16.730 -1.5850 -0.1443 -0.5591
 8865TIP3   OH248085   1.024   3.917  16.412  0.0309 -0.0522 -0.9164
 8865TIP3    H148086   0.991   4.007  16.415 -2.0846 -0.7587 -1.4822
 8865TIP3    H248087   1.070   3.905  16.496 -2.3203  0.6186  0.5434
 8866TIP3   OH248088   0.448   3.528  15.053 -0.8011 -0.2557 -0.4424
 8866TIP3    H148089   0.406   3.511  15.137 -2.0532  1.1769 -0.7332
 8866TIP3    H248090   0.376   3.549  14.994  0.2370  2.2231 -0.9726
 8867TIP3   OH248091   2.282   2.198  16.913  0.2439 -0.6405  0.0157
 8867TIP3    H148092   2.317   2.109  16.910 -0.4029 -0.9355  0.8548
 8867TIP3    H248093   2.271   2.223  16.821  2.2121 -0.6986 -0.2839
 8868TIP3   OH248094   4.433   1.521  12.016 -0.2685 -0.5412  0.2952
 8868TIP3    H148095   4.453   1.544  12.107 -3.7942  2.5199  0.5206
 8868TIP3    H248096   4.339   1.503  12.017 -0.2052 -1.4656 -2.6199
 8869TIP3   OH248097   2.642   5.416  12.981  0.1300  0.3556  0.4659
 8869TIP3    H148098   2.599   5.455  13.057 -3.2355 -0.2237 -0.9451
 8869TIP3    H248099   2.661   5.326  13.007  1.1077  0.7823  1.3048
 8870TIP3   OH248100   3.474   6.155  16.346  0.3093 -0.2339 -0.1700
 8870TIP3    H148101   3.439   6.074  16.308 -0.1860 -0.4079  0.6462
 8870TIP3    H248102   3.521   6.197  16.273 -0.3973 -0.6868 -0.8996
 8871TIP3   OH248103   1.128   4.651   4.801 -0.0076  0.1127  0.1140
 8871TIP3    H148104   1.180   4.730   4.819  1.3448 -0.8351  0.5483
 8871TIP3    H248105   1.193   4.581   4.797 -1.2130 -1.0170 -0.0356
 8872TIP3   OH248106   1.547   0.953  12.184  0.2477 -0.1663  0.6160
 8872TIP3    H148107   1.572   1.014  12.115  0.0027  0.9453  1.4750
 8872TIP3    H248108   1.591   0.871  12.161 -4.2313 -1.7364 -3.9798
 8873TIP3   OH248109   2.136   0.131  16.509 -0.1494 -0.0871 -0.0921
 8873TIP3    H148110   2.116   0.075  16.434 -1.4030 -0.8738  0.7900
 8873TIP3    H248111   2.231   0.139  16.509 -0.1076 -0.3396 -1.5623
 8874TIP3   OH248112   3.458   5.504   2.362  0.2624 -0.5073  0.7312
 8874TIP3    H148113   3.492   5.441   2.426  1.5087 -1.1914 -0.5565
 8874TIP3    H248114   3.404   5.452   2.303 -0.0665 -0.0714  0.6486
 8875TIP3   OH248115   5.819   1.784   5.878  0.1691 -0.2288  0.2066
 8875TIP3    H148116   5.755   1.832   5.826  2.0621  0.5429 -1.5613
 8875TIP3    H248117   5.897   1.840   5.878  0.7649 -0.9220  2.6274
 8876TIP3   OH248118   0.124   0.850  13.929  0.0874  0.0252 -0.7053
 8876TIP3    H148119   0.081   0.807  14.003  0.1687  0.6725 -0.2752
 8876TIP3    H248120   0.209   0.878  13.963  0.2476  0.0737 -1.1296
 8877TIP3   OH248121   6.416   5.956   4.524 -0.3689 -0.2074  0.2277
 8877TIP3    H148122   6.509   5.952   4.547 -0.1262 -0.5178 -0.7402
 8877TIP3    H248123   6.372   5.979   4.606  0.6359  0.7982  0.5106
 8878TIP3   OH248124   3.182   1.303  12.262  0.0215  0.1516 -0.1748
 8878TIP3    H148125   3.123   1.286  12.336 -0.2367  1.1261 -0.1480
 8878TIP3    H248126   3.249   1.234  12.269  0.4162  0.6401  1.3938
 8879TIP3   OH248127   6.380   3.320   5.226  0.2300  0.4134 -0.2375
 8879TIP3    H148128   6.426   3.299   5.307  0.9342 -0.2818 -0.8102
 8879TIP3    H248129   6.422   3.400   5.195  1.1453 -0.2761 -0.8136
 8880TIP3   OH248130   3.394   5.641   5.936  0.3599  0.2311 -0.5789
 8880TIP3    H148131   3.442   5.559   5.942  2.0975  1.2672  0.4067
 8880TIP3    H248132   3.422   5.691   6.012 -2.4059  0.8800  0.1361
 8881TIP3   OH248133   2.681   5.540  15.593 -0.4129 -0.6523  0.0618
 8881TIP3    H148134   2.615   5.502  15.652  0.0076 -0.8835  0.3887
 8881TIP3    H248135   2.694   5.473  15.526 -0.6858 -0.5056 -0.1397
 8882TIP3   OH248136   4.920   4.065   0.179  0.3817  0.1234  0.0455
 8882TIP3    H148137   4.948   4.093   0.092  0.2429  0.2475  0.0397
 8882TIP3    H248138   4.849   4.125   0.201 -0.4542 -0.7093 -0.3026
 8883TIP3   OH248139   5.901   1.095   0.448 -0.3502  0.0460 -0.5442
 8883TIP3    H148140   5.965   1.024   0.458  1.2319  1.2200 -1.6715
 8883TIP3    H248141   5.843   1.065   0.378 -2.2228 -1.7678  1.6195
 8884TIP3   OH248142   2.017   2.727  14.647 -0.6809 -0.0329 -0.1137
 8884TIP3    H148143   2.112   2.727  14.659 -0.7522 -1.3432  0.6789
 8884TIP3    H248144   2.002   2.786  14.574  0.8039 -0.2477 -0.6330
 8885TIP3   OH248145   1.372   3.533  15.116  0.2458  0.0142 -0.4828
 8885TIP3    H148146   1.305   3.576  15.063 -0.5207  0.5017  0.8367
 8885TIP3    H248147   1.326   3.505  15.195  1.5194  0.0227  0.2895
 8886TIP3   OH248148   3.056   0.838   6.175  0.2199 -0.3087 -0.0716
 8886TIP3    H148149   3.104   0.920   6.164 -1.2558  0.4722 -1.0388
 8886TIP3    H248150   2.965   0.864   6.187 -0.3210 -1.8046 -0.6157
 8887TIP3   OH248151   4.627   4.542   0.770  0.1000  0.3390 -1.0074
 8887TIP3    H148152   4.633   4.505   0.682  1.3118  2.0589 -1.7064
 8887TIP3    H248153   4.701   4.504   0.817 -1.9598 -2.5687  0.1655
 8888TIP3   OH248154   5.605   3.053  16.650 -0.1916  0.6154  0.0764
 8888TIP3    H148155   5.570   3.069  16.738  0.9388 -1.4111  0.9679
 8888TIP3    H248156   5.561   2.973  16.621  0.6506  0.3622 -0.5217
 8889TIP3   OH248157   0.730   2.840   2.853  0.1762  0.0928 -0.3068
 8889TIP3    H148158   0.672   2.803   2.786 -1.0543  1.4831 -0.0598
 8889TIP3    H248159   0.810   2.863   2.804 -0.3029  0.1346 -1.0921
 8890TIP3   OH248160   0.540   1.430   1.942  0.0939 -0.1574  0.1574
 8890TIP3    H148161   0.471   1.438   1.877 -0.6061 -0.9161  0.7867
 8890TIP3    H248162   0.573   1.341   1.932  0.8133  0.1151  0.0339
 8891TIP3   OH248163   2.065   6.313   1.013  0.1483 -0.5603  0.3367
 8891TIP3    H148164   1.986   6.363   1.032  0.3460 -0.6149  1.3528
 8891TIP3    H248165   2.033   6.233   0.971 -0.2040  0.1507 -0.7999
 8892TIP3   OH248166   6.495   4.018  13.511 -0.3278  0.1052 -0.5463
 8892TIP3    H148167   6.484   4.110  13.488 -2.5987  0.2836  0.9302
 8892TIP3    H248168   6.443   3.971  13.446 -0.6413  0.0212 -0.2362
 8893TIP3   OH248169   1.469   4.944  14.630 -0.4811  0.2046 -0.4878
 8893TIP3    H148170   1.499   4.853  14.628  2.4496  0.9811  1.5311
 8893TIP3    H248171   1.494   4.979  14.545  2.5120  0.1721  0.2721
 8894TIP3   OH248172   5.023   6.541   2.255 -0.0453  0.0297 -0.0110
 8894TIP3    H148173   5.108   6.509   2.223  0.3052  0.3975  0.5345
 8894TIP3    H248174   5.031   6.541   2.350 -0.8651 -0.4649  0.0681
 8895TIP3   OH248175   1.150   2.962   0.283  0.0182 -0.2670  0.0871
 8895TIP3    H148176   1.180   2.883   0.328 -0.5585  0.3674  1.6616
 8895TIP3    H248177   1.061   2.975   0.315 -0.5674  0.0156 -1.5682
 8896TIP3   OH248178   3.479   5.488   5.555 -0.4068 -0.2600 -0.0196
 8896TIP3    H148179   3.556   5.545   5.553 -0.4957 -0.1498 -0.6364
 8896TIP3    H248180   3.514   5.400   5.544 -0.3362 -0.2501  0.1228
 8897TIP3   OH248181   5.489   4.742  15.762 -0.2894 -0.1687  0.1064
 8897TIP3    H148182   5.434   4.820  15.750 -2.5524 -1.4291  1.5543
 8897TIP3    H248183   5.427   4.673  15.787  2.0546 -1.5269  2.6469
 8898TIP3   OH248184   3.948   3.789  16.942 -0.2429  0.5777 -0.6608
 8898TIP3    H148185   3.906   3.825  16.864  1.2143  2.6085 -0.5764
 8898TIP3    H248186   3.995   3.863  16.981  1.3756 -1.0215  0.5963
 8899TIP3   OH248187   0.990   2.731   6.174  0.3359  0.2581 -0.1593
 8899TIP3    H148188   0.895   2.722   6.168 -0.2586  3.2123  2.1308
 8899TIP3    H248189   1.020   2.734   6.083 -1.5270 -1.9201 -0.9419
 8900TIP3   OH248190   5.425   4.124  16.043  0.2893 -0.1902  0.1275
 8900TIP3    H148191   5.433   4.147  16.136 -0.2565  1.0170 -0.0977
 8900TIP3    H248192   5.332   4.112  16.028  0.3898 -0.5572 -0.2307
 8901TIP3   OH248193   3.265   5.023  12.844  0.1386  0.3716  0.0796
 8901TIP3    H148194   3.333   4.964  12.810  0.6994  2.1610 -2.2112
 8901TIP3    H248195   3.190   4.966  12.860  1.2162 -1.2288 -0.2814
 8902TIP3   OH248196   4.266   1.774  11.657 -0.1506  0.3705  0.1255
 8902TIP3    H148197   4.192   1.753  11.715 -0.2066 -0.5404 -0.2610
 8902TIP3    H248198   4.344   1.752  11.709 -0.1156  1.9171  0.7634
 8903TIP3   OH248199   0.697   4.594   3.381  0.1605  0.3977  0.0922
 8903TIP3    H148200   0.741   4.556   3.458 -3.2007 -1.2070  1.4427
 8903TIP3    H248201   0.657   4.674   3.415  2.0129  1.9035 -1.1385
 8904TIP3   OH248202   0.565   0.204  12.140 -0.2109 -0.4430 -0.0023
 8904TIP3    H148203   0.529   0.292  12.130  1.3199  0.4338  1.7509
 8904TIP3    H248204   0.655   0.211  12.110 -0.0627 -1.4063  0.1827
 8905TIP3   OH248205   1.828   1.404   0.078  0.6568  0.0212 -0.4109
 8905TIP3    H148206   1.841   1.376   0.168  0.8281  1.2451 -0.0281
 8905TIP3    H248207   1.744   1.450   0.079  0.8142  0.3240 -0.7937
 8906TIP3   OH248208   4.790   0.738  13.898 -0.7611  0.3228  0.0279
 8906TIP3    H148209   4.800   0.833  13.902  1.8562  0.1240 -0.0172
 8906TIP3    H248210   4.838   0.712  13.820 -1.5860 -1.0476 -0.0516
 8907TIP3   OH248211   4.020   4.477  13.347 -0.1406  0.2599  0.2438
 8907TIP3    H148212   4.039   4.469  13.440 -1.6454  0.4775  0.5923
 8907TIP3    H248213   3.973   4.397  13.325 -0.6561  0.6506 -0.0982
 8908TIP3   OH248214   5.691   1.319   2.554 -0.4056 -0.1753  0.3217
 8908TIP3    H148215   5.598   1.301   2.565 -0.5516 -0.7663 -1.5683
 8908TIP3    H248216   5.719   1.353   2.639 -3.0391  3.2989  0.0171
 8909TIP3   OH248217   1.327   3.842  13.169 -0.0440  0.4839 -0.3909
 8909TIP3    H148218   1.355   3.812  13.082 -0.7695  0.0220 -0.4740
 8909TIP3    H248219   1.266   3.913  13.151 -0.8683 -0.1831 -0.2995
 8910TIP3   OH248220   2.079   4.935  16.016 -0.2740 -0.3164 -0.3817
 8910TIP3    H148221   2.150   4.998  16.006  2.4970 -3.3556 -1.2499
 8910TIP3    H248222   2.092   4.896  16.102  0.3687 -2.2357 -1.2954
 8911TIP3   OH248223   4.972   6.508  12.065 -0.6126 -0.2659  0.1664
 8911TIP3    H148224   4.916   6.437  12.096 -1.0788  0.0831  0.1357
 8911TIP3    H248225   4.955   6.580  12.126 -0.0073 -0.2399  0.3060
 8912TIP3   OH248226   0.897   2.205  12.701  0.1023 -0.3251  0.0386
 8912TIP3    H148227   0.964   2.155  12.747  1.9644  0.6272 -1.4768
 8912TIP3    H248228   0.930   2.295  12.702 -0.6734  0.0128 -1.5600
 8913TIP3   OH248229   5.000   2.958   1.916 -0.1837  0.1754 -0.5494
 8913TIP3    H148230   5.054   2.885   1.885  0.5785  0.4141  0.1725
 8913TIP3    H248231   5.044   2.987   1.995 -0.7011  1.1755 -0.6227
 8914TIP3   OH248232   2.681   5.127  16.052  0.2276  0.1340 -0.0730
 8914TIP3    H148233   2.715   5.159  16.135 -1.1382 -1.6153  1.2195
 8914TIP3    H248234   2.603   5.078  16.075  1.4215 -2.9910 -2.0204
 8915TIP3   OH248235   6.448   1.554  17.060 -0.2529 -0.1626  0.9714
 8915TIP3    H148236   6.400   1.487  17.109  0.8358 -0.1484  2.1351
 8915TIP3    H248237   6.403   1.636  17.080 -1.6334 -0.5245 -0.5171
 8916TIP3   OH248238   5.797   5.427  16.914  0.6226  0.2341 -0.3426
 8916TIP3    H148239   5.865   5.449  16.850  2.1305 -1.4572  0.5926
 8916TIP3    H248240   5.802   5.497  16.979  1.8465 -0.1210 -0.0280
 8917TIP3   OH248241   2.053   4.709  16.307 -0.2580  0.4269 -0.4074
 8917TIP3    H148242   2.130   4.717  16.364 -0.2202 -0.1192 -0.3836
 8917TIP3    H248243   2.016   4.798  16.305  0.5701  0.7764 -0.6951
 8918TIP3   OH248244   1.126   2.876  11.827  0.2782  0.3164  0.8068
 8918TIP3    H148245   1.104   2.879  11.734 -1.7512  0.6881  1.2355
 8918TIP3    H248246   1.214   2.913  11.833  0.0161  1.2991 -0.8448
 8919TIP3   OH248247   2.333   5.320   1.509 -0.2806 -0.3863 -0.3478
 8919TIP3    H148248   2.408   5.327   1.450  0.0783  2.1731  0.3143
 8919TIP3    H248249   2.350   5.241   1.561  0.1534 -1.8208 -2.5368
 8920TIP3   OH248250   1.603   6.119  15.538  0.3193  0.0347  0.4158
 8920TIP3    H148251   1.600   6.091  15.629  1.0850 -0.9240  0.1659
 8920TIP3    H248252   1.554   6.052  15.490  0.0034  0.4783  0.1165
 8921TIP3   OH248253   4.193   0.820   3.021 -0.3108  0.3114 -0.0228
 8921TIP3    H148254   4.232   0.759   2.959 -2.0401 -0.6707 -0.2036
 8921TIP3    H248255   4.230   0.796   3.106 -1.5514 -1.5729  0.0405
 8922TIP3   OH248256   3.053   0.227   5.435  0.7317 -0.1007 -0.3925
 8922TIP3    H148257   3.036   0.318   5.415  0.1432 -0.5185 -1.8936
 8922TIP3    H248258   3.096   0.229   5.521 -3.9831  1.2559  2.2998
 8923TIP3   OH248259   1.531   2.608   0.492  0.0556  0.6388 -0.2668
 8923TIP3    H148260   1.484   2.684   0.458  1.0107  1.5070  0.2910
 8923TIP3    H248261   1.623   2.635   0.491  0.1699  0.6076  2.6674
 8924TIP3   OH248262   3.922   0.246   1.081 -0.2200  0.0950 -0.1185
 8924TIP3    H148263   4.002   0.296   1.068  0.8457 -0.6031  2.8480
 8924TIP3    H248264   3.950   0.155   1.081 -0.8103 -0.1388  1.6867
 8925TIP3   OH248265   5.032   4.890  16.759  0.0993 -0.0789  0.1043
 8925TIP3    H148266   5.055   4.851  16.675  0.7312  1.4171 -0.4650
 8925TIP3    H248267   5.002   4.979  16.736 -2.5351 -0.5773  1.1877
 8926TIP3   OH248268   3.653   2.618   0.484  0.3430  0.5319  0.2421
 8926TIP3    H148269   3.655   2.670   0.404 -3.0345 -0.7771 -0.8576
 8926TIP3    H248270   3.684   2.531   0.457  3.8883  1.2055  1.5912
 8927TIP3   OH248271   0.726   3.723  14.337 -0.1562  0.7551  0.5584
 8927TIP3    H148272   0.757   3.636  14.362 -1.9999 -0.3266 -0.6518
 8927TIP3    H248273   0.635   3.725  14.367 -0.7493  1.4867 -1.1844
 8928TIP3   OH248274   3.548   0.770   5.617  0.4125  0.3995 -0.4225
 8928TIP3    H148275   3.476   0.828   5.639  0.5921  0.5270 -0.1601
 8928TIP3    H248276   3.607   0.823   5.564  2.2352  1.5453  2.5306
 8929TIP3   OH248277   3.660   1.332   0.701 -0.2137  0.4328  0.4088
 8929TIP3    H148278   3.640   1.249   0.743 -2.5791 -0.9023 -2.8979
 8929TIP3    H248279   3.677   1.309   0.610  2.2928  3.3261 -0.0210
 8930TIP3   OH248280   5.032   6.809  16.640  0.2012 -0.7751  0.5176
 8930TIP3    H148281   4.961   6.847  16.691 -0.0694  0.6790 -0.8499
 8930TIP3    H248282   5.094   6.881  16.628  0.2889 -1.0890 -1.0969
 8931TIP3   OH248283   0.986   0.108   2.864 -0.6245  0.0025  0.4548
 8931TIP3    H148284   0.915   0.100   2.799  0.0196  2.7890 -0.7149
 8931TIP3    H248285   0.940   0.118   2.948 -1.4720 -4.2003  0.7277
 8932TIP3   OH248286   4.175   0.610   1.373 -0.2411  0.6618 -0.1231
 8932TIP3    H148287   4.124   0.612   1.292  0.5403 -2.2982 -0.8129
 8932TIP3    H248288   4.257   0.568   1.349  0.9449  1.7306  1.7938
 8933TIP3   OH248289   5.399   4.450  15.295 -0.3445  0.0560 -0.2845
 8933TIP3    H148290   5.348   4.446  15.376  0.4683 -2.7687  0.1826
 8933TIP3    H248291   5.488   4.426  15.321  0.9828  3.2544 -1.3611
 8934TIP3   OH248292   6.235   0.221  12.255 -0.0177  0.2493  0.2725
 8934TIP3    H148293   6.305   0.228  12.320  0.1172  0.4081  0.1113
 8934TIP3    H248294   6.157   0.250  12.301  0.1216  0.5961  0.2907
 8935TIP3   OH248295   3.382   3.050  11.484 -0.0826 -0.3539 -0.1187
 8935TIP3    H148296   3.451   3.012  11.538  0.5244 -1.0356 -1.3214
 8935TIP3    H248297   3.418   3.134  11.456 -0.2890 -0.1188  0.3157
 8936TIP3   OH248298   5.201   4.546  16.355  0.0979  0.3064  0.7968
 8936TIP3    H148299   5.262   4.545  16.282 -0.2845  1.0914  0.4484
 8936TIP3    H248300   5.206   4.458  16.393 -2.8406 -1.7085 -2.8272
 8937TIP3   OH248301   3.295   3.678  12.171  0.3075  0.1326  0.0610
 8937TIP3    H148302   3.255   3.757  12.208 -1.4063 -0.4102 -0.5614
 8937TIP3    H248303   3.361   3.712  12.110 -0.2734  1.0916 -0.0606
 8938TIP3   OH248304   2.327   1.895   1.241 -0.1672 -0.2383  0.7257
 8938TIP3    H148305   2.294   1.833   1.307 -1.2991 -0.6998 -0.2460
 8938TIP3    H248306   2.384   1.842   1.185 -2.7483 -0.9713 -1.3532
 8939TIP3   OH248307   6.797   5.321   3.581  0.3621  0.0728 -0.5770
 8939TIP3    H148308   6.731   5.254   3.567 -2.7965  2.0710  2.8796
 8939TIP3    H248309   6.849   5.288   3.654 -1.1491  1.1995  1.0784
 8940TIP3   OH248310   5.023   5.718   1.544 -0.2137 -0.2706  0.2571
 8940TIP3    H148311   5.083   5.683   1.477 -0.7811 -1.8860  0.5392
 8940TIP3    H248312   4.990   5.799   1.506  0.5918 -0.4057 -0.7872
 8941TIP3   OH248313   1.561   5.099  13.448 -0.0418 -0.6857  0.4993
 8941TIP3    H148314   1.562   5.155  13.526 -0.6118 -0.7564  0.5612
 8941TIP3    H248315   1.480   5.124  13.402 -0.7114 -1.9845  0.9280
 8942TIP3   OH248316   6.497   1.224   0.325  0.0752  0.0004  0.1461
 8942TIP3    H148317   6.412   1.200   0.289  0.3986 -1.5077  0.3427
 8942TIP3    H248318   6.497   1.320   0.324 -1.7545  0.0348  0.4720
 8943TIP3   OH248319   5.404   2.422   5.244 -0.1700 -0.0738  0.4735
 8943TIP3    H148320   5.477   2.396   5.300  0.3815 -0.7292 -0.5139
 8943TIP3    H248321   5.391   2.515   5.263  1.1989  0.1647  0.3771
 8944TIP3   OH248322   1.483   4.842   2.472  0.4856  0.2788  0.2088
 8944TIP3    H148323   1.540   4.766   2.462 -0.7452 -0.5838 -0.5270
 8944TIP3    H248324   1.542   4.917   2.463  1.5618 -0.5750 -0.1338
 8945TIP3   OH248325   1.170   3.426  11.462 -0.4398 -0.1781 -0.1580
 8945TIP3    H148326   1.190   3.490  11.393  2.0544 -1.4855 -0.7253
 8945TIP3    H248327   1.190   3.472  11.543  0.3507  0.1247 -0.5100
 8946TIP3   OH248328   2.413   4.323   5.277 -0.2188  0.5925 -0.0542
 8946TIP3    H148329   2.465   4.403   5.288  0.7138  0.0032 -0.0988
 8946TIP3    H248330   2.446   4.264   5.344 -1.6386  0.5968  0.6839
 8947TIP3   OH248331   6.355   3.987   1.509  0.1387 -0.4418 -0.0538
 8947TIP3    H148332   6.320   4.069   1.475 -1.3731 -0.2160  1.8366
 8947TIP3    H248333   6.364   3.930   1.433  1.0716  1.3972 -1.3821
 8948TIP3   OH248334   1.353   0.057   2.022 -0.5643 -0.6271  0.0401
 8948TIP3    H148335   1.384   0.141   1.988 -0.8921 -0.6231 -0.2601
 8948TIP3    H248336   1.342   0.002   1.944  0.0379 -1.0860  0.2662
 8949TIP3   OH248337   0.032   4.110   4.015  0.4013  0.0854 -0.2439
 8949TIP3    H148338  -0.044   4.167   4.003  1.1277  1.0065 -0.5329
 8949TIP3    H248339   0.071   4.138   4.097  0.7137 -0.0647 -0.3406
 8950TIP3   OH248340   3.270   5.272  13.814  0.0659  0.1128  0.1904
 8950TIP3    H148341   3.335   5.275  13.744  0.8061 -1.8077  0.7372
 8950TIP3    H248342   3.216   5.350  13.799  3.7101  3.1048  0.9293
 8951TIP3   OH248343   0.527   6.522  10.733  0.1252 -0.2589 -0.2472
 8951TIP3    H148344   0.461   6.570  10.683 -0.8301 -0.3654  0.8504
 8951TIP3    H248345   0.496   6.431  10.732  1.0797 -0.5905 -0.9887
 8952TIP3   OH248346   3.243   6.256   0.724  0.0340  0.2033  0.1400
 8952TIP3    H148347   3.262   6.336   0.773  3.0971 -1.3777  1.8308
 8952TIP3    H248348   3.154   6.232   0.749 -0.8089  2.7840 -0.1018
 8953TIP3   OH248349   1.461   3.128  13.889  0.1866 -0.2646  0.5760
 8953TIP3    H148350   1.368   3.108  13.875  0.1178 -0.1107  0.8202
 8953TIP3    H248351   1.477   3.204  13.833 -0.2652  0.7974  1.8406
 8954TIP3   OH248352   5.609   1.748   1.653  0.1540 -0.1989 -0.0358
 8954TIP3    H148353   5.645   1.711   1.572  1.2096  1.0795 -0.1716
 8954TIP3    H248354   5.685   1.774   1.704 -0.5337  1.1310  0.3623
 8955TIP3   OH248355   1.777   6.420   6.722  0.6057  0.3093 -0.1610
 8955TIP3    H148356   1.806   6.402   6.632  0.7603  0.4277 -0.1343
 8955TIP3    H248357   1.718   6.347   6.742 -0.1752  0.7722 -0.6982
 8956TIP3   OH248358   0.821   3.488  13.441  0.0633 -0.3374  0.4613
 8956TIP3    H148359   0.802   3.561  13.383  0.2905 -0.3095  0.4205
 8956TIP3    H248360   0.890   3.521  13.499  0.7524 -0.7829 -0.0828
 8957TIP3   OH248361   1.117   6.763   1.663 -0.2406 -0.0615  0.2922
 8957TIP3    H148362   1.092   6.721   1.745 -1.2277 -0.7570 -0.3335
 8957TIP3    H248363   1.142   6.852   1.687 -2.4629  0.4064  1.1383
 8958TIP3   OH248364   2.580   3.801   2.542  0.1028 -0.0973 -0.2567
 8958TIP3    H148365   2.497   3.832   2.508  1.2239  3.1739 -0.3651
 8958TIP3    H248366   2.630   3.775   2.464 -0.5746 -1.5274 -0.2357
 8959TIP3   OH248367   5.095   2.039  16.212  0.4802 -0.3896  0.3599
 8959TIP3    H148368   5.085   1.946  16.193  1.6971 -0.4786  0.0980
 8959TIP3    H248369   5.011   2.078  16.187  0.0368 -1.3848  0.2756
 8960TIP3   OH248370   0.436   0.079   3.803  0.0301  0.6699  0.5601
 8960TIP3    H148371   0.478   0.009   3.754 -1.1128  0.9561 -0.8863
 8960TIP3    H248372   0.505   0.112   3.861  0.9648 -0.7305  0.2993
 8961TIP3   OH248373   1.653   5.012  15.224 -0.2503  0.0006 -0.1323
 8961TIP3    H148374   1.694   4.962  15.154  2.4919  1.3445  0.3823
 8961TIP3    H248375   1.661   5.103  15.196 -1.5877  0.4156  0.7332
 8962TIP3   OH248376   2.174   3.602   6.575  0.6169 -0.0352 -0.2515
 8962TIP3    H148377   2.091   3.649   6.581  0.9197  0.5625 -0.6420
 8962TIP3    H248378   2.222   3.646   6.505  2.2687  1.2354  1.5595
 8963TIP3   OH248379   2.665   4.444  15.764  0.5674  0.0839  0.2307
 8963TIP3    H148380   2.638   4.377  15.701 -0.6039  2.4569 -1.9757
 8963TIP3    H248381   2.761   4.445  15.758  0.4879  0.3514 -1.6952
 8964TIP3   OH248382   2.846   5.975   3.508  0.2193  0.3696 -0.0180
 8964TIP3    H148383   2.815   6.064   3.491 -0.2868  0.1019 -0.5736
 8964TIP3    H248384   2.772   5.919   3.482  0.7534 -0.2365 -0.2702
 8965TIP3   OH248385   5.872   6.386  14.955  0.2783 -0.3181 -0.5037
 8965TIP3    H148386   5.962   6.372  14.986  0.4055  0.7042 -0.3810
 8965TIP3    H248387   5.882   6.437  14.875 -0.2307  1.1155  0.3063
 8966TIP3   OH248388   4.332   2.730  12.381 -0.0524 -0.3451 -0.7989
 8966TIP3    H148389   4.363   2.707  12.293  0.8888  0.9864 -0.8278
 8966TIP3    H248390   4.248   2.684  12.388  0.0016 -0.7352 -2.2717
 8967TIP3   OH248391   5.912   4.519  11.532  0.4117 -0.4825 -0.7464
 8967TIP3    H148392   6.001   4.555  11.533  1.0908 -1.9826  1.9904
 8967TIP3    H248393   5.862   4.579  11.588 -0.0577 -0.2720 -1.3766
 8968TIP3   OH248394   4.417   3.404  15.771 -0.4782 -0.0289  0.0632
 8968TIP3    H148395   4.334   3.449  15.756  0.4127  1.6857  0.1144
 8968TIP3    H248396   4.399   3.313  15.747 -1.7827  0.7065 -2.0677
 8969TIP3   OH248397   3.056   2.000   0.086  0.0665 -0.1454  0.4965
 8969TIP3    H148398   3.047   1.984  -0.008  0.2170  1.2520  0.2198
 8969TIP3    H248399   3.128   1.943   0.113  0.3871 -0.1683 -0.3496
 8970TIP3   OH248400   3.859   0.744   3.424 -0.4738 -0.3632  0.0244
 8970TIP3    H148401   3.823   0.680   3.362  0.9272  1.1328 -2.4998
 8970TIP3    H248402   3.930   0.697   3.468  1.2567 -0.3695 -2.5639
 8971TIP3   OH248403   6.645   5.550  12.868 -0.0021  0.4717  0.2616
 8971TIP3    H148404   6.559   5.592  12.869  0.5002  1.5441 -0.0306
 8971TIP3    H248405   6.689   5.583  12.946 -0.8652 -2.3733  2.1168
 8972TIP3   OH248406   6.321   5.734  16.218  0.3518 -0.1409 -0.3208
 8972TIP3    H148407   6.380   5.729  16.142  0.2191  1.2290 -0.5341
 8972TIP3    H248408   6.283   5.821  16.214 -1.3528 -0.8187  0.0970
 8973TIP3   OH248409   4.890   2.279   1.728 -0.2553  0.0452 -0.3546
 8973TIP3    H148410   4.944   2.269   1.650 -1.3399  0.3251 -1.1814
 8973TIP3    H248411   4.866   2.372   1.728 -0.9137 -0.1163 -0.1581
 8974TIP3   OH248412   1.280   0.065  14.438  0.2879 -0.2894 -0.0049
 8974TIP3    H148413   1.373   0.045  14.429  0.9025  2.4707 -0.8786
 8974TIP3    H248414   1.242   0.040  14.353  0.1017 -1.7913  0.4916
 8975TIP3   OH248415   5.524   1.735  14.747  0.2487  0.1884  0.1508
 8975TIP3    H148416   5.456   1.736  14.814  0.8973  1.2449  0.8163
 8975TIP3    H248417   5.478   1.707  14.667 -0.8086  0.1906  0.7364
 8976TIP3   OH248418   4.739   2.973   1.784 -0.0982 -0.1542  0.2988
 8976TIP3    H148419   4.768   2.959   1.694 -2.6508 -1.3761 -0.4176
 8976TIP3    H248420   4.817   2.954   1.837  0.6877 -2.3484 -1.4810
 8977TIP3   OH248421   6.802   2.137  15.972  0.0118 -0.4342  0.9690
 8977TIP3    H148422   6.842   2.116  16.056  1.2552 -0.0006  0.5098
 8977TIP3    H248423   6.727   2.192  15.994 -0.6764 -1.7021  1.8853
 8978TIP3   OH248424   6.536   4.421  14.566  0.4931 -0.2979  0.2186
 8978TIP3    H148425   6.605   4.472  14.609  0.7400 -0.1530 -0.3414
 8978TIP3    H248426   6.525   4.345  14.623  1.2078 -0.3913  0.2503
 8979TIP3   OH248427   4.483   2.082   0.720  0.2239 -0.2053  0.4616
 8979TIP3    H148428   4.498   2.011   0.782 -1.7797 -0.3174  0.8894
 8979TIP3    H248429   4.561   2.083   0.665  0.7659 -2.0197  1.1237
 8980TIP3   OH248430   0.859   6.536  13.034  0.6591  0.2691 -0.0979
 8980TIP3    H148431   0.788   6.562  12.975  0.3481  0.1816  0.2387
 8980TIP3    H248432   0.864   6.441  13.024 -0.0483  0.1307  0.7430
 8981TIP3   OH248433   5.689   1.164   1.811  0.3566 -0.3229 -0.1512
 8981TIP3    H148434   5.759   1.140   1.750  1.7190  1.0083  0.8038
 8981TIP3    H248435   5.663   1.252   1.783 -1.7048 -1.1808 -1.1207
 8982TIP3   OH248436   1.415   0.352   2.671  0.0420  0.0073  0.1907
 8982TIP3    H148437   1.473   0.297   2.724 -0.0061 -0.6074 -0.3650
 8982TIP3    H248438   1.467   0.370   2.592 -0.3274 -0.1046 -0.0776
 8983TIP3   OH248439   3.024   1.002   2.694 -0.3702  0.2304  0.4700
 8983TIP3    H148440   3.047   0.961   2.611  0.5086  2.4609 -0.4795
 8983TIP3    H248441   2.935   1.036   2.681 -0.7800 -0.6379  0.9574
 8984TIP3   OH248442   0.966   1.947  13.782  0.4816 -0.3343  0.5006
 8984TIP3    H148443   0.994   1.958  13.873 -0.6567 -2.0272  1.1217
 8984TIP3    H248444   0.914   1.866  13.783 -1.0021  0.5192 -1.3201
 8985TIP3   OH248445   3.401   0.868  13.128 -0.1757  1.1824  0.4859
 8985TIP3    H148446   3.315   0.834  13.104  0.4264  0.4177 -0.6633
 8985TIP3    H248447   3.417   0.836  13.217 -0.6151  0.4093  0.2878
 8986TIP3   OH248448   5.946   2.680  14.114  0.6916  0.2231  0.1857
 8986TIP3    H148449   6.029   2.693  14.069  1.2337 -1.1437  0.7364
 8986TIP3    H248450   5.938   2.755  14.173  1.7376  0.1786  0.4000
 8987TIP3   OH248451   0.547   4.734   4.962 -0.5926  0.4663 -0.0180
 8987TIP3    H148452   0.508   4.649   4.983  1.4236 -0.3831  0.5722
 8987TIP3    H248453   0.556   4.778   5.046  1.3387 -0.1443  0.1510
 8988TIP3   OH248454   0.821   1.423   4.076  0.7229  0.0542 -0.7634
 8988TIP3    H148455   0.894   1.368   4.049  0.7096 -0.3105 -0.0750
 8988TIP3    H248456   0.761   1.362   4.120  0.8513  0.6684  0.2886
 8989TIP3   OH248457   2.327   2.557   5.019 -0.2523 -1.0931 -0.6556
 8989TIP3    H148458   2.400   2.591   4.968 -0.7295  0.2602 -0.4631
 8989TIP3    H248459   2.312   2.469   4.983 -0.4784 -0.2563 -2.7553
 8990TIP3   OH248460   6.380   6.176   3.663 -0.4981 -0.5915  0.1183
 8990TIP3    H148461   6.440   6.235   3.709 -0.0195 -1.5420  0.7539
 8990TIP3    H248462   6.311   6.157   3.727 -0.6896 -0.6488 -0.1057
 8991TIP3   OH248463   3.234   0.588   5.107 -0.2542 -0.0040 -0.4834
 8991TIP3    H148464   3.148   0.628   5.095  0.4958  1.4665 -1.2598
 8991TIP3    H248465   3.217   0.494   5.113 -1.7530  0.0546 -2.7096
 8992TIP3   OH248466   3.553   3.654  17.103 -0.6784  0.0598 -0.2400
 8992TIP3    H148467   3.508   3.570  17.103  1.5484 -1.2053 -0.0810
 8992TIP3    H248468   3.601   3.657  17.186 -1.5678  2.0020  0.2619
 8993TIP3   OH248469   5.688   1.812  10.720 -0.0153  0.5502 -0.5237
 8993TIP3    H148470   5.681   1.732  10.669 -0.8216 -0.6654  1.3979
 8993TIP3    H248471   5.602   1.854  10.709 -1.1763 -1.0213  1.7969
 8994TIP3   OH248472   2.966   2.323  15.518  0.3875  0.2922  0.2410
 8994TIP3    H148473   3.006   2.236  15.520  0.4691  0.3326  0.3671
 8994TIP3    H248474   2.950   2.340  15.425 -3.4076 -1.6132  0.3121
 8995TIP3   OH248475   2.005   1.561  12.275 -0.2351  0.5553  0.5922
 8995TIP3    H148476   2.047   1.647  12.283  1.4118 -0.1638  0.1682
 8995TIP3    H248477   1.990   1.550  12.181 -0.3680  0.3452  0.6365
 8996TIP3   OH248478   1.424   6.336   3.026 -0.3077  0.7265  0.1636
 8996TIP3    H148479   1.486   6.262   3.018  0.2082  1.1395  0.2712
 8996TIP3    H248480   1.344   6.305   2.984  0.0735  0.2923 -0.2591
 8997TIP3   OH248481   3.651   4.416   4.211 -0.4670 -0.2487  0.1592
 8997TIP3    H148482   3.584   4.355   4.240  0.9223 -0.9403  2.1498
 8997TIP3    H248483   3.616   4.454   4.131 -1.9282 -2.7123 -0.4745
 8998TIP3   OH248484   5.462   1.880   3.846 -0.1636  0.9101 -0.0360
 8998TIP3    H148485   5.507   1.839   3.772  0.7635  4.0284 -1.3502
 8998TIP3    H248486   5.479   1.822   3.920  1.4132 -0.7821 -1.6399
 8999TIP3   OH248487   1.996   5.048   2.214 -0.1809  0.3070  0.2415
 8999TIP3    H148488   1.981   4.981   2.280 -0.9069  0.2210 -0.0018
 8999TIP3    H248489   2.034   5.122   2.262  1.4868 -0.5979  0.3568
 9000TIP3   OH248490   4.085   4.687  14.263  0.9392 -0.6948 -0.4146
 9000TIP3    H148491   4.022   4.715  14.330  1.6914  1.4796 -0.5577
 9000TIP3    H248492   4.033   4.677  14.183  0.0536 -3.1963  0.3803
 9001TIP3   OH248493   1.841   4.879  15.873  0.4138 -0.6604 -0.1417
 9001TIP3    H148494   1.871   4.793  15.843  1.6078  0.0339 -0.9959
 9001TIP3    H248495   1.916   4.915  15.920  0.3017  0.3491 -0.7142
 9002TIP3   OH248496   4.141   2.556   2.432  0.2995 -0.1657  0.2784
 9002TIP3    H148497   4.052   2.582   2.457 -0.4710 -1.5492 -0.8628
 9002TIP3    H248498   4.169   2.497   2.502  0.2144  0.0735  0.5151
 9003TIP3   OH248499   2.691   4.322   5.779 -0.3786  0.3886 -0.4698
 9003TIP3    H148500   2.686   4.230   5.803 -0.0259  0.3197 -0.6593
 9003TIP3    H248501   2.622   4.364   5.830  0.8624  0.3811  1.3117
 9004TIP3   OH248502   5.717   5.124  13.562 -0.0934 -0.4415 -0.5382
 9004TIP3    H148503   5.668   5.044  13.541  1.4454 -2.4376  2.6266
 9004TIP3    H248504   5.799   5.092  13.600  0.6846  2.6677  0.6745
 9005TIP3   OH248505   2.957   4.583   4.785  0.3102 -0.1677  0.2438
 9005TIP3    H148506   2.876   4.635   4.788  0.8669  0.7191  0.3146
 9005TIP3    H248507   2.962   4.542   4.871  1.1192  1.6539  1.1135
 9006TIP3   OH248508   1.810   6.564  15.399  0.5847  0.1731  0.3988
 9006TIP3    H148509   1.869   6.615  15.342 -2.3171  1.0441 -2.0712
 9006TIP3    H248510   1.835   6.473  15.385  0.5151  0.4361 -1.6698
 9007TIP3   OH248511   4.302   3.354  10.498 -0.3032  0.3997  0.8833
 9007TIP3    H148512   4.314   3.269  10.455  1.6647  1.1780 -0.2047
 9007TIP3    H248513   4.207   3.363  10.504 -0.5855 -2.1083  1.5617
 9008TIP3   OH248514   6.258   0.808   2.769  0.8133  0.1418 -0.3201
 9008TIP3    H148515   6.229   0.771   2.852  0.0689 -1.5536 -1.2607
 9008TIP3    H248516   6.352   0.819   2.779  0.9159 -1.1621  0.3757
 9009TIP3   OH248517   1.724   1.518   6.079 -0.2109  0.0895 -0.2502
 9009TIP3    H148518   1.700   1.447   6.019 -1.8424 -1.1464  1.7324
 9009TIP3    H248519   1.641   1.563   6.097  0.3953  0.9640  0.4229
 9010TIP3   OH248520   3.729   4.121   4.743  0.1385 -0.1182  0.2423
 9010TIP3    H148521   3.764   4.051   4.687  1.2135  1.3505 -1.0057
 9010TIP3    H248522   3.770   4.201   4.709 -0.9380  1.1036  1.7235
 9011TIP3   OH248523   1.216   0.510   1.673 -0.1492  0.3504 -0.0204
 9011TIP3    H148524   1.131   0.466   1.661  0.2964 -0.8750  1.0744
 9011TIP3    H248525   1.229   0.510   1.768 -0.9532  4.5500  0.2646
 9012TIP3   OH248526   1.900   1.599  16.477  0.2086  0.2059  0.7478
 9012TIP3    H148527   1.850   1.628  16.401  0.9152  1.2953  0.6715
 9012TIP3    H248528   1.920   1.507  16.459 -1.0441 -0.0194  0.4055
 9013TIP3   OH248529   1.864   2.265  13.007 -0.3611  0.0050  0.3009
 9013TIP3    H148530   1.957   2.276  13.027 -0.3778 -1.0346  1.0147
 9013TIP3    H248531   1.824   2.240  13.091 -0.9970 -1.1604 -0.3232
 9014TIP3   OH248532   2.674   0.990   1.875  0.0797  0.7120 -0.5291
 9014TIP3    H148533   2.709   1.060   1.931 -1.4629  1.1408 -0.0421
 9014TIP3    H248534   2.673   0.913   1.932  0.4504  0.6365 -0.6222
 9015TIP3   OH248535   1.668   5.265  14.392  0.3815  0.1704 -0.2566
 9015TIP3    H148536   1.620   5.248  14.472  0.4114  0.1502 -0.2430
 9015TIP3    H248537   1.647   5.356  14.370 -0.9732 -0.3248 -1.1473
 9016TIP3   OH248538   3.553   3.371  13.544 -0.0425  0.0637 -0.5280
 9016TIP3    H148539   3.462   3.341  13.546  0.4219 -1.3873 -0.0121
 9016TIP3    H248540   3.565   3.407  13.456 -1.5450  1.7660 -0.0974
 9017TIP3   OH248541   5.656   5.002  15.565  0.0827 -0.2387 -0.1906
 9017TIP3    H148542   5.611   5.048  15.494  0.8097 -1.4047 -1.4587
 9017TIP3    H248543   5.627   5.046  15.645 -0.7975  1.0812 -1.2026
 9018TIP3   OH248544   6.175   3.992  13.240  0.1578 -0.3417  0.1043
 9018TIP3    H148545   6.252   3.958  13.284 -0.6743 -1.6363  0.6121
 9018TIP3    H248546   6.188   3.971  13.147  1.8355  2.2463 -0.3526
 9019TIP3   OH248547   1.834   4.860   4.947 -0.2128 -0.3422  0.5056
 9019TIP3    H148548   1.773   4.884   4.877  2.7384  2.3718 -1.4346
 9019TIP3    H248549   1.888   4.791   4.908 -0.1189 -0.5692  1.0385
 9020TIP3   OH248550   2.650   0.867   1.551  0.5720 -0.0821 -0.0839
 9020TIP3    H148551   2.666   0.782   1.593  2.0236  0.0512 -0.3108
 9020TIP3    H248552   2.687   0.931   1.612  1.4303  0.2180 -0.9056
 9021TIP3   OH248553   0.751   1.730   0.253 -0.5438 -0.3093 -0.1547
 9021TIP3    H148554   0.675   1.724   0.194 -1.7918  0.2473  1.3137
 9021TIP3    H248555   0.738   1.657   0.314  0.7915 -0.9529 -0.6054
 9022TIP3   OH248556   2.002   1.116   1.796  0.2508 -0.2977 -0.1302
 9022TIP3    H148557   2.068   1.178   1.826 -0.9436 -0.8225  4.2685
 9022TIP3    H248558   2.024   1.099   1.704  4.7415  1.2906  0.4434
 9023TIP3   OH248559   6.104   5.794  12.026 -0.8993 -0.4098 -0.2363
 9023TIP3    H148560   6.113   5.710  12.070  0.7608  0.4306  1.1624
 9023TIP3    H248561   6.023   5.787  11.976 -0.8365 -2.7806 -0.0909
 9024TIP3   OH248562   2.437   5.338   4.674 -0.2730  0.1681 -0.3321
 9024TIP3    H148563   2.368   5.305   4.731 -0.6420  0.8878 -0.3463
 9024TIP3    H248564   2.456   5.266   4.614 -2.2705  0.5133 -1.4750
 9025TIP3   OH248565   5.625   0.420   0.255 -0.5729  0.7513  0.0291
 9025TIP3    H148566   5.709   0.384   0.227 -0.4062  1.9403 -1.0914
 9025TIP3    H248567   5.572   0.343   0.278  0.2246 -0.1145 -0.9377
 9026TIP3   OH248568   2.221   3.447   0.330  0.2499 -0.2252  0.3826
 9026TIP3    H148569   2.266   3.529   0.311  0.4611 -0.8242 -1.9028
 9026TIP3    H248570   2.144   3.448   0.274  2.1001 -3.0971 -2.5413
 9027TIP3   OH248571   6.831   0.721   2.902 -0.9114  0.1895  0.0208
 9027TIP3    H148572   6.800   0.811   2.890 -2.3032 -0.0844  1.1706
 9027TIP3    H248573   6.797   0.674   2.827  1.2233  0.9022 -1.4669
 9028TIP3   OH248574   2.746   6.657  17.168  0.1817  0.0735  0.1408
 9028TIP3    H148575   2.747   6.713  17.245  0.6817 -1.2076  1.0913
 9028TIP3    H248576   2.829   6.610  17.171  0.6913  0.7596 -1.7767
 9029TIP3   OH248577   5.660   5.631  11.513 -0.7222  0.1536 -0.4568
 9029TIP3    H148578   5.578   5.663  11.476  0.5259  3.0630 -0.9759
 9029TIP3    H248579   5.714   5.609  11.437  0.0261  1.2043 -0.2497
 9030TIP3   OH248580   5.846   3.596   3.157 -0.2847 -0.2767 -0.0452
 9030TIP3    H148581   5.807   3.608   3.070 -0.0150 -1.2385 -0.3113
 9030TIP3    H248582   5.916   3.532   3.143 -0.9919 -1.3451  1.0893
 9031TIP3   OH248583   2.123   3.782   5.284  0.1049  0.3699 -0.3058
 9031TIP3    H148584   2.075   3.848   5.333 -0.9439  0.0781 -0.9266
 9031TIP3    H248585   2.210   3.781   5.325 -0.8029 -0.0780  1.7635
 9032TIP3   OH248586   2.359   3.668  15.117 -0.3350  0.1026 -0.0095
 9032TIP3    H148587   2.413   3.737  15.078  1.2885 -1.3538 -0.4348
 9032TIP3    H248588   2.413   3.633  15.188 -1.1930 -0.6474  0.2863
 9033TIP3   OH248589   4.284   3.325  15.246  0.2130 -0.2525  0.9534
 9033TIP3    H148590   4.210   3.372  15.208  0.8398 -0.0910 -0.0984
 9033TIP3    H248591   4.249   3.287  15.327 -1.1110 -0.4503  0.3194
 9034TIP3   OH248592   4.333   4.984  16.077 -0.5593  0.2443 -0.5719
 9034TIP3    H148593   4.354   4.961  15.987 -0.3989 -0.2472 -0.4093
 9034TIP3    H248594   4.258   4.928  16.099 -1.0792  0.8914 -0.6407
 9035TIP3   OH248595   2.341   0.285  12.944 -0.3839  0.3367  0.3269
 9035TIP3    H148596   2.261   0.275  12.891 -0.3469  1.8817 -0.0632
 9035TIP3    H248597   2.312   0.331  13.023  0.3863  2.7247 -0.6906
 9036TIP3   OH248598   6.274   5.687   1.046 -0.4790 -0.4169  0.4611
 9036TIP3    H148599   6.339   5.631   1.088 -1.5456 -0.4121  2.2558
 9036TIP3    H248600   6.322   5.735   0.980  1.1517 -1.0400  1.1501
 9037TIP3   OH248601   2.394   6.284   0.327  0.0111 -0.0826 -0.1629
 9037TIP3    H148602   2.440   6.206   0.360  1.9301  1.3548  0.7665
 9037TIP3    H248603   2.354   6.323   0.404 -2.9544 -1.3071 -0.9610
 9038TIP3   OH248604   1.277   2.282   1.020  0.0879 -0.3458  0.6007
 9038TIP3    H148605   1.228   2.207   0.987 -1.6548  1.2207 -0.5450
 9038TIP3    H248606   1.272   2.274   1.115 -0.9657 -1.1296  0.4928
 9039TIP3   OH248607   1.662   2.360  14.095  1.0590 -0.7874 -0.4286
 9039TIP3    H148608   1.612   2.309  14.159 -0.9883  2.0119  0.3785
 9039TIP3    H248609   1.643   2.318  14.011 -1.6480 -0.6597  0.0189
 9040TIP3   OH248610   5.176   5.770  11.307  0.3288  0.2914 -0.0546
 9040TIP3    H148611   5.098   5.747  11.257  0.2349  2.4591 -1.0192
 9040TIP3    H248612   5.144   5.822  11.380  0.6665 -1.1945  1.2201
 9041TIP3   OH248613   0.117   6.455   0.733  0.3626 -0.1677 -0.5430
 9041TIP3    H148614   0.105   6.446   0.827 -0.4025  2.8381 -0.2454
 9041TIP3    H248615   0.210   6.440   0.719  0.6520  0.1896  0.8481
 9042TIP3   OH248616   4.135   6.314   1.944  0.1381  0.6383 -0.6171
 9042TIP3    H148617   4.124   6.381   1.876 -1.0629 -0.6553 -1.7524
 9042TIP3    H248618   4.048   6.278   1.956  0.7098 -0.5266  0.1915
 9043TIP3   OH248619   4.402   6.595   5.584  0.2238 -1.0630 -0.1207
 9043TIP3    H148620   4.411   6.504   5.556 -3.2282 -1.2887 -0.9797
 9043TIP3    H248621   4.324   6.626   5.538  0.7025  2.0354  0.9531
 9044TIP3   OH248622   5.975   3.817  13.917  0.0178 -0.7528  0.4936
 9044TIP3    H148623   5.920   3.806  13.995 -1.3092  0.6468 -0.1977
 9044TIP3    H248624   6.037   3.886  13.942 -1.5011  0.9373 -0.1855
 9045TIP3   OH248625   6.329   6.529  15.586 -0.0884 -0.5502  0.2233
 9045TIP3    H148626   6.255   6.581  15.620 -1.2345  0.0553 -2.8804
 9045TIP3    H248627   6.380   6.591  15.535  1.8391 -1.2970  1.1539
 9046TIP3   OH248628   1.531   3.031  11.551  0.2633 -0.1538 -0.5019
 9046TIP3    H148629   1.448   3.023  11.505  0.2676  1.2250 -0.7838
 9046TIP3    H248630   1.578   2.950  11.531 -0.3839 -0.2673 -1.5958
 9047TIP3   OH248631   1.048   5.633  15.657 -0.0350 -0.3738  0.3056
 9047TIP3    H148632   0.960   5.631  15.621  0.0554 -1.1946  0.1049
 9047TIP3    H248633   1.062   5.724  15.683 -0.4702  0.0300 -0.8226
 9048TIP3   OH248634   2.157   1.045  11.034 -0.4997 -0.1485 -0.1812
 9048TIP3    H148635   2.216   1.102  10.985 -0.3730 -0.1685 -0.0514
 9048TIP3    H248636   2.077   1.096  11.044 -0.3107  0.0903  0.1243
 9049TIP3   OH248637   3.164   4.641   2.901  0.9002  0.2599 -0.0418
 9049TIP3    H148638   3.208   4.642   2.985 -1.7509 -1.5169  1.5404
 9049TIP3    H248639   3.076   4.675   2.919 -0.2061 -1.4847 -1.7028
 9050TIP3   OH248640   4.111   1.416  13.056 -0.4769  0.1641 -0.2068
 9050TIP3    H148641   4.098   1.480  12.986  0.6856  0.3389 -0.2892
 9050TIP3    H248642   4.203   1.427  13.081 -1.2169  1.0635  2.3330
 9051TIP3   OH248643   5.712   5.835  14.750  0.1689 -0.1552 -0.5091
 9051TIP3    H148644   5.701   5.867  14.660  1.1154  0.9509 -0.2636
 9051TIP3    H248645   5.627   5.799  14.774 -0.5120  0.8516 -1.3597
 9052TIP3   OH248646   0.158   5.569  15.987  0.0483  0.7888  0.0443
 9052TIP3    H148647   0.211   5.578  16.067  1.0934  0.2726 -0.5631
 9052TIP3    H248648   0.170   5.653  15.942  1.9932  0.0147 -1.0209
 9053TIP3   OH248649   3.200   4.676  12.278 -0.4361  0.5073  0.7041
 9053TIP3    H148650   3.128   4.720  12.323  0.1668 -0.3617  2.6318
 9053TIP3    H248651   3.233   4.741  12.215 -2.5713  1.0726  0.0856
 9054TIP3   OH248652   1.566   3.955   5.813  0.1032 -0.0369 -0.0571
 9054TIP3    H148653   1.575   3.866   5.846  0.1548 -0.4884 -1.2461
 9054TIP3    H248654   1.472   3.965   5.797  0.3168 -0.6134 -1.8417
 9055TIP3   OH248655   4.567   5.977   4.822  0.6644 -0.2040 -0.1750
 9055TIP3    H148656   4.557   5.949   4.913 -1.8023  1.2352  0.1036
 9055TIP3    H248657   4.620   5.908   4.782  1.5371 -1.0612  2.2423
 9056TIP3   OH248658   5.963   5.157  13.366  0.2782 -0.5054  0.1276
 9056TIP3    H148659   5.914   5.227  13.407 -0.5598 -1.4524  0.7899
 9056TIP3    H248660   5.897   5.101  13.324  0.9595 -0.6587 -0.7910
 9057TIP3   OH248661   2.943   0.667  13.599  0.3119  0.5113 -0.4060
 9057TIP3    H148662   3.011   0.625  13.546  0.8658 -0.9729  1.3580
 9057TIP3    H248663   2.879   0.699  13.536  0.9692 -1.1003 -1.9722
 9058TIP3   OH248664   6.148   0.640  12.608 -0.3820  0.4294 -0.2777
 9058TIP3    H148665   6.244   0.641  12.607 -0.3197  3.1572 -1.9857
 9058TIP3    H248666   6.126   0.580  12.679  2.6213  1.3817  1.6933
 9059TIP3   OH248667   2.867   5.498   1.183 -0.0219  0.1852 -0.0517
 9059TIP3    H148668   2.909   5.577   1.218  0.9382 -0.5820  0.5731
 9059TIP3    H248669   2.784   5.493   1.231  0.8106 -0.2743  1.4170
 9060TIP3   OH248670   5.192   3.515   2.792  0.4292 -0.0235 -0.0184
 9060TIP3    H148671   5.113   3.461   2.793 -0.2314  0.9190 -0.2194
 9060TIP3    H248672   5.161   3.604   2.777  1.5048  0.4152  0.2092
 9061TIP3   OH248673   5.532   3.471   6.020 -0.0410 -0.7604  0.6198
 9061TIP3    H148674   5.605   3.532   6.006  0.9604 -2.0489 -0.0663
 9061TIP3    H248675   5.454   3.526   6.016  0.7254  0.3075 -1.3436
 9062TIP3   OH248676   1.700   0.620   0.358 -0.0142  0.4071 -0.0431
 9062TIP3    H148677   1.697   0.671   0.276 -2.1090  1.3477  0.5499
 9062TIP3    H248678   1.754   0.673   0.417  1.2039 -0.0981 -0.6671
 9063TIP3   OH248679   4.864   1.067  15.105 -0.5390 -0.2418  0.6407
 9063TIP3    H148680   4.825   1.034  15.024 -1.4016 -1.1566  1.3927
 9063TIP3    H248681   4.902   0.990  15.146 -0.9916  0.0116  1.5662
 9064TIP3   OH248682   1.023   4.874   5.768  0.0672  0.0817 -0.2833
 9064TIP3    H148683   0.996   4.950   5.716  1.2169  0.9643  0.3481
 9064TIP3    H248684   0.995   4.798   5.716  1.1925  0.9145 -2.2285
 9065TIP3   OH248685   1.490   1.027  14.812  0.3536 -0.0111  0.1203
 9065TIP3    H148686   1.582   1.036  14.837  0.2983 -1.0724  0.8099
 9065TIP3    H248687   1.467   1.111  14.773  2.5584 -0.7968 -3.3419
 9066TIP3   OH248688   2.730   1.118  11.283  0.3386 -0.0957 -0.1506
 9066TIP3    H148689   2.782   1.103  11.204 -0.0944  0.4293 -0.5359
 9066TIP3    H248690   2.741   1.211  11.303 -1.7278  0.4286 -1.1747
 9067TIP3   OH248691   5.693   5.984  11.521 -0.5176  0.2616  0.1357
 9067TIP3    H148692   5.740   5.935  11.453 -2.1642 -0.5678 -0.4444
 9067TIP3    H248693   5.617   5.930  11.542 -0.5329  0.9290  2.0234
 9068TIP3   OH248694   0.331   0.363  14.208  0.1614 -0.5902  0.0078
 9068TIP3    H148695   0.235   0.361  14.208  0.1641 -0.9024  0.5025
 9068TIP3    H248696   0.357   0.294  14.269  0.6960 -0.2898  0.1324
 9069TIP3   OH248697   3.967   1.175  12.997 -0.7371 -0.0659 -0.0222
 9069TIP3    H148698   3.947   1.213  12.912 -0.1996 -1.0952 -0.6366
 9069TIP3    H248699   4.023   1.239  13.040  0.4921 -0.3016 -1.1945
 9070TIP3   OH248700   3.320   2.812   5.986 -0.2503 -0.2420 -0.0226
 9070TIP3    H148701   3.276   2.878   5.934  0.5291 -1.3464 -2.2117
 9070TIP3    H248702   3.279   2.729   5.960  1.7409 -1.0828 -0.7235
 9071TIP3   OH248703   1.275   1.663   1.546 -0.1832  0.2162  0.0106
 9071TIP3    H148704   1.344   1.687   1.485  2.0435 -1.8804  1.5116
 9071TIP3    H248705   1.246   1.747   1.583  1.2127  1.2070 -1.0344
 9072TIP3   OH248706   4.191   5.845  11.880 -0.1193 -0.5075 -0.1732
 9072TIP3    H148707   4.201   5.821  11.973  1.0890 -0.1081 -0.1889
 9072TIP3    H248708   4.199   5.762  11.834 -0.1682 -0.6357  0.0438
 9073TIP3   OH248709   3.337   0.461  16.907  0.2799  0.0970  0.0103
 9073TIP3    H148710   3.254   0.415  16.900 -0.2827  0.9733  0.7312
 9073TIP3    H248711   3.340   0.519  16.831 -0.4932  1.1760  0.7722
 9074TIP3   OH248712   6.054   5.363  15.158 -0.2143 -0.2522  0.3684
 9074TIP3    H148713   6.125   5.302  15.138 -0.9643 -1.1770  0.4244
 9074TIP3    H248714   6.087   5.448  15.131  0.1215 -0.9584 -1.6128
 9075TIP3   OH248715   4.266   5.562  14.485  0.6562 -0.4680  0.5577
 9075TIP3    H148716   4.254   5.517  14.401 -2.1414 -1.3730  1.3452
 9075TIP3    H248717   4.237   5.651  14.469  0.9631 -0.3987  0.3683
 9076TIP3   OH248718   2.860   0.667  14.553 -0.2381  0.5315 -0.2891
 9076TIP3    H148719   2.912   0.746  14.567 -1.3864  1.4727 -1.1019
 9076TIP3    H248720   2.912   0.614  14.492  2.0494 -0.9161  2.6620
 9077TIP3   OH248721   4.573   5.374  13.441  0.4553  0.1099 -0.2563
 9077TIP3    H148722   4.626   5.320  13.383  2.3164  1.3542  0.1593
 9077TIP3    H248723   4.616   5.366  13.526  2.1260  3.6901 -0.5619
 9078TIP3   OH248724   1.997   6.052  16.700 -0.2964  0.6016  0.5067
 9078TIP3    H148725   2.018   6.132  16.652  1.2747  0.0452  0.2074
 9078TIP3    H248726   1.914   6.023  16.662 -1.0976  2.2841  0.9086
 9079TIP3   OH248727   3.366   4.638   3.108  0.3094  0.1654 -0.1289
 9079TIP3    H148728   3.347   4.638   3.202  0.4400  2.1917 -0.0464
 9079TIP3    H248729   3.456   4.671   3.102  0.4775 -0.4140 -0.9555
 9080TIP3   OH248730   0.969   2.968  14.906  0.0623 -0.0945 -1.2077
 9080TIP3    H148731   0.899   2.989  14.968 -0.7648 -0.0695 -2.1221
 9080TIP3    H248732   1.021   3.048  14.900  0.9204 -0.4837  0.3844
 9081TIP3   OH248733   5.554   1.361  16.615 -0.1365 -0.1969  0.0008
 9081TIP3    H148734   5.475   1.385  16.664  0.6109 -0.7974  1.5617
 9081TIP3    H248735   5.607   1.312  16.677  0.6524 -1.4314 -1.5781
 9082TIP3   OH248736   6.423   3.666   0.480  0.4917  0.2894 -0.4117
 9082TIP3    H148737   6.402   3.583   0.522  0.9751 -0.0947 -0.9026
 9082TIP3    H248738   6.425   3.645   0.386  0.9222  0.7792 -0.5153
 9083TIP3   OH248739   1.180   1.067  14.881 -0.3030  0.1392 -0.0879
 9083TIP3    H148740   1.187   1.158  14.852 -0.6014 -0.0575 -0.7911
 9083TIP3    H248741   1.162   1.018  14.801 -1.3898 -0.3872  0.4680
 9084TIP3   OH248742   3.151   4.655  15.050  0.1161 -0.1261 -0.1460
 9084TIP3    H148743   3.141   4.582  14.989 -0.7332 -2.7877  2.8915
 9084TIP3    H248744   3.062   4.674  15.080  0.5971  0.2640  1.1174
 9085TIP3   OH248745   4.992   5.104  16.458  0.0434  0.6764  0.3008
 9085TIP3    H148746   4.915   5.082  16.510  0.3854 -0.1675  0.4681
 9085TIP3    H248747   5.027   5.020  16.429 -0.9942  1.1331 -2.6055
 9086TIP3   OH248748   1.329   5.743  10.308 -0.4591  0.7966  0.1937
 9086TIP3    H148749   1.314   5.664  10.360  1.5705  0.9456  1.1388
 9086TIP3    H248750   1.242   5.773  10.283 -1.3411 -0.9768  0.9725
 9087TIP3   OH248751   3.064   1.389   4.353 -0.0329  0.4491 -0.4683
 9087TIP3    H148752   3.130   1.337   4.399 -0.4377  0.2837 -0.0728
 9087TIP3    H248753   3.098   1.478   4.354  0.1425  0.3783 -0.1903
 9088TIP3   OH248754   0.202   6.314  13.419  0.8870  0.3854  0.5329
 9088TIP3    H148755   0.159   6.231  13.441 -0.3243  1.0337  0.6907
 9088TIP3    H248756   0.227   6.351  13.503  2.7425 -0.4569  0.4040
 9089TIP3   OH248757   3.184   0.048  15.404  0.1174 -0.3315  0.6128
 9089TIP3    H148758   3.107   0.047  15.461 -1.2046 -1.1617 -1.1141
 9089TIP3    H248759   3.190  -0.041  15.369  2.8345 -0.7667  1.8906
 9090TIP3   OH248760   6.115   4.477  12.886 -0.4796  0.2906 -0.2387
 9090TIP3    H148761   6.182   4.416  12.917 -0.8271  0.4118  0.7818
 9090TIP3    H248762   6.162   4.560  12.875 -0.4508  0.3735  0.4669
 9091TIP3   OH248763   3.938   5.500  11.358 -0.0367  0.0447 -0.1440
 9091TIP3    H148764   3.966   5.482  11.448  0.3972 -0.1561 -0.3199
 9091TIP3    H248765   3.987   5.578  11.333  3.0450 -2.1392 -1.6306
 9092TIP3   OH248766   0.609   3.321  15.238 -0.2628  0.2393  0.4937
 9092TIP3    H148767   0.528   3.369  15.225 -0.1853  0.6517  1.4672
 9092TIP3    H248768   0.594   3.236  15.196 -1.7239 -0.2383  1.8759
 9093TIP3   OH248769   5.314   4.883   1.350  0.4717  0.4574  0.2727
 9093TIP3    H148770   5.316   4.898   1.445  2.2570  0.3249  0.2907
 9093TIP3    H248771   5.405   4.869   1.326  0.0116  0.1336 -1.4296
 9094TIP3   OH248772   1.921   1.745   2.028  0.2972 -0.4478 -0.0057
 9094TIP3    H148773   2.002   1.789   2.004 -0.3880  0.4417 -0.7608
 9094TIP3    H248774   1.851   1.800   1.991 -0.7226 -0.3273  1.9561
 9095TIP3   OH248775   4.815   4.957   1.726  0.1992 -0.3042 -0.1490
 9095TIP3    H148776   4.893   4.992   1.682 -0.1412  0.0519 -0.4786
 9095TIP3    H248777   4.800   4.872   1.685  0.6602 -0.5686  0.2143
 9096TIP3   OH248778   6.578   1.564   5.739  0.1648 -1.0459 -0.5218
 9096TIP3    H148779   6.621   1.644   5.709 -0.2076 -0.2066  1.0915
 9096TIP3    H248780   6.556   1.517   5.658  0.8675  0.2112 -1.4833
 9097TIP3   OH248781   4.991   4.248  11.357  0.3695  0.2601  0.0677
 9097TIP3    H148782   4.964   4.174  11.304 -2.3476  2.2645 -1.5891
 9097TIP3    H248783   5.075   4.276  11.319  0.2985 -0.5779 -0.7217
 9098TIP3   OH248784   6.765   3.797  10.613 -0.2849 -0.5060  0.6981
 9098TIP3    H148785   6.702   3.852  10.567  0.4963 -0.4118 -0.2969
 9098TIP3    H248786   6.728   3.709  10.608  0.5852 -0.8182 -1.7063
 9099TIP3   OH248787   4.488   1.283   0.269  0.0789  0.6876 -0.4666
 9099TIP3    H148788   4.559   1.229   0.233 -0.7665 -1.0933  0.3848
 9099TIP3    H248789   4.423   1.288   0.200 -0.6448 -1.0088  0.0299
 9100TIP3   OH248790   2.839   4.465   3.907 -0.1672 -0.5921 -0.3787
 9100TIP3    H148791   2.933   4.456   3.921 -0.1384 -0.2746 -0.3680
 9100TIP3    H248792   2.820   4.556   3.927 -0.7815 -1.0611  1.3471
 9101TIP3   OH248793   6.291   4.300  12.626 -0.2226 -0.4340 -0.4823
 9101TIP3    H148794   6.320   4.308  12.717 -2.1414  0.0382  0.1450
 9101TIP3    H248795   6.344   4.363  12.578  0.2631 -0.1003  0.4632
 9102TIP3   OH248796   2.734   6.289   6.013  0.2529  0.1672  0.0343
 9102TIP3    H148797   2.812   6.240   6.039  0.7904  1.9804  2.1999
 9102TIP3    H248798   2.769   6.365   5.965 -0.3522 -0.0381 -0.7489
 9103TIP3   OH248799   0.567   2.557  11.142 -0.4061  0.3631  0.3557
 9103TIP3    H148800   0.550   2.492  11.210 -0.0712 -0.6664 -0.5154
 9103TIP3    H248801   0.547   2.512  11.060  2.4311  0.4073 -0.4614
 9104TIP3   OH248802   0.780   0.683  10.922 -0.2064 -0.2639 -0.2548
 9104TIP3    H148803   0.790   0.647  11.010  0.2155 -0.7100 -0.4816
 9104TIP3    H248804   0.847   0.639  10.870 -0.2769  0.1925 -0.7413
 9105TIP3   OH248805   6.115   2.799   0.615  0.1436  0.1127 -0.3676
 9105TIP3    H148806   6.052   2.826   0.682  0.5527 -1.3439  0.6458
 9105TIP3    H248807   6.070   2.731   0.565  0.3632  0.1583 -0.6309
 9106TIP3   OH248808   3.415   4.291  14.682  0.5224  0.0583  1.0657
 9106TIP3    H148809   3.505   4.313  14.708  0.9473  1.0681 -1.0353
 9106TIP3    H248810   3.422   4.204  14.644  0.1574 -0.8215  2.9263
 9107TIP3   OH248811   0.184   0.107  11.598  0.0264 -0.1393  0.5602
 9107TIP3    H148812   0.240   0.064  11.662 -0.1189  1.8812  2.1335
 9107TIP3    H248813   0.243   0.126  11.524  0.3972 -1.7151  0.4230
 9108TIP3   OH248814   2.841   2.232   2.365  0.3088 -0.6053 -0.3758
 9108TIP3    H148815   2.869   2.168   2.430  0.0752 -1.4867 -1.1047
 9108TIP3    H248816   2.922   2.266   2.327  0.5203  1.4023  1.7074
 9109TIP3   OH248817   4.217   2.294   5.418 -0.2765 -0.0288 -0.0914
 9109TIP3    H148818   4.282   2.233   5.381  0.6421  1.7942 -1.6377
 9109TIP3    H248819   4.258   2.325   5.499 -0.7841 -1.4568  0.7528
 9110TIP3   OH248820   2.257   1.536  14.789 -0.0674  0.2453 -0.7139
 9110TIP3    H148821   2.228   1.502  14.704  0.8825  0.9968 -1.3621
 9110TIP3    H248822   2.351   1.520  14.791  0.0769  1.0887 -0.2219
 9111TIP3   OH248823   0.261   2.420  16.849 -0.2265  0.0875  0.1240
 9111TIP3    H148824   0.206   2.342  16.842  0.7929 -0.7443  0.9953
 9111TIP3    H248825   0.273   2.433  16.943  2.0629 -0.5048 -0.0256
 9112TIP3   OH248826   3.885   4.493  13.063 -0.0167 -0.0824 -0.3352
 9112TIP3    H148827   3.955   4.436  13.032  0.2488  0.2977 -0.4397
 9112TIP3    H248828   3.930   4.572  13.093 -0.4593  0.4819 -1.1174
 9113TIP3   OH248829   1.307   3.068  11.395 -0.4798 -0.4019  0.1767
 9113TIP3    H148830   1.345   3.130  11.334 -0.9091 -0.9504 -0.6786
 9113TIP3    H248831   1.245   3.018  11.342 -0.9386 -0.8236  1.0919
 9114TIP3   OH248832   0.333   4.891  11.414  0.1647  0.6171  0.3853
 9114TIP3    H148833   0.251   4.854  11.382  0.3110  1.5919 -1.2233
 9114TIP3    H248834   0.373   4.932  11.337  1.7744  0.8696  1.3064
 9115TIP3   OH248835   5.242   1.774  14.328 -0.8754  0.5931  0.0067
 9115TIP3    H148836   5.175   1.722  14.374  1.8000 -2.0023  1.3370
 9115TIP3    H248837   5.274   1.835  14.395 -0.5266  0.3990  0.0187
 9116TIP3   OH248838   2.605   6.204   3.752  0.2106  0.7069 -0.4879
 9116TIP3    H148839   2.602   6.120   3.706 -0.5278  0.6336 -0.3174
 9116TIP3    H248840   2.698   6.216   3.774  0.2039 -0.4642  0.2443
 9117TIP3   OH248841   0.130   3.167  12.954  0.0227  0.6424  0.0734
 9117TIP3    H148842   0.173   3.127  12.879  1.0621  2.8543 -0.6191
 9117TIP3    H248843   0.192   3.156  13.026 -0.4234 -0.3819  0.3160
 9118TIP3   OH248844   6.384   3.537  15.951 -0.0701 -0.4464  0.3011
 9118TIP3    H148845   6.384   3.453  15.996 -0.4582 -0.1496  0.8627
 9118TIP3    H248846   6.305   3.581  15.981  1.1385  0.9644  1.6072
 9119TIP3   OH248847   5.318   2.495  12.288  0.4710 -0.0899  0.6356
 9119TIP3    H148848   5.367   2.461  12.214 -1.5633 -0.7330 -0.5059
 9119TIP3    H248849   5.249   2.430  12.304 -0.0341  0.7483  2.1478
 9120TIP3   OH248850   3.754   4.665   4.918 -0.2343 -0.0372 -0.1961
 9120TIP3    H148851   3.806   4.622   4.986  0.6415  0.6100 -0.4436
 9120TIP3    H248852   3.723   4.593   4.863 -0.5887 -0.5318  0.6158
 9121TIP3   OH248853   4.527   6.780  14.248 -0.3150  0.3512 -0.1199
 9121TIP3    H148854   4.554   6.747  14.334  2.4242  1.3026 -0.5324
 9121TIP3    H248855   4.432   6.792  14.257 -0.6734 -2.7517  1.6186
 9122TIP3   OH248856   5.729   0.773   1.428 -0.1564  0.1178 -0.6660
 9122TIP3    H148857   5.793   0.792   1.496 -1.8038  0.1239  0.9617
 9122TIP3    H248858   5.782   0.756   1.349  1.7758  0.8062  0.4107
 9123TIP3   OH248859   3.968   5.121   1.782 -0.3665  0.7168 -0.0317
 9123TIP3    H148860   4.010   5.121   1.696 -1.2883  1.1662 -0.4954
 9123TIP3    H248861   3.918   5.040   1.785  3.1215 -1.6243  1.8894
 9124TIP3   OH248862   1.194   4.534  17.040 -0.2725  0.6801 -0.6482
 9124TIP3    H148863   1.279   4.534  16.995 -0.8194 -0.1528 -1.7253
 9124TIP3    H248864   1.133   4.498  16.976 -1.2119  0.0428  0.5634
 9125TIP3   OH248865   4.358   6.635   5.884 -0.2351  0.2790  0.5366
 9125TIP3    H148866   4.367   6.582   5.805  0.3196  0.9647  0.1297
 9125TIP3    H248867   4.359   6.726   5.852 -1.8133  0.5389  1.1527
 9126TIP3   OH248868   0.977   6.293  15.965  0.4112 -0.3674  0.1104
 9126TIP3    H148869   1.041   6.278  15.895  0.8096 -2.0708  0.7887
 9126TIP3    H248870   0.970   6.208  16.009 -1.0683  0.2402  1.1051
 9127TIP3   OH248871   4.699   4.427   4.504 -0.1180 -0.1120 -0.0929
 9127TIP3    H148872   4.657   4.513   4.504 -1.9737 -0.9539 -1.4125
 9127TIP3    H248873   4.637   4.370   4.458  1.8048 -1.7988 -0.7227
 9128TIP3   OH248874   6.241   4.628  12.363 -0.4586  0.1602 -0.0537
 9128TIP3    H148875   6.301   4.662  12.430  0.7516 -0.0458 -1.0116
 9128TIP3    H248876   6.213   4.543  12.398 -1.6137  1.0086  1.2157
 9129TIP3   OH248877   3.995   0.890  12.000  0.0898 -0.6224  0.7504
 9129TIP3    H148878   4.002   0.796  12.016  0.3959 -0.8411 -0.5571
 9129TIP3    H248879   3.902   0.910  12.015 -0.5205 -1.6302 -1.3014
 9130TIP3   OH248880   3.166   3.916  11.623  0.3062 -0.4392 -0.3509
 9130TIP3    H148881   3.079   3.951  11.643  0.3377  1.0730 -2.5927
 9130TIP3    H248882   3.218   3.938  11.700 -0.7029  0.8188  0.0076
 9131TIP3   OH248883   4.058   0.449   5.391  0.0857  0.1709  0.1207
 9131TIP3    H148884   4.031   0.538   5.369 -0.8150  0.2124  1.2780
 9131TIP3    H248885   4.146   0.459   5.428  0.5704  0.3890 -1.0550
 9132TIP3   OH248886   4.503   0.148   5.062 -0.3201 -0.1499  0.3384
 9132TIP3    H148887   4.476   0.067   5.018 -1.2960 -0.2563  1.1076
 9132TIP3    H248888   4.599   0.148   5.057 -0.2327 -1.9855  1.4323
 9133TIP3   OH248889   0.080   0.649   1.723  0.5001 -0.0309  0.1668
 9133TIP3    H148890   0.135   0.596   1.665 -0.9013 -0.0675 -1.1682
 9133TIP3    H248891   0.023   0.585   1.767 -2.1677  0.3170 -2.4721
 9134TIP3   OH248892   3.439   2.271  11.717 -0.2503  0.0530 -0.0479
 9134TIP3    H148893   3.444   2.190  11.665 -1.2939 -0.1965  0.2178
 9134TIP3    H248894   3.431   2.341  11.652  3.8014  0.3481 -0.4703
 9135TIP3   OH248895   2.598   2.336   5.113 -0.5191 -0.2961 -0.8465
 9135TIP3    H148896   2.582   2.334   5.208 -1.9940  2.7267 -0.9313
 9135TIP3    H248897   2.536   2.272   5.078 -0.6442 -0.7393  0.1255
 9136TIP3   OH248898   5.339   0.032   2.998 -0.1609  0.3843 -0.9536
 9136TIP3    H148899   5.303  -0.055   3.008  0.6596  0.2430  1.3471
 9136TIP3    H248900   5.275   0.079   2.945 -1.3125 -1.2043 -1.0245
 9137TIP3   OH248901   2.048   1.749  16.663  0.0883  0.3814 -0.5091
 9137TIP3    H148902   2.013   1.687  16.598  0.5746  0.8350 -1.2287
 9137TIP3    H248903   1.977   1.811  16.678  0.0485  0.4102 -0.8022
 9138TIP3   OH248904   1.479   3.015  12.539 -1.2365  0.0190 -0.6617
 9138TIP3    H148905   1.468   3.055  12.626 -0.2672 -0.4639 -0.3049
 9138TIP3    H248906   1.458   2.923  12.552 -0.4667 -0.1853 -0.7768
 9139TIP3   OH248907   2.833   2.986  14.532 -0.2940 -0.2209  0.3784
 9139TIP3    H148908   2.882   3.066  14.513 -1.0090 -0.4236 -2.7946
 9139TIP3    H248909   2.858   2.964  14.622  2.9432  1.3990  0.0170
 9140TIP3   OH248910   6.182   5.593  11.008 -0.9029  0.2480 -0.1470
 9140TIP3    H148911   6.249   5.656  11.033 -2.3882  0.7826  2.8159
 9140TIP3    H248912   6.230   5.526  10.958  1.3473  1.8262 -0.2315
 9141TIP3   OH248913   0.825   1.234  16.619 -0.4213  0.2595 -0.2507
 9141TIP3    H148914   0.794   1.321  16.596 -1.2627  0.0957  0.2304
 9141TIP3    H248915   0.750   1.192  16.662 -0.5146 -1.2128 -1.7588
 9142TIP3   OH248916   1.882   6.793   5.089  0.4398 -0.3355  0.6871
 9142TIP3    H148917   1.812   6.737   5.058  0.9090 -1.0766  0.9429
 9142TIP3    H248918   1.884   6.778   5.184  0.7999 -0.1534  0.7097
 9143TIP3   OH248919   1.061   4.076  12.229  0.4902  0.2694 -0.4343
 9143TIP3    H148920   1.072   4.012  12.159 -0.3471  0.2137 -0.5307
 9143TIP3    H248921   1.036   4.024  12.305  0.9048  0.3788 -0.2213
 9144TIP3   OH248922   1.545   4.197  15.178 -0.2445  0.6562 -0.0168
 9144TIP3    H148923   1.507   4.119  15.217  0.5499  0.5864  0.6495
 9144TIP3    H248924   1.476   4.263  15.185 -1.1904 -0.1599 -1.2623
 9145TIP3   OH248925   0.649   2.427  11.939  0.1897 -0.3077  0.1707
 9145TIP3    H148926   0.734   2.470  11.953 -1.0387  1.6901  2.0077
 9145TIP3    H248927   0.641   2.423  11.844  2.3160 -0.5105 -0.0566
 9146TIP3   OH248928   2.349   0.798   0.925  0.7514  0.6324  0.4597
 9146TIP3    H148929   2.299   0.721   0.953  1.1129  0.0596 -0.4457
 9146TIP3    H248930   2.369   0.844   1.007  0.2697 -0.0658  0.9869
 9147TIP3   OH248931   5.991   1.360   2.039 -0.4920  0.2755  0.0011
 9147TIP3    H148932   6.075   1.328   2.071 -0.8344 -0.1101  0.5342
 9147TIP3    H248933   6.002   1.364   1.944 -0.5513 -1.8294 -0.1495
 9148TIP3   OH248934   1.448   5.888  10.985  0.1732  0.1833  0.1768
 9148TIP3    H148935   1.375   5.829  11.000  0.5824 -1.0479 -2.1996
 9148TIP3    H248936   1.501   5.844  10.919  2.7946  1.2880  1.3819
 9149TIP3   OH248937   2.003   2.228  13.230  0.6382  0.5307 -0.1406
 9149TIP3    H148938   2.001   2.323  13.241 -0.3791  0.8285 -2.3745
 9149TIP3    H248939   1.958   2.193  13.307  0.2327  1.9175  0.2650
 9150TIP3   OH248940   2.027   3.183   5.061  0.3056  0.2039  0.5654
 9150TIP3    H148941   1.996   3.222   4.980 -0.3638 -1.1835  0.1221
 9150TIP3    H248942   2.120   3.165   5.046  0.0598 -0.5457 -0.1099
 9151TIP3   OH248943   3.080   4.328   6.408 -0.3413 -0.4519 -0.0891
 9151TIP3    H148944   3.118   4.415   6.424 -0.9671 -0.2119  0.1066
 9151TIP3    H248945   3.140   4.288   6.345  0.4039 -0.1906  0.4311
 9152TIP3   OH248946   2.083   2.853   6.082  0.1168 -0.0451 -0.5113
 9152TIP3    H148947   2.050   2.792   6.148  0.0790  1.2056  0.6836
 9152TIP3    H248948   2.177   2.859   6.100  0.3972 -0.8629 -1.5926
 9153TIP3   OH248949   1.547   6.790   1.396 -0.1396 -0.0370  0.0108
 9153TIP3    H148950   1.504   6.827   1.473 -1.1970 -0.2926 -0.4388
 9153TIP3    H248951   1.564   6.865   1.340  1.9245  0.3604  1.0484
 9154TIP3   OH248952   0.275   2.162   0.962  0.1550  0.0484  0.8692
 9154TIP3    H148953   0.272   2.139   0.869 -1.5878 -0.8245  1.0966
 9154TIP3    H248954   0.348   2.224   0.969  3.0221 -2.8504 -0.3807
 9155TIP3   OH248955   1.763   4.616  12.454 -0.4911  0.1240  0.0677
 9155TIP3    H148956   1.684   4.634  12.506  1.1134  2.9425  1.8036
 9155TIP3    H248957   1.803   4.702  12.441  1.3899 -1.0046 -2.3337
 9156TIP3   OH248958   0.681   0.337  16.506  0.0846 -0.0276  0.1337
 9156TIP3    H148959   0.701   0.276  16.436  0.8006 -1.0085  1.1658
 9156TIP3    H248960   0.625   0.288  16.566  0.1339  0.5350  0.6538
 9157TIP3   OH248961   4.325   3.139  13.409 -0.3636  0.2160 -0.3230
 9157TIP3    H148962   4.421   3.137  13.403 -0.3335  1.8687 -0.7289
 9157TIP3    H248963   4.304   3.226  13.442 -1.6734 -0.7814  1.6701
 9158TIP3   OH248964   3.434   0.092   2.160  0.3008 -0.2078 -0.0702
 9158TIP3    H148965   3.385   0.108   2.240 -1.7188  0.0543 -1.3072
 9158TIP3    H248966   3.483   0.011   2.177 -1.4226 -1.0958  0.8349
 9159TIP3   OH248967   3.931   5.160  15.094  0.5202 -0.1872 -0.2494
 9159TIP3    H148968   3.984   5.186  15.018  1.9248 -1.0601  0.3879
 9159TIP3    H248969   3.851   5.123  15.055  0.1397  1.5518 -1.2240
 9160TIP3   OH248970   3.705   4.204   5.464 -0.4176  0.0080  0.1086
 9160TIP3    H148971   3.724   4.112   5.483 -1.7417  0.0107  1.6759
 9160TIP3    H248972   3.749   4.252   5.534 -0.0773  0.5437 -0.4668
 9161TIP3   OH248973   5.194   4.051  11.671  0.6837 -0.4457  0.1715
 9161TIP3    H148974   5.242   4.069  11.590 -1.6895  0.0253 -1.2109
 9161TIP3    H248975   5.215   3.960  11.693  1.5697 -0.4882 -0.8058
 9162TIP3   OH248976   2.405   5.875  13.437  0.3284  0.2892 -0.4204
 9162TIP3    H148977   2.406   5.780  13.430  0.2329  0.3762 -1.9889
 9162TIP3    H248978   2.498   5.900  13.438  0.3626  0.1508  0.7424
 9163TIP3   OH248979   3.145   4.136  13.795  0.6080 -0.0418 -0.0336
 9163TIP3    H148980   3.155   4.139  13.890  1.2629  1.7860 -0.1129
 9163TIP3    H248981   3.056   4.104  13.781 -1.1673  3.5926  1.3980
 9164TIP3   OH248982   1.875   6.156  14.930  0.0213 -0.4344 -0.0014
 9164TIP3    H148983   1.821   6.108  14.867  0.6407  0.6281 -1.4081
 9164TIP3    H248984   1.818   6.225  14.963 -0.1774 -0.7299  0.2710
 9165TIP3   OH248985   5.118   0.868  16.858 -0.2069  0.1258 -0.1957
 9165TIP3    H148986   5.197   0.817  16.845  0.1113  0.0165  1.7625
 9165TIP3    H248987   5.048   0.802  16.867 -0.0901  0.0854  0.5222
 9166TIP3   OH248988   5.266   3.328   1.699  0.4404 -0.3822  0.0529
 9166TIP3    H148989   5.226   3.400   1.749  0.0699 -1.2789  1.0673
 9166TIP3    H248990   5.196   3.265   1.686  0.7038 -0.4723 -1.0490
 9167TIP3   OH248991   6.255   0.953   5.797  0.8139 -0.0793 -0.4717
 9167TIP3    H148992   6.261   1.018   5.867  0.9976  1.1425 -1.5917
 9167TIP3    H248993   6.338   0.904   5.803  1.6063  1.1584 -0.9054
 9168TIP3   OH248994   6.266   2.299  16.481  0.2671  0.2342  0.0000
 9168TIP3    H148995   6.279   2.392  16.498 -0.5162  0.1385  1.2154
 9168TIP3    H248996   6.185   2.295  16.430  0.1957  0.1970  0.1173
 9169TIP3   OH248997   3.214   3.536   1.507 -0.3980  0.4029  0.3416
 9169TIP3    H148998   3.194   3.624   1.540 -1.3843  0.7308 -1.0206
 9169TIP3    H248999   3.304   3.542   1.476 -0.9272  1.4377 -1.1505
 9170TIP3   OH249000   5.272   0.273  13.603  0.6946 -0.3135  0.0649
 9170TIP3    H149001   5.275   0.243  13.513 -0.1021  1.5256 -0.6335
 9170TIP3    H249002   5.344   0.335  13.611 -1.2823  2.2169 -0.4404
 9171TIP3   OH249003   3.229   0.243  15.206  0.0200 -1.1347 -0.2363
 9171TIP3    H149004   3.288   0.207  15.140 -0.4120 -2.1516 -0.0867
 9171TIP3    H249005   3.218   0.173  15.270  0.4310 -0.1644  0.9415
 9172TIP3   OH249006   3.245   6.562  12.484  0.1418 -0.0868  0.5025
 9172TIP3    H149007   3.293   6.630  12.436 -0.7865  1.2946  1.4570
 9172TIP3    H249008   3.286   6.561  12.570 -0.1813 -0.3831  0.6536
 9173TIP3   OH249009   5.619   2.987   1.926 -0.1638 -0.1020 -0.3281
 9173TIP3    H149010   5.705   2.983   1.967  0.4944  1.2440 -1.4992
 9173TIP3    H249011   5.589   2.896   1.925  1.4336 -0.6668 -0.2836
 9174TIP3   OH249012   0.793   0.848   1.479 -0.9480  0.2945  0.0397
 9174TIP3    H149013   0.736   0.788   1.431 -1.1717  0.1850  0.4374
 9174TIP3    H249014   0.814   0.802   1.560 -0.4898  0.4371  0.0043
 9175TIP3   OH249015   5.776   0.190   3.730  0.0969 -0.0520  0.6105
 9175TIP3    H149016   5.853   0.247   3.728 -0.5968  0.9214  0.6894
 9175TIP3    H249017   5.761   0.166   3.638 -0.1564  0.6829  0.4522
 9176TIP3   OH249018   0.789   3.747  13.584  0.3016  0.6232  0.0415
 9176TIP3    H149019   0.724   3.685  13.552  0.7888 -0.2789  0.7419
 9176TIP3    H249020   0.739   3.810  13.636  0.0528 -0.4770  1.1842
 9177TIP3   OH249021   3.971   0.819   5.734 -0.2019 -0.3981  0.4982
 9177TIP3    H149022   3.973   0.913   5.716  1.0158 -0.2215  1.4563
 9177TIP3    H249023   4.025   0.808   5.812 -2.0314 -1.6452  1.6685
 9178TIP3   OH249024   2.505   6.233   5.827  0.0576 -0.1739 -0.5078
 9178TIP3    H149025   2.567   6.218   5.898  0.5156  0.8107 -0.6802
 9178TIP3    H249026   2.556   6.219   5.747  0.3604  1.5471 -0.6709
 9179TIP3   OH249027   1.837   1.304   0.334 -0.2373  0.2620 -0.4997
 9179TIP3    H149028   1.878   1.291   0.420  0.2238  0.3985 -0.6974
 9179TIP3    H249029   1.753   1.260   0.341  0.7044 -1.6730 -0.7061
 9180TIP3   OH249030   5.493   0.766  12.566 -0.7210 -0.6447 -0.0463
 9180TIP3    H149031   5.462   0.854  12.548  0.3704 -0.2918 -0.2819
 9180TIP3    H249032   5.531   0.736  12.483  2.5801  0.2532  0.9815
 9181TIP3   OH249033   1.841   5.473   1.371  0.1835  0.1584 -0.5992
 9181TIP3    H149034   1.749   5.478   1.397  0.6772 -1.0757  1.6905
 9181TIP3    H249035   1.876   5.561   1.391 -0.2886  0.3443 -0.5816
 9182TIP3   OH249036   5.686   3.962   3.295 -0.0928 -0.5583 -0.0060
 9182TIP3    H149037   5.707   3.983   3.386  1.0292 -0.0676 -0.3582
 9182TIP3    H249038   5.692   4.046   3.249  0.3577 -0.9650 -0.7045
 9183TIP3   OH249039   2.028   3.441  12.705  0.1453  0.3490 -0.2584
 9183TIP3    H149040   2.037   3.457  12.611  1.9787 -0.9128 -0.3495
 9183TIP3    H249041   2.037   3.527  12.745 -1.6049  1.0390 -1.2574
 9184TIP3   OH249042   0.634   0.123   5.560  0.3295  0.1338 -0.5681
 9184TIP3    H149043   0.697   0.144   5.628  0.4499  0.4549 -0.7741
 9184TIP3    H249044   0.614   0.207   5.519 -1.1850  0.2427  0.3042
 9185TIP3   OH249045   6.520   6.062  11.279 -0.5791  0.3264 -0.2167
 9185TIP3    H149046   6.471   6.059  11.197 -2.3985 -1.2394  0.8489
 9185TIP3    H249047   6.533   6.156  11.296  0.6149  0.6728 -2.6671
 9186TIP3   OH249048   1.790   0.315  15.672  0.2080  0.5350 -0.1663
 9186TIP3    H149049   1.769   0.361  15.591 -0.4845  1.4288  0.5000
 9186TIP3    H249050   1.886   0.307  15.671  0.3224  1.7120 -0.4550
 9187TIP3   OH249051   0.533   6.243   1.946  0.2301 -0.4776 -0.5747
 9187TIP3    H149052   0.546   6.169   1.887 -0.4299 -0.6802 -0.4711
 9187TIP3    H249053   0.518   6.203   2.032  0.5358 -0.2020 -0.3905
 9188TIP3   OH249054   2.559   2.486   1.541  0.1038  0.3032  0.6324
 9188TIP3    H149055   2.555   2.419   1.473 -0.2743 -1.2294  2.1051
 9188TIP3    H249056   2.638   2.536   1.521  0.8342 -1.0704 -0.0556
 9189TIP3   OH249057   1.108   0.670   4.743  0.3489  0.4749 -0.4379
 9189TIP3    H149058   1.105   0.667   4.839  0.6962 -0.7109 -0.4387
 9189TIP3    H249059   1.202   0.672   4.723  0.3058 -0.3627 -0.7551
 9190TIP3   OH249060   4.850   3.227  12.976 -0.3088  0.7407 -0.0745
 9190TIP3    H149061   4.762   3.234  12.941 -0.9676  0.2774  1.4209
 9190TIP3    H249062   4.893   3.309  12.951 -0.8360  0.5819 -1.6043
 9191TIP3   OH249063   1.714   1.821   0.662  0.7324 -0.1286  0.1283
 9191TIP3    H149064   1.646   1.887   0.651 -0.6738 -1.8073 -2.2301
 9191TIP3    H249065   1.780   1.844   0.596  0.3300 -0.9225 -0.5687
 9192TIP3   OH249066   3.286   3.727  11.258 -0.5082  0.1291  0.1010
 9192TIP3    H149067   3.299   3.651  11.201 -0.1470 -0.8130  1.3708
 9192TIP3    H249068   3.255   3.689  11.341 -1.0090  1.4414  0.5460
 9193TIP3   OH249069   1.623   0.944   3.290  0.5730  0.0260 -0.2291
 9193TIP3    H149070   1.646   0.865   3.338  1.2407  0.0715 -0.4598
 9193TIP3    H249071   1.635   0.921   3.198 -0.6479 -0.0430 -0.3854
 9194TIP3   OH249072   2.894   2.239   2.916 -0.5357 -0.2360 -0.5114
 9194TIP3    H149073   2.823   2.193   2.961 -0.2908 -0.9055 -0.8034
 9194TIP3    H249074   2.955   2.170   2.889 -1.2014  0.0021 -2.8209
 9195TIP3   OH249075   3.724   6.377  16.777  0.0923 -0.1668  0.6189
 9195TIP3    H149076   3.646   6.341  16.819  1.6504 -2.8476  1.4834
 9195TIP3    H249077   3.795   6.320  16.807  1.7543 -0.5280 -3.4441
 9196TIP3   OH249078   5.535   6.506  16.686 -0.0869  0.3268  0.6009
 9196TIP3    H149079   5.466   6.531  16.748 -0.3302 -0.9635  0.8928
 9196TIP3    H249080   5.577   6.588  16.662 -0.4872  0.9398  1.8971
 9197TIP3   OH249081   4.744   3.643   5.492 -0.3341 -0.4305  0.4192
 9197TIP3    H149082   4.693   3.612   5.567 -2.7066 -0.3570 -1.0381
 9197TIP3    H249083   4.683   3.701   5.445  1.9786  1.7473 -0.1111
 9198TIP3   OH249084   3.198   1.219  14.426  0.0681  0.6545  0.3533
 9198TIP3    H149085   3.135   1.282  14.460  1.5033  1.5054  1.5476
 9198TIP3    H249086   3.283   1.264  14.431  0.7992 -0.4389 -1.2312
 9199TIP3   OH249087   6.389   2.536   5.916  0.5845  0.5040  0.4009
 9199TIP3    H149088   6.338   2.507   5.992  0.4985 -0.0638  0.1343
 9199TIP3    H249089   6.479   2.542   5.948  0.5099  0.5026  0.6094
 9200TIP3   OH249090   2.046   0.411  16.561  0.2404  0.4111 -0.1286
 9200TIP3    H149091   2.105   0.460  16.505 -2.1060  2.5092 -0.9562
 9200TIP3    H249092   2.043   0.324  16.521  2.6460  0.2276 -0.0583
 9201TIP3   OH249093   0.873   1.428  11.868 -0.9330  0.1948 -0.1096
 9201TIP3    H149094   0.926   1.358  11.907 -3.5792 -0.8298  1.9537
 9201TIP3    H249095   0.918   1.509  11.892 -0.3508 -0.6209  1.7339
 9202TIP3   OH249096   5.870   6.654  12.898  0.4593  0.6721 -0.1100
 9202TIP3    H149097   5.869   6.611  12.813  1.6173  0.1514  0.1244
 9202TIP3    H249098   5.958   6.640  12.931 -0.4144 -0.6068  1.8971
 9203TIP3   OH249099   0.151   6.412   5.627  0.4558  0.1452 -0.2049
 9203TIP3    H149100   0.092   6.465   5.574  0.2139  0.7878  0.6895
 9203TIP3    H249101   0.097   6.378   5.697  1.0791  0.5335  0.4825
 9204TIP3   OH249102   3.986   2.804  12.336 -0.3497  0.3470 -0.6227
 9204TIP3    H149103   3.911   2.863  12.342  1.0328  2.1287  0.1352
 9204TIP3    H249104   3.948   2.718  12.317 -2.3850  1.6910 -3.4372
 9205TIP3   OH249105   3.785   2.546   5.047  0.0424 -0.3937  0.1509
 9205TIP3    H149106   3.714   2.602   5.078 -0.6503 -1.2730  0.2208
 9205TIP3    H249107   3.798   2.571   4.955  0.7650  0.8792  0.5819
 9206TIP3   OH249108   5.280   5.945  15.901  0.2275 -1.0073 -0.3678
 9206TIP3    H149109   5.194   5.987  15.909 -0.1359 -1.7876 -0.0484
 9206TIP3    H249110   5.339   6.004  15.948 -0.1501 -0.5190 -0.4943
 9207TIP3   OH249111   3.363   1.240  12.548  1.0338 -0.4268 -0.4782
 9207TIP3    H149112   3.384   1.161  12.498  0.9293  0.1368 -1.4468
 9207TIP3    H249113   3.405   1.226  12.633  1.9549 -1.0534 -1.0094
 9208TIP3   OH249114   3.768   6.370  15.137  0.0667  0.3211  0.4056
 9208TIP3    H149115   3.732   6.282  15.144  2.2697 -0.5266  2.1112
 9208TIP3    H249116   3.705   6.425  15.184 -0.1447 -0.7597  1.4313
 9209TIP3   OH249117   1.008   3.270  10.605  0.6237  0.1754  0.1461
 9209TIP3    H149118   0.977   3.180  10.599  2.1627 -0.4057  0.4403
 9209TIP3    H249119   1.074   3.277  10.536  0.6173  1.0378  0.2208
 9210TIP3   OH249120   0.446   5.207   4.788 -0.3666 -0.3417 -0.2904
 9210TIP3    H149121   0.391   5.214   4.866  0.2964 -2.0584  0.3920
 9210TIP3    H249122   0.398   5.253   4.719 -2.0742 -0.7690  0.5702
 9211TIP3   OH249123   0.704   3.126   2.201  0.2636 -0.0957  0.1209
 9211TIP3    H149124   0.713   3.095   2.111 -0.5036 -0.8052  0.2772
 9211TIP3    H249125   0.648   3.061   2.243 -0.0315  0.6488  0.9041
 9212TIP3   OH249126   5.407   4.282  16.865 -0.2440 -0.1587  0.0675
 9212TIP3    H149127   5.470   4.353  16.850 -1.1429  0.4895 -0.7532
 9212TIP3    H249128   5.338   4.322  16.917 -1.2522 -0.1266 -1.2486
 9213TIP3   OH249129   2.557   5.616  15.149 -0.0785 -0.3699  0.3973
 9213TIP3    H149130   2.584   5.647  15.236 -2.4599  1.2079  0.6608
 9213TIP3    H249131   2.466   5.587  15.161 -1.3653  2.2109 -1.9879
 9214TIP3   OH249132   0.059   4.029  12.013 -0.6937  0.3118  0.3131
 9214TIP3    H149133   0.153   4.016  12.004 -0.9288 -0.7759 -0.8851
 9214TIP3    H249134   0.036   3.983  12.094 -0.3996 -0.6391 -0.1315
 9215TIP3   OH249135   2.290   4.707  11.024 -0.1280 -0.5297  0.2555
 9215TIP3    H149136   2.289   4.671  10.936 -0.9006 -0.6972  0.3311
 9215TIP3    H249137   2.309   4.800  11.011  0.3132 -0.6558 -0.0424
 9216TIP3   OH249138   4.168   1.774  14.108  0.3333 -0.1138  0.3872
 9216TIP3    H149139   4.171   1.869  14.101  0.9295 -0.0057  1.6484
 9216TIP3    H249140   4.173   1.742  14.018 -1.1442  1.0538 -0.1448
 9217TIP3   OH249141   4.004   4.894  14.746  0.1995 -0.5803  0.1513
 9217TIP3    H149142   3.922   4.867  14.787 -0.1175 -1.3106 -0.9229
 9217TIP3    H249143   4.012   4.987  14.768 -1.7365 -0.0771 -1.0440
 9218TIP3   OH249144   0.136   6.411   5.020 -0.0282  0.2884  0.2553
 9218TIP3    H149145   0.104   6.370   5.100 -1.3714  0.3260 -0.2199
 9218TIP3    H249146   0.222   6.373   5.005 -0.1587 -0.4079  1.2195
 9219TIP3   OH249147   1.784   4.314  17.130  0.4667 -0.2478 -0.5121
 9219TIP3    H149148   1.714   4.376  17.108  1.9199  2.6622  2.2960
 9219TIP3    H249149   1.741   4.249  17.186 -0.3242  0.4886 -0.2464
 9220TIP3   OH249150   0.625   1.269  12.644 -0.5126 -0.2705  0.3082
 9220TIP3    H149151   0.634   1.364  12.639  2.6338 -0.3749  1.5243
 9220TIP3    H249152   0.537   1.255  12.678 -0.9637  2.1979  0.3497
 9221TIP3   OH249153   1.095   4.669   2.352 -0.5274  0.2701  0.0147
 9221TIP3    H149154   1.016   4.715   2.381  1.0933  2.5319  1.1327
 9221TIP3    H249155   1.139   4.732   2.295 -0.4527 -1.7151 -2.2739
 9222TIP3   OH249156   1.266   2.529  16.107  0.1759 -0.4889 -0.0376
 9222TIP3    H149157   1.252   2.443  16.067  1.5453 -0.5020 -0.5098
 9222TIP3    H249158   1.272   2.511  16.201 -0.1291 -0.8261 -0.0800
 9223TIP3   OH249159   3.805   0.167  13.697 -0.5642 -0.6076  0.2827
 9223TIP3    H149160   3.881   0.162  13.639 -1.2415  0.2002 -0.7007
 9223TIP3    H249161   3.746   0.229  13.654 -0.4804  1.1933  2.5601
 9224TIP3   OH249162   4.131   1.161   3.313 -0.1314 -0.0584 -0.2833
 9224TIP3    H149163   4.120   1.070   3.342  0.0134  0.1108  0.3160
 9224TIP3    H249164   4.109   1.213   3.390 -2.8975  0.5288 -1.3363
 9225TIP3   OH249165   5.671   0.278  14.670  0.1339  0.2897  0.9448
 9225TIP3    H149166   5.579   0.252  14.667 -0.1587  1.3889 -0.3189
 9225TIP3    H249167   5.686   0.326  14.588  1.4082  1.4842  1.8170
 9226TIP3   OH249168   1.560   4.900   3.089  0.0114  0.0740  0.3234
 9226TIP3    H149169   1.511   4.827   3.127  0.5442 -1.2160 -1.3327
 9226TIP3    H249170   1.650   4.885   3.117  0.3985 -0.8541 -1.2766
 9227TIP3   OH249171   6.172   4.728   2.329 -0.4346 -0.1291  0.3482
 9227TIP3    H149172   6.125   4.697   2.251  0.7345  1.6803 -1.1742
 9227TIP3    H249173   6.219   4.651   2.361 -0.5472 -0.8125 -1.0448
 9228TIP3   OH249174   5.785   3.666   4.480 -0.2218  0.2042 -0.0365
 9228TIP3    H149175   5.749   3.591   4.526 -0.2481  0.9665  1.2294
 9228TIP3    H249176   5.880   3.658   4.492 -0.3029  1.2739  1.6186
 9229TIP3   OH249177   5.609   4.854  13.592 -0.0124 -0.4523  1.0458
 9229TIP3    H149178   5.616   4.813  13.678  0.0262 -2.3362  0.1759
 9229TIP3    H249179   5.694   4.838  13.550 -0.6944 -1.2615 -0.0664
 9230TIP3   OH249180   5.746   3.669   2.925 -0.2925 -0.3699 -0.0195
 9230TIP3    H149181   5.733   3.634   2.837 -0.9764 -0.0906 -0.0393
 9230TIP3    H249182   5.715   3.760   2.919 -1.0500 -0.5778  0.6964
 9231TIP3   OH249183   2.977   2.229   4.371 -0.1809  0.4578  0.4729
 9231TIP3    H149184   3.038   2.285   4.324  0.5417  1.5752  2.5872
 9231TIP3    H249185   3.018   2.217   4.457 -0.2067 -3.4696  0.1529
 9232TIP3   OH249186   5.218   5.771  12.736  0.4522  0.5335 -0.2813
 9232TIP3    H149187   5.220   5.743  12.645  0.0725 -1.3978  0.2676
 9232TIP3    H249188   5.289   5.836  12.742  0.8120  0.3268 -1.8155
 9233TIP3   OH249189   4.442   1.884   2.471 -0.2026  0.7240 -0.0280
 9233TIP3    H149190   4.526   1.923   2.445 -0.2904  0.3236 -0.9171
 9233TIP3    H249191   4.379   1.956   2.465  0.0632  1.0255  0.6372
 9234TIP3   OH249192   1.863   6.503   4.817  0.6691 -0.4013  0.2636
 9234TIP3    H149193   1.949   6.520   4.858  0.9505 -1.6802  0.2586
 9234TIP3    H249194   1.834   6.421   4.857 -0.1109 -0.4831 -0.4460
 9235TIP3   OH249195   5.421   5.967  12.725  0.5407 -0.4653 -0.0896
 9235TIP3    H149196   5.367   6.035  12.685  1.4036  0.9935  1.1225
 9235TIP3    H249197   5.426   5.991  12.817  0.3279 -2.5784  0.5159
 9236TIP3   OH249198   0.207   4.561  12.195 -0.4956 -0.9128 -0.5499
 9236TIP3    H149199   0.170   4.496  12.135  0.4777 -0.8341 -1.2710
 9236TIP3    H249200   0.231   4.511  12.273 -1.4947 -1.0720 -0.3321
 9237TIP3   OH249201   3.146   1.474   3.473  0.0687 -0.1535 -0.4785
 9237TIP3    H149202   3.115   1.515   3.392  0.7414 -1.2483 -1.3282
 9237TIP3    H249203   3.110   1.385   3.470  0.3070 -0.2845  0.3074
 9238TIP3   OH249204   3.338   5.458  15.306 -0.4276 -0.7028  0.3233
 9238TIP3    H149205   3.337   5.508  15.388  2.1128 -0.3733  0.2358
 9238TIP3    H249206   3.281   5.383  15.323  2.1062 -2.1766  3.4685
 9239TIP3   OH249207   0.513   2.198  12.008 -0.1647  0.1446  0.3605
 9239TIP3    H149208   0.561   2.135  11.954  0.0513 -0.7595  1.5578
 9239TIP3    H249209   0.564   2.279  12.001  2.1325 -1.0056  2.2528
 9240TIP3   OH249210   2.896   3.170   5.773  0.0440  0.2101  0.0463
 9240TIP3    H149211   2.869   3.235   5.837  1.5188 -0.8917  1.8801
 9240TIP3    H249212   2.835   3.097   5.785 -0.8341  0.7160 -1.1439
 9241TIP3   OH249213   0.303   5.877  14.334 -0.3176 -0.8246  0.3683
 9241TIP3    H149214   0.325   5.937  14.405  0.5795  0.0835 -0.6333
 9241TIP3    H249215   0.295   5.933  14.257 -2.9490 -1.5493  0.0155
 9242TIP3   OH249216   1.300   5.021   5.681  0.1556 -0.2002 -0.1276
 9242TIP3    H149217   1.319   5.047   5.591  0.5284  0.9264  0.2611
 9242TIP3    H249218   1.330   4.931   5.687  1.1616  0.0768 -0.8181
 9243TIP3   OH249219   1.928   4.180   1.720 -0.5094  0.2557 -0.0268
 9243TIP3    H149220   1.909   4.258   1.773 -0.1473 -0.1145  0.6631
 9243TIP3    H249221   1.979   4.214   1.646 -0.7712  0.7408  0.0065
 9244TIP3   OH249222   6.691   6.217   3.427  0.0602 -0.2036  0.4413
 9244TIP3    H149223   6.598   6.233   3.445 -0.6777 -4.2884  1.3032
 9244TIP3    H249224   6.702   6.242   3.336 -2.1785 -0.4370  0.0419
 9245TIP3   OH249225   1.187   2.105  15.806  0.5521  0.7670 -0.1016
 9245TIP3    H149226   1.109   2.054  15.781 -0.8385  2.7655 -0.0548
 9245TIP3    H249227   1.236   2.115  15.724  0.2273  0.3973 -0.3479
 9246TIP3   OH249228   1.694   4.786  11.844 -0.3053 -0.3902  0.2763
 9246TIP3    H149229   1.606   4.822  11.834 -0.9272 -2.0031 -0.3117
 9246TIP3    H249230   1.746   4.831  11.777 -0.3250  1.4979  1.4490
 9247TIP3   OH249231   6.162   2.018   0.621  0.5532  0.4539 -0.4926
 9247TIP3    H149232   6.246   1.980   0.646 -0.5680 -2.1038 -0.1930
 9247TIP3    H249233   6.180   2.110   0.605  3.3985 -0.0094 -0.4644
 9248TIP3   OH249234   2.984   0.645  14.237  0.6421 -0.1227 -0.7785
 9248TIP3    H149235   3.061   0.660  14.182 -0.5565  3.0637 -1.8338
 9248TIP3    H249236   2.910   0.651  14.177 -0.5810  0.1884  0.7036
 9249TIP3   OH249237   4.743   1.074  15.655 -0.1177  0.1849  0.0213
 9249TIP3    H149238   4.836   1.051  15.649  0.3590  2.1097 -1.2789
 9249TIP3    H249239   4.736   1.154  15.603 -2.8425 -0.8096 -1.3098
 9250TIP3   OH249240   6.419   1.104  16.192  0.0211  0.6933  0.7754
 9250TIP3    H149241   6.352   1.042  16.221 -1.1269  1.8780  0.7393
 9250TIP3    H249242   6.370   1.171  16.143  1.1823  1.7792  1.0564
 9251TIP3   OH249243   0.326   3.758   0.269 -0.0881 -0.5904  0.3594
 9251TIP3    H149244   0.343   3.765   0.363  0.3068 -1.2599  0.3416
 9251TIP3    H249245   0.413   3.759   0.228 -0.2133 -1.1717  0.0672
 9252TIP3   OH249246   3.687   6.415  14.412  0.5216  0.0940  0.4902
 9252TIP3    H149247   3.771   6.382  14.380  0.6051 -1.3352  2.0775
 9252TIP3    H249248   3.631   6.337  14.419 -0.6272  0.8826  0.4172
 9253TIP3   OH249249   0.318   4.014  15.626 -0.2617 -1.4545  0.1916
 9253TIP3    H149250   0.276   4.009  15.540 -0.1234 -0.5520  0.0598
 9253TIP3    H249251   0.403   3.972  15.613  0.4570  0.1212 -0.5851
 9254TIP3   OH249252   1.720   0.013  13.696 -0.5502  1.4060 -0.1529
 9254TIP3    H149253   1.717  -0.011  13.604 -0.6151 -0.9027  0.3839
 9254TIP3    H249254   1.796  -0.035  13.731 -3.1830 -1.7410  1.8807
 9255TIP3   OH249255   0.934   1.761  13.341  0.1456 -0.1893 -0.5148
 9255TIP3    H149256   0.993   1.695  13.306  1.7953  0.4994  0.7917
 9255TIP3    H249257   0.858   1.712  13.372  0.1184 -1.1345 -1.9914
 9256TIP3   OH249258   6.533   3.916   5.336  0.3382 -0.0322  0.8641
 9256TIP3    H149259   6.445   3.881   5.323  0.4740 -0.3684  0.8170
 9256TIP3    H249260   6.586   3.839   5.358  0.6995  0.1120  0.5059
 9257TIP3   OH249261   4.834   5.875   5.661 -0.3050 -0.5232 -0.1971
 9257TIP3    H149262   4.842   5.933   5.586  1.1883 -1.3793 -0.7361
 9257TIP3    H249263   4.744   5.843   5.657 -0.9156  1.1027 -0.3362
 9258TIP3   OH249264   1.870   4.289  12.931  0.0901  0.4026  0.2736
 9258TIP3    H149265   1.827   4.241  13.001 -0.4867  0.2668 -0.1619
 9258TIP3    H249266   1.925   4.353  12.975 -0.1004  0.1749  0.8464
 9259TIP3   OH249267   4.109   2.733  14.703 -0.0344  0.5690 -0.2768
 9259TIP3    H149268   4.170   2.733  14.777  0.1209  2.5984 -0.3467
 9259TIP3    H249269   4.105   2.641  14.675 -1.1740 -0.5544  3.0826
 9260TIP3   OH249270   4.189   4.502  15.565  0.3054  0.2425  0.6253
 9260TIP3    H149271   4.154   4.589  15.545 -0.3658 -0.5032 -1.7713
 9260TIP3    H249272   4.250   4.485  15.493 -0.2775 -1.6392  0.5473
 9261TIP3   OH249273   4.981   5.258  11.343  0.4846  0.5819 -0.9727
 9261TIP3    H149274   5.001   5.294  11.256 -1.0015  1.2459 -1.0674
 9261TIP3    H249275   4.937   5.176  11.325  1.5035 -0.0249 -0.7943
 9262TIP3   OH249276   1.375   1.744   3.552 -0.0939  0.4308 -0.3263
 9262TIP3    H149277   1.398   1.655   3.579  0.6869  0.9444  0.7853
 9262TIP3    H249278   1.280   1.743   3.544  0.0373 -1.2161 -3.0028
 9263TIP3   OH249279   2.514   6.028   2.400  0.3449  0.3499 -0.5401
 9263TIP3    H149280   2.516   6.101   2.339  0.4656  1.4678  0.7525
 9263TIP3    H249281   2.425   5.994   2.394 -0.4878  2.1954  0.6196
 9264TIP3   OH249282   4.828   2.097  16.737 -0.5332 -0.4277  0.1173
 9264TIP3    H149283   4.846   2.183  16.697 -1.0143  0.2042  1.2130
 9264TIP3    H249284   4.841   2.035  16.666  0.9613  0.4367 -0.4301
 9265TIP3   OH249285   1.765   4.987  16.529 -0.3785 -0.3693  0.4289
 9265TIP3    H149286   1.765   5.047  16.454  0.3634  0.8475  1.3534
 9265TIP3    H249287   1.857   4.959  16.536 -0.2662  0.2077  1.3790
 9266TIP3   OH249288   4.565   2.610  15.285 -0.0836 -0.3271 -0.0644
 9266TIP3    H149289   4.522   2.691  15.257 -1.3829 -1.1541 -0.5647
 9266TIP3    H249290   4.658   2.626  15.271 -0.1047  1.7596  1.6074
 9267TIP3   OH249291   1.903   2.869   3.011  0.3175  0.0962 -0.5575
 9267TIP3    H149292   1.963   2.855   3.085  0.8794 -0.2764 -1.0792
 9267TIP3    H249293   1.909   2.963   2.993 -1.0286  0.5064  0.8788
 9268TIP3   OH249294   5.642   3.324  16.154  0.5786  0.3790  0.2247
 9268TIP3    H149295   5.734   3.299  16.147  0.4764 -0.2991  1.0760
 9268TIP3    H249296   5.608   3.270  16.225 -0.8054 -0.3319 -0.9125
 9269TIP3   OH249297   6.080   4.200   1.900  0.2828 -0.0609 -0.3854
 9269TIP3    H149298   6.010   4.203   1.965  1.1154  0.9515  0.5017
 9269TIP3    H249299   6.056   4.128   1.842 -0.4228 -1.0671  1.1069
 9270TIP3   OH249300   6.260   1.644   1.469 -0.1446 -0.3423 -0.0275
 9270TIP3    H149301   6.275   1.706   1.541 -0.2938 -0.3724  0.0310
 9270TIP3    H249302   6.292   1.560   1.503  0.4086 -0.2235 -0.2480
 9271TIP3   OH249303   4.863   0.479  14.575 -0.4333  0.5128 -0.4825
 9271TIP3    H149304   4.908   0.553  14.617  0.1679  0.2461 -0.6412
 9271TIP3    H249305   4.856   0.505  14.483 -0.3252  0.4282 -0.5159
 9272TIP3   OH249306   2.455   3.559  11.588  0.1481 -0.0157  0.7319
 9272TIP3    H149307   2.398   3.599  11.522  0.5153 -0.0730  0.3778
 9272TIP3    H249308   2.489   3.634  11.637 -2.8697 -0.0638  3.2189
 9273TIP3   OH249309   0.196   1.844   2.737  0.1272  0.0002  0.0202
 9273TIP3    H149310   0.158   1.919   2.782  1.3861 -0.4342  1.9163
 9273TIP3    H249311   0.174   1.857   2.645 -0.5778  2.1271  0.4507
 9274TIP3   OH249312   5.327   3.047  13.958 -0.5773  0.1144  0.0305
 9274TIP3    H149313   5.356   2.991  14.030 -0.0151  0.8873  0.4265
 9274TIP3    H249314   5.406   3.094  13.932 -1.2560  1.5498  0.4684
 9275TIP3   OH249315   4.712   5.806  14.778 -0.0284  0.0575 -0.7053
 9275TIP3    H149316   4.757   5.799  14.862 -2.7441 -0.3530  0.8283
 9275TIP3    H249317   4.748   5.734  14.725  0.1534 -1.1237  0.9455
 9276TIP3   OH249318   3.701   5.479   0.947 -0.3047 -0.4273  0.3491
 9276TIP3    H149319   3.714   5.384   0.944 -1.3614 -0.5594 -0.8205
 9276TIP3    H249320   3.789   5.516   0.936 -0.0507 -1.2722 -0.5815
 9277TIP3   OH249321   3.805   6.048   3.241 -0.0196 -0.1080 -0.5765
 9277TIP3    H149322   3.815   5.955   3.220  1.1683 -0.7205  2.2434
 9277TIP3    H249323   3.894   6.079   3.257 -0.4696  1.3525 -0.7322
 9278TIP3   OH249324   0.081   1.274  10.739 -0.2568 -0.2487 -0.4043
 9278TIP3    H149325   0.097   1.218  10.663 -1.6415 -1.2369 -0.0176
 9278TIP3    H249326   0.086   1.214  10.813 -2.8170 -0.1689 -0.0512
 9279TIP3   OH249327   1.045   5.437  17.106 -0.5049 -0.0553 -0.3238
 9279TIP3    H149328   1.019   5.527  17.125 -2.3029 -0.6777  0.4394
 9279TIP3    H249329   0.962   5.392  17.088  0.5624 -0.9787 -3.5383
 9280TIP3   OH249330   2.118   6.036  13.445  0.2683 -0.0396 -0.1008
 9280TIP3    H149331   2.112   5.972  13.375 -0.6572  0.2551 -0.3071
 9280TIP3    H249332   2.176   5.996  13.510  1.9119  0.0732 -1.4354
 9281TIP3   OH249333   5.265   6.150  12.100 -0.3476  0.4598 -0.8192
 9281TIP3    H149334   5.306   6.188  12.023 -1.3945  0.6937 -1.2691
 9281TIP3    H249335   5.328   6.166  12.171  0.1456  1.1832 -1.4083
 9282TIP3   OH249336   4.844   0.866  16.647  0.0778 -0.0591 -0.2455
 9282TIP3    H149337   4.908   0.871  16.576  0.4456 -0.2976  0.0649
 9282TIP3    H249338   4.838   0.773  16.668 -1.9341 -0.3200 -1.6573
 9283TIP3   OH249339   4.761   4.113  11.904 -0.0459 -0.1599  0.1880
 9283TIP3    H149340   4.747   4.180  11.837  0.0195 -0.0569  0.2766
 9283TIP3    H249341   4.816   4.156  11.969 -0.4258 -0.1393  0.4954
 9284TIP3   OH249342   5.765   6.670   1.342  0.6735  0.2247 -0.5431
 9284TIP3    H149343   5.833   6.633   1.287  0.9274 -0.4872  0.2383
 9284TIP3    H249344   5.753   6.759   1.308  1.6877  0.2176 -0.9568
 9285TIP3   OH249345   3.029   6.496   3.143  0.6346 -0.1424 -0.2424
 9285TIP3    H149346   3.039   6.418   3.197  4.7949  1.9609  2.5920
 9285TIP3    H249347   2.936   6.518   3.149 -0.0725 -3.0857  1.4107
 9286TIP3   OH249348   3.584   0.386  11.655  0.0317  0.1048 -0.3722
 9286TIP3    H149349   3.663   0.347  11.692  0.3467  0.3858 -0.7381
 9286TIP3    H249350   3.599   0.385  11.561 -0.6612 -0.3809 -0.4764
 9287TIP3   OH249351   1.152   0.351  11.999 -0.3600 -0.1739  0.4230
 9287TIP3    H149352   1.113   0.356  11.912  4.0340 -0.5553 -1.8772
 9287TIP3    H249353   1.164   0.257  12.015 -1.1845 -0.1107  1.5320
 9288TIP3   OH249354   3.741   5.729  13.219 -0.1669 -0.7953  0.2296
 9288TIP3    H149355   3.829   5.765  13.232 -1.2067  2.3283 -0.4875
 9288TIP3    H249356   3.755   5.635  13.208  3.2284 -0.2699 -1.2020
 9289TIP3   OH249357   1.220   3.074  13.920  0.1944 -0.5549 -0.0411
 9289TIP3    H149358   1.180   3.097  13.837  1.5566  0.8620 -0.3540
 9289TIP3    H249359   1.169   3.000  13.952 -1.5331  0.0842 -1.2137
 9290TIP3   OH249360   2.600   6.790   2.326 -0.8763  0.1825  0.7254
 9290TIP3    H149361   2.529   6.759   2.381 -0.3184  2.3397  2.8162
 9290TIP3    H249362   2.670   6.727   2.339 -1.6686 -0.8522  0.2121
 9291TIP3   OH249363   1.519   2.202   1.864 -0.1324  0.1460 -0.1962
 9291TIP3    H149364   1.566   2.281   1.838  1.0193 -0.6966 -0.8071
 9291TIP3    H249365   1.476   2.225   1.946  1.4898  0.9288  0.4818
 9292TIP3   OH249366   6.831   4.668  14.120  0.0301  0.1908  0.0979
 9292TIP3    H149367   6.808   4.614  14.195  1.3064 -0.9142 -0.2721
 9292TIP3    H249368   6.795   4.754  14.141 -0.5255 -0.3499  1.4978
 9293TIP3   OH249369   2.214   4.874   6.566 -0.1897 -0.1373 -0.4411
 9293TIP3    H149370   2.278   4.932   6.526  0.5804 -0.4335  0.3447
 9293TIP3    H249371   2.166   4.930   6.627  0.7956 -0.3851  0.5858
 9294TIP3   OH249372   2.074   4.839   2.599 -0.0030 -0.0096  0.0000
 9294TIP3    H149373   2.019   4.810   2.527 -1.8754 -0.8114  1.6634
 9294TIP3    H249374   2.033   4.921   2.629  0.3969  0.0059  0.5264
 9295TIP3   OH249375   4.946   3.670   3.361 -0.5788 -0.2810  0.3327
 9295TIP3    H149376   4.900   3.754   3.359  0.1296  0.3584  3.7145
 9295TIP3    H249377   5.035   3.691   3.334 -0.4551  0.0421  0.9714
 9296TIP3   OH249378   1.076   3.175  11.514  0.0835  0.0600  0.0837
 9296TIP3    H149379   1.159   3.132  11.532 -0.1320  0.3345  1.9701
 9296TIP3    H249380   1.100   3.264  11.489  0.3948 -0.1215 -0.2627
 9297TIP3   OH249381   6.039   4.798   0.162 -0.1505 -0.3307 -0.2607
 9297TIP3    H149382   6.024   4.756   0.246 -1.5414  0.2383 -0.1963
 9297TIP3    H249383   6.128   4.772   0.137  0.8964  0.7181  2.0855
 9298TIP3   OH249384   4.858   0.534  14.317 -0.3430  0.0061 -0.2528
 9298TIP3    H149385   4.801   0.491  14.253  1.4107 -2.1446 -0.4781
 9298TIP3    H249386   4.890   0.612  14.272 -1.6808  0.2997 -0.7564
 9299TIP3   OH249387   3.680   2.042  16.015 -0.0064 -0.0793  0.2651
 9299TIP3    H149388   3.594   2.079  15.996  0.5158  0.7852 -0.5618
 9299TIP3    H249389   3.738   2.086  15.952  0.9589 -0.9595  0.5256
 9300TIP3   OH249390   5.104   0.425  15.001  0.0467 -0.4702  0.1611
 9300TIP3    H149391   5.130   0.362  14.934  1.2529  0.6184 -0.4313
 9300TIP3    H249392   5.014   0.447  14.980 -0.2999 -1.7868  0.2187
 9301TIP3   OH249393   1.064   1.386  11.366 -0.2800 -0.6167 -0.1703
 9301TIP3    H149394   1.099   1.334  11.293 -0.6402 -0.4443 -0.4722
 9301TIP3    H249395   1.050   1.323  11.436  0.1465 -0.7722 -0.2206
 9302TIP3   OH249396   5.938   1.848  14.466  0.0120 -0.2579  0.3854
 9302TIP3    H149397   5.885   1.816  14.539 -1.2865  1.1591  0.1116
 9302TIP3    H249398   5.982   1.925  14.501  2.2923 -1.6165  0.7285
 9303TIP3   OH249399   6.776   2.611   0.407  0.1669  0.7679  0.0090
 9303TIP3    H149400   6.742   2.697   0.431  0.8146  1.2564 -0.7653
 9303TIP3    H249401   6.699   2.554   0.405 -0.0276  0.8311  2.5407
 9304TIP3   OH249402   0.139   3.592   3.889  0.4397 -0.4685  0.1911
 9304TIP3    H149403   0.183   3.668   3.927  1.8197 -1.1602  0.0734
 9304TIP3    H249404   0.066   3.628   3.839 -0.2304  0.5998  1.8782
 9305TIP3   OH249405   6.241   5.223   3.545 -0.4595 -0.5327 -0.4023
 9305TIP3    H149406   6.185   5.206   3.470 -0.9656 -2.1395  0.2904
 9305TIP3    H249407   6.257   5.136   3.583 -1.2589  0.2997  2.0573
 9306TIP3   OH249408   5.810   0.148   0.444  0.0596  0.0498 -0.0841
 9306TIP3    H149409   5.746   0.142   0.373  1.6871  0.9100 -1.7240
 9306TIP3    H249410   5.857   0.064   0.441  0.1302  0.0865 -0.0133
 9307TIP3   OH249411   1.686   6.619   5.002  0.3157 -0.8922  0.1365
 9307TIP3    H149412   1.654   6.535   5.035  1.7154 -1.6759 -0.4231
 9307TIP3    H249413   1.663   6.619   4.909  3.2751 -2.2467 -0.7170
 9308TIP3   OH249414   1.766   3.686   3.134 -0.6350 -0.1060 -0.0830
 9308TIP3    H149415   1.787   3.771   3.096 -0.4129  0.3570  1.0271
 9308TIP3    H249416   1.686   3.701   3.184 -1.1812 -0.8077 -0.7367
 9309TIP3   OH249417   6.612   5.196  13.724 -0.8433 -0.5171  0.0638
 9309TIP3    H149418   6.555   5.268  13.697  0.2926 -0.1656 -1.5634
 9309TIP3    H249419   6.609   5.134  13.651 -0.4284 -1.2810  0.6790
 9310TIP3   OH249420   0.313   1.104  16.561 -0.0438 -0.5165  0.2933
 9310TIP3    H149421   0.374   1.163  16.605 -1.0743 -0.1394  1.2414
 9310TIP3    H249422   0.369   1.050  16.505  1.0072  0.7504  0.0797
 9311TIP3   OH249423   1.010   1.005  11.993 -0.1407  0.6659  0.0650
 9311TIP3    H149424   0.997   1.100  11.995 -0.4435  0.6107  0.5898
 9311TIP3    H249425   0.954   0.975  11.921  0.9232  1.0265 -0.9635
 9312TIP3   OH249426   5.246   6.159   4.512  0.2940  0.1024 -0.1917
 9312TIP3    H149427   5.238   6.111   4.595 -1.9887 -0.8006 -0.8294
 9312TIP3    H249428   5.197   6.105   4.449  1.0873  1.2814 -1.9008
 9313TIP3   OH249429   0.910   3.613   1.391  0.8899 -0.2995 -0.4440
 9313TIP3    H149430   0.843   3.563   1.343  2.0828 -0.6665 -1.8055
 9313TIP3    H249431   0.860   3.667   1.452 -0.6020 -1.1620 -0.8476
 9314TIP3   OH249432   6.658   6.364  14.638  0.5204  0.7206 -0.0130
 9314TIP3    H149433   6.712   6.309  14.581 -0.6988  0.1694 -0.6912
 9314TIP3    H249434   6.628   6.305  14.707  1.0917  1.1184  0.5838
 9315TIP3   OH249435   4.283   5.288  12.979 -0.5265  0.2302  0.0289
 9315TIP3    H149436   4.213   5.279  12.914 -0.5331  1.6157 -0.1902
 9315TIP3    H249437   4.288   5.382  12.995  0.2102 -0.0027  1.2435
 9316TIP3   OH249438   1.523   0.480  16.116  0.1119 -0.5522 -0.3452
 9316TIP3    H149439   1.592   0.477  16.182  0.2905 -0.6054 -0.5363
 9316TIP3    H249440   1.568   0.471  16.032 -0.3513 -3.7442 -0.3671
 9317TIP3   OH249441   5.786   1.248   3.228 -0.1043 -0.6483 -0.6029
 9317TIP3    H149442   5.785   1.341   3.204 -0.5874 -0.1486  1.1410
 9317TIP3    H249443   5.865   1.238   3.281  1.9316 -2.1252 -3.6958
 9318TIP3   OH249444   3.668   3.457   4.264  0.0313  0.0694 -0.1614
 9318TIP3    H149445   3.667   3.534   4.322  0.8296  0.3321 -0.4847
 9318TIP3    H249446   3.628   3.388   4.316  1.0024  0.2219  0.8319
 9319TIP3   OH249447   4.849   0.595  11.541 -0.2247  0.0038 -0.1336
 9319TIP3    H149448   4.887   0.537  11.606  0.5366 -0.3313 -0.8555
 9319TIP3    H249449   4.924   0.640  11.502 -0.7926  1.3203  0.2666
 9320TIP3   OH249450   2.747   5.610   4.133  0.1312 -0.2123  0.0924
 9320TIP3    H149451   2.839   5.613   4.159  0.4091 -1.2826 -0.6831
 9320TIP3    H249452   2.729   5.517   4.120 -1.2975 -0.1042  0.9984
 9321TIP3   OH249453   3.659   6.655   4.987  0.0569  0.3145  0.1440
 9321TIP3    H149454   3.582   6.708   5.007 -0.6052  0.1495 -1.7992
 9321TIP3    H249455   3.729   6.719   4.973  0.5730  0.4437  2.7707
 9322TIP3   OH249456   3.987   3.721  15.691 -0.2901  0.1177  0.4481
 9322TIP3    H149457   4.039   3.699  15.614 -0.0905  0.0841  0.5913
 9322TIP3    H249458   3.897   3.725  15.659 -0.0851  1.2174 -0.0090
 9323TIP3   OH249459   1.096   0.822   1.646  0.0383 -0.2024 -0.0281
 9323TIP3    H149460   1.033   0.751   1.658  0.2019 -0.4398 -0.5301
 9323TIP3    H249461   1.144   0.798   1.566  0.6158  0.0835  0.2270
 9324TIP3   OH249462   0.137   3.295   2.886  0.0194  0.1026  0.0215
 9324TIP3    H149463   0.045   3.274   2.871 -0.5813  2.3259  0.1187
 9324TIP3    H249464   0.135   3.385   2.919  2.2505  0.2744 -0.1716
 9325TIP3   OH249465   6.056   1.600   4.702  0.0179  0.6040 -0.2805
 9325TIP3    H149466   6.128   1.564   4.651  0.8340  0.5265  0.8975
 9325TIP3    H249467   5.982   1.543   4.682  0.4904  0.1718 -0.8485
 9326TIP3   OH249468   6.259   0.465  13.903  0.2638  0.4653 -0.8296
 9326TIP3    H149469   6.185   0.459  13.842 -0.0416 -1.9554 -0.3337
 9326TIP3    H249470   6.337   0.457  13.849  0.0602  0.1706 -1.0786
 9327TIP3   OH249471   1.205   5.751  11.029  0.4305 -0.5198  0.0414
 9327TIP3    H149472   1.243   5.665  11.043  1.5318 -0.2050 -0.8902
 9327TIP3    H249473   1.142   5.738  10.958  0.5718 -0.5678 -0.0760
 9328TIP3   OH249474   1.008   3.617  15.891  0.2029  0.0981 -0.5850
 9328TIP3    H149475   1.016   3.583  15.802  0.7228  1.3666 -1.0505
 9328TIP3    H249476   1.026   3.710  15.882  2.4315 -0.0640  1.1439
 9329TIP3   OH249477   1.335   1.562   5.284  0.2353 -0.3241  0.5396
 9329TIP3    H149478   1.300   1.512   5.210 -0.2933 -0.4309  0.8587
 9329TIP3    H249479   1.262   1.568   5.346  0.6360 -0.1223  0.9962
 9330TIP3   OH249480   4.856   1.476   0.949 -0.4360 -0.0066  0.5401
 9330TIP3    H149481   4.820   1.551   0.997  0.6271  0.5008  0.5723
 9330TIP3    H249482   4.822   1.485   0.860  0.3574  1.0052  0.3241
 9331TIP3   OH249483   5.701   2.412   3.819  0.2068  0.3948  0.2526
 9331TIP3    H149484   5.781   2.455   3.848  1.6836 -0.7713 -1.7505
 9331TIP3    H249485   5.712   2.404   3.724 -3.0496  1.6158 -0.3667
 9332TIP3   OH249486   3.489   6.727  12.706  0.0970  0.9102 -0.1080
 9332TIP3    H149487   3.538   6.689  12.634  2.8543  3.0989  0.4331
 9332TIP3    H249488   3.548   6.720  12.782 -1.4330  1.4385  1.2003
 9333TIP3   OH249489   1.793   1.176   5.678  0.1750 -0.2704  0.1237
 9333TIP3    H149490   1.826   1.158   5.766 -2.9946 -1.1264  1.2765
 9333TIP3    H249491   1.756   1.092   5.650 -0.2797  0.4057 -1.3643
 9334TIP3   OH249492   6.003   3.923   4.782  0.4631  0.1604  0.0139
 9334TIP3    H149493   5.996   3.979   4.859  0.8969 -1.3654  1.1960
 9334TIP3    H249494   6.010   3.985   4.709 -2.0214  1.6829  0.9275
 9335TIP3   OH249495   0.723   0.407  12.295  0.1869 -0.0373  0.2965
 9335TIP3    H149496   0.679   0.419  12.211 -1.1464 -0.4851  0.9074
 9335TIP3    H249497   0.748   0.495  12.322  0.7321  0.0947 -0.6171
 9336TIP3   OH249498   3.246   1.889  13.114 -0.1927 -0.0133 -0.1719
 9336TIP3    H149499   3.168   1.935  13.146 -0.3842 -1.1442  1.0653
 9336TIP3    H249500   3.211   1.812  13.068  0.1499 -1.5847  2.0420
 9337TIP3   OH249501   1.534   0.066  11.797  0.2674  0.0469  0.0549
 9337TIP3    H149502   1.565   0.088  11.885  2.5048 -0.3672 -0.5562
 9337TIP3    H249503   1.585  -0.012  11.773  0.5392  0.7886 -2.0084
 9338TIP3   OH249504   3.937   4.510   0.140  0.1847  0.0206 -0.1233
 9338TIP3    H149505   3.941   4.422   0.179 -0.2479 -0.4410 -1.0826
 9338TIP3    H249506   4.028   4.532   0.120  0.4433  0.3547  1.2980
 9339TIP3   OH249507   4.724   5.537  14.006 -0.0472 -0.6418 -0.1279
 9339TIP3    H149508   4.804   5.512  13.959  0.4330 -1.1588  0.9489
 9339TIP3    H249509   4.751   5.610  14.062 -0.1739 -1.1991  0.6763
 9340TIP3   OH249510   0.878   2.641   2.314  0.5258 -0.5010  0.4980
 9340TIP3    H149511   0.884   2.571   2.379  4.9145  0.3010  1.3059
 9340TIP3    H249512   0.903   2.600   2.231 -0.1251 -0.5138  0.3016
 9341TIP3   OH249513   1.933   2.901  15.277 -0.1626 -0.0745 -0.0040
 9341TIP3    H149514   1.907   2.977  15.329  0.4795  0.7459 -0.8478
 9341TIP3    H249515   1.851   2.855  15.258 -0.7009  1.0443 -0.4583
 9342TIP3   OH249516   1.305   2.776  16.396 -0.4036 -0.1948  0.1116
 9342TIP3    H149517   1.222   2.808  16.362 -0.1219  1.1913  0.6630
 9342TIP3    H249518   1.292   2.682  16.407 -1.7111 -0.0850 -0.3135
 9343TIP3   OH249519   4.599   4.827  15.421 -0.5641  0.5185  0.3649
 9343TIP3    H149520   4.521   4.842  15.368  0.0478 -0.2460 -0.7897
 9343TIP3    H249521   4.606   4.905  15.476 -2.4426  0.3587  0.9021
 9344TIP3   OH249522   0.592   4.223  10.984 -0.4386  0.1394  0.8498
 9344TIP3    H149523   0.593   4.138  11.028 -1.5031 -0.2652  0.1102
 9344TIP3    H249524   0.519   4.219  10.923 -0.1202  1.3644  0.3447
 9345TIP3   OH249525   6.718   3.782   2.571 -0.2097 -0.4073  0.9996
 9345TIP3    H149526   6.626   3.762   2.553 -0.3759 -1.0189  2.4384
 9345TIP3    H249527   6.765   3.754   2.492 -1.0755 -1.5220  0.8681
 9346TIP3   OH249528   1.779   1.521  12.426  0.0403 -0.1220  0.8043
 9346TIP3    H149529   1.774   1.437  12.379 -0.0155  0.1900  0.2325
 9346TIP3    H249530   1.866   1.555  12.405  0.3307 -0.3604  1.6118
 9347TIP3   OH249531   2.664   3.512  11.208  0.2022 -0.4743  0.1863
 9347TIP3    H149532   2.580   3.505  11.161  0.1746 -0.7210  0.2716
 9347TIP3    H249533   2.719   3.565  11.150  0.0843 -0.5635 -0.0101
 9348TIP3   OH249534   0.436   0.599   4.211  0.0351 -0.3756 -0.3004
 9348TIP3    H149535   0.503   0.532   4.220 -0.7435 -1.3645 -1.4843
 9348TIP3    H249536   0.453   0.639   4.125  0.3876  0.8406  0.3139
 9349TIP3   OH249537   3.447   4.863  16.026 -0.2765 -0.4531  0.3734
 9349TIP3    H149538   3.447   4.955  16.001  0.6604 -0.5900 -0.1697
 9349TIP3    H249539   3.381   4.822  15.968 -0.1043 -0.2700  0.0465
 9350TIP3   OH249540   2.882   1.634  15.781  0.2544  0.0651 -0.5701
 9350TIP3    H149541   2.881   1.565  15.848  1.3914 -0.0690 -0.6715
 9350TIP3    H249542   2.849   1.591  15.702 -1.7565  0.4020  0.0331
 9351TIP3   OH249543   6.073   0.992   4.304 -0.1617  0.3392  0.3232
 9351TIP3    H149544   6.110   0.918   4.353 -0.3339  1.0332  1.5237
 9351TIP3    H249545   5.993   1.014   4.351 -1.4431 -0.2688 -1.4550
 9352TIP3   OH249546   5.515   0.819   5.791 -0.5171  0.2561 -0.0802
 9352TIP3    H149547   5.578   0.868   5.739  1.2011 -0.7384  0.9832
 9352TIP3    H249548   5.496   0.876   5.866 -1.5225  0.8756 -0.7748
 9353TIP3   OH249549   5.557   0.941   0.165 -0.4558 -0.5716 -0.1908
 9353TIP3    H149550   5.527   0.856   0.132 -0.5153 -0.8315  0.5315
 9353TIP3    H249551   5.559   0.996   0.087  1.1935 -1.6653 -0.9997
 9354TIP3   OH249552   2.866   6.175   2.351 -0.0962  0.0595  0.6122
 9354TIP3    H149553   2.900   6.092   2.316 -0.5471 -0.7011  1.8842
 9354TIP3    H249554   2.785   6.190   2.303 -0.2682 -0.5095  0.7168
 9355TIP3   OH249555   1.751   0.927   5.551  0.0619 -0.8878 -0.6286
 9355TIP3    H149556   1.682   0.916   5.486 -1.2409 -1.6039  0.7985
 9355TIP3    H249557   1.762   0.840   5.589  1.9118 -0.8248 -0.9361
 9356TIP3   OH249558   0.278   3.849  11.051 -0.3638  0.1066 -0.4506
 9356TIP3    H149559   0.325   3.867  10.970 -2.6580  0.2315 -1.8631
 9356TIP3    H249560   0.304   3.760  11.075  2.0305  0.8511 -0.0071
 9357TIP3   OH249561   3.712   5.347   4.296  0.0156  0.6953 -0.5405
 9357TIP3    H149562   3.708   5.302   4.380 -0.0556  1.0068 -0.3721
 9357TIP3    H249563   3.717   5.277   4.231  0.7372  0.4633 -0.2468
 9358TIP3   OH249564   3.503   3.775  13.367 -0.4475 -0.0165  0.2467
 9358TIP3    H149565   3.432   3.839  13.369 -0.4748 -0.0615  0.7451
 9358TIP3    H249566   3.486   3.717  13.441 -2.0047 -2.3134 -1.7407
 9359TIP3   OH249567   6.022   1.982  16.552  0.5630 -0.2560  0.4791
 9359TIP3    H149568   6.102   1.944  16.517  0.4871  0.5643 -0.6198
 9359TIP3    H249569   5.971   2.007  16.475 -0.9555 -1.1607  1.1538
 9360TIP3   OH249570   4.434   5.035  13.030  0.4203 -0.2124 -0.2016
 9360TIP3    H149571   4.463   4.956  12.984 -1.2235 -1.9148  1.4979
 9360TIP3    H249572   4.344   5.048  13.000  0.5820  0.9036 -0.2676
 9361TIP3   OH249573   4.803   3.106  12.023  0.3534  0.1167 -0.2206
 9361TIP3    H149574   4.812   3.184  11.969  3.4560  0.4004  0.5198
 9361TIP3    H249575   4.818   3.136  12.112  0.4346 -1.1541  0.2228
 9362TIP3   OH249576   3.967   1.898  12.259  0.0842  0.9173  0.0668
 9362TIP3    H149577   3.985   1.812  12.221  2.3949  1.5351 -0.3512
 9362TIP3    H249578   4.050   1.945  12.255 -1.2674  3.4595 -0.3641
 9363TIP3   OH249579   2.432   3.314  15.136 -0.5395 -0.4278 -0.6753
 9363TIP3    H149580   2.399   3.351  15.218  0.5239 -0.6258 -0.1345
 9363TIP3    H249581   2.366   3.337  15.071 -1.7800 -0.9129  0.3693
 9364TIP3   OH249582   1.967   2.150  13.778 -0.4369  0.3779 -0.1225
 9364TIP3    H149583   2.053   2.110  13.794 -1.1811 -0.2463  3.0990
 9364TIP3    H249584   1.987   2.240  13.750  1.2610  0.0535 -0.0531
 9365TIP3   OH249585   1.446   2.982   5.301  0.0350  0.3204  0.5069
 9365TIP3    H149586   1.416   2.926   5.372  1.8119 -0.9319  0.3225
 9365TIP3    H249587   1.537   2.957   5.287 -0.6587 -0.6299 -3.3033
 9366TIP3   OH249588   5.197   5.687   6.077 -0.3448 -0.3285  0.8622
 9366TIP3    H149589   5.140   5.733   6.016  1.5651  0.5781 -0.3044
 9366TIP3    H249590   5.138   5.662   6.149 -1.8557  2.2058  0.6479
 9367TIP3   OH249591   3.918   2.412   1.491 -0.3352  0.2530  0.1848
 9367TIP3    H149592   3.924   2.507   1.483  3.2709  0.1624  0.2061
 9367TIP3    H249593   3.958   2.378   1.411  2.2169 -1.0840  1.8808
 9368TIP3   OH249594   4.146   3.804   2.029 -0.2364  0.4715  0.1555
 9368TIP3    H149595   4.125   3.857   2.106  2.3189  0.5959  0.8607
 9368TIP3    H249596   4.179   3.721   2.065  0.6664  0.4019 -0.7824
 9369TIP3   OH249597   6.151   5.080  13.842 -0.1311 -0.2144 -0.1691
 9369TIP3    H149598   6.131   5.169  13.813  1.5768 -0.2098 -1.5147
 9369TIP3    H249599   6.068   5.045  13.874 -1.1490  1.3374 -1.0298
 9370TIP3   OH249600   1.960   1.733   4.120  0.2480  0.0478 -0.1097
 9370TIP3    H149601   1.912   1.714   4.039  1.4199 -1.1774 -0.5342
 9370TIP3    H249602   1.960   1.829   4.126 -2.9388  0.1387  0.3494
 9371TIP3   OH249603   4.372   3.512   0.947 -0.6606  0.4144  0.0154
 9371TIP3    H149604   4.335   3.462   0.874  0.2515 -1.2063  0.6143
 9371TIP3    H249605   4.299   3.564   0.981 -1.0762  1.3467 -2.1126
 9372TIP3   OH249606   3.316   5.164   0.679 -0.1883  0.2807 -0.0339
 9372TIP3    H149607   3.307   5.164   0.774  0.5123 -0.4480  0.0523
 9372TIP3    H249608   3.289   5.076   0.653  1.9744 -0.4060 -0.2132
 9373TIP3   OH249609   6.020   2.781  16.713 -0.1706 -0.1888  0.2360
 9373TIP3    H149610   5.928   2.793  16.733  0.1061 -0.9303  2.1904
 9373TIP3    H249611   6.059   2.868  16.725 -0.7111  0.3143 -1.4246
 9374TIP3   OH249612   3.156   1.987  16.545 -0.2564 -0.1484 -0.4688
 9374TIP3    H149613   3.093   1.956  16.609 -0.4844 -1.4648 -1.2994
 9374TIP3    H249614   3.104   2.008  16.467  0.3206 -1.5874 -1.2854
 9375TIP3   OH249615   2.343   0.857  11.449  0.0955  0.1155  0.1192
 9375TIP3    H149616   2.378   0.799  11.381  0.3861  0.5907 -0.1439
 9375TIP3    H249617   2.365   0.945  11.419  0.1020  0.3390  0.7601
 9376TIP3   OH249618   0.309   2.615  11.789  0.0273 -0.0577 -0.5057
 9376TIP3    H149619   0.267   2.700  11.776  0.2157  0.1245  0.0339
 9376TIP3    H249620   0.402   2.635  11.795  0.1249 -0.3703 -0.9241
 9377TIP3   OH249621   1.148   3.434  13.021  0.4809 -0.2136  0.6144
 9377TIP3    H149622   1.133   3.473  12.935  1.0169  0.9566  1.0337
 9377TIP3    H249623   1.063   3.439  13.065  0.9787  2.4558  1.4197
 9378TIP3   OH249624   5.174   4.834  13.430 -0.5420  0.5728  0.0586
 9378TIP3    H149625   5.122   4.781  13.490 -0.1602  1.0440  0.8144
 9378TIP3    H249626   5.264   4.804  13.445 -0.4089  0.9272 -0.0373
 9379TIP3   OH249627   2.432   0.369  17.175  0.1677 -0.3962  0.2750
 9379TIP3    H149628   2.516   0.371  17.220 -0.1041 -0.0337  0.7726
 9379TIP3    H249629   2.391   0.288  17.205  0.6386 -0.9537 -0.5371
 9380TIP3   OH249630   4.226   3.234  15.509  0.1651 -0.2356  0.2820
 9380TIP3    H149631   4.243   3.183  15.588  0.4188  0.5291  0.7376
 9380TIP3    H249632   4.133   3.256  15.515  0.0292 -0.7527  0.0244
 9381TIP3   OH249633   6.719   3.223  16.437 -0.0629 -0.2238 -0.4896
 9381TIP3    H149634   6.685   3.270  16.514 -1.2622 -0.4913 -0.8340
 9381TIP3    H249635   6.771   3.152  16.474 -0.3520 -0.1502  0.0802
 9382TIP3   OH249636   1.086   4.475  12.029 -0.7684 -0.1149 -0.0671
 9382TIP3    H149637   1.167   4.485  12.079  0.6211 -1.2269 -1.9775
 9382TIP3    H249638   1.110   4.495  11.939 -2.9041  0.6056 -0.5332
 9383TIP3   OH249639   5.266   2.664  15.331 -0.2775 -0.4247 -0.2903
 9383TIP3    H149640   5.350   2.709  15.343 -1.6529  2.2745  0.1162
 9383TIP3    H249641   5.260   2.602  15.403  0.4599  0.9082  0.9551
 9384TIP3   OH249642   3.352   5.473  16.646  0.4207  0.3315 -0.3331
 9384TIP3    H149643   3.402   5.400  16.608  0.3074 -0.8711  1.6491
 9384TIP3    H249644   3.293   5.501  16.576 -1.2235 -3.0784 -0.5445
 9385TIP3   OH249645   2.417   6.608   2.728  0.7143 -0.3428  0.6946
 9385TIP3    H149646   2.407   6.698   2.700  2.1386 -0.2104  0.5147
 9385TIP3    H249647   2.442   6.613   2.820  0.1021 -0.5875  0.8779
 9386TIP3   OH249648   0.044   0.168   0.728 -0.3570  0.8823  0.2986
 9386TIP3    H149649   0.030   0.115   0.650  3.6694  0.7428 -0.5447
 9386TIP3    H249650   0.103   0.238   0.699  0.1403  1.6493  2.9149
 9387TIP3   OH249651   6.302   3.218   0.975 -0.1268 -0.6088  0.1587
 9387TIP3    H149652   6.237   3.193   0.910 -0.2387 -1.4373  0.5765
 9387TIP3    H249653   6.355   3.139   0.988  1.4177  0.2397 -0.6740
 9388TIP3   OH249654   2.132   3.542  10.762  0.0424 -0.2882  0.0652
 9388TIP3    H149655   2.213   3.585  10.790 -0.1967 -0.1079  0.5039
 9388TIP3    H249656   2.112   3.481  10.834  0.9570 -1.9469 -1.0353
 9389TIP3   OH249657   1.902   0.126   5.658 -0.1092 -0.4611 -0.4639
 9389TIP3    H149658   1.992   0.095   5.648 -0.0825 -0.2710 -0.8257
 9389TIP3    H249659   1.853   0.081   5.589 -0.0762  0.2618 -0.9753
 9390TIP3   OH249660   6.116   3.986   2.860 -0.2542 -0.1123  0.2339
 9390TIP3    H149661   6.149   3.921   2.798  1.2000  0.6951  0.1128
 9390TIP3    H249662   6.064   3.936   2.922  2.7424 -1.8375  1.5430
 9391TIP3   OH249663   5.305   3.985  16.306  0.3047  0.1368 -0.1471
 9391TIP3    H149664   5.305   4.004  16.400 -0.7269  0.3712 -0.1845
 9391TIP3    H249665   5.248   4.052  16.268  1.5841  0.7148 -1.0909
 9392TIP3   OH249666   3.980   0.055  12.645 -0.3160  0.2510 -0.3477
 9392TIP3    H149667   4.033   0.000  12.587 -0.1268  0.0568  0.0062
 9392TIP3    H249668   3.905   0.000  12.667 -0.6248  0.4934 -0.7773
 9393TIP3   OH249669   2.013   6.068   2.356 -0.7619 -0.0850 -0.1819
 9393TIP3    H149670   2.078   6.078   2.287 -0.3520  1.7695  0.4108
 9393TIP3    H249671   2.060   6.093   2.436 -1.4600 -1.3594  0.6561
 9394TIP3   OH249672   2.082   0.523  14.567 -0.1656 -0.0513  0.8494
 9394TIP3    H149673   2.157   0.564  14.609  1.5461 -2.0929  0.0051
 9394TIP3    H249674   2.029   0.596  14.536  0.8179  1.4683  2.5509
 9395TIP3   OH249675   4.225   5.479  10.872 -0.2004 -0.2728  0.3251
 9395TIP3    H149676   4.250   5.569  10.893 -0.0431 -0.1930 -0.1869
 9395TIP3    H249677   4.164   5.455  10.941  1.0453 -0.3705  1.4348
 9396TIP3   OH249678   2.845   0.641   3.555  0.0048 -0.5145  0.1762
 9396TIP3    H149679   2.887   0.659   3.639 -0.5068 -1.9137  0.7660
 9396TIP3    H249680   2.817   0.727   3.523  0.1479  0.0363  1.4752
 9397TIP3   OH249681   0.544   1.849  11.719 -0.8335  0.0966 -0.0734
 9397TIP3    H149682   0.528   1.939  11.689 -1.7161  0.5980  1.7855
 9397TIP3    H249683   0.470   1.829  11.776 -0.6284 -1.8140 -0.4103
 9398TIP3   OH249684   2.523   6.375  11.729 -0.2011  0.5839  0.3249
 9398TIP3    H149685   2.491   6.299  11.779 -1.0469  0.5950 -0.1812
 9398TIP3    H249686   2.609   6.394  11.767  0.1461 -0.7982  0.2911
 9399TIP3   OH249687   0.019   4.458  14.344 -0.2039  0.4426 -0.2683
 9399TIP3    H149688   0.096   4.515  14.342 -0.1966  0.5118  1.0076
 9399TIP3    H249689   0.048   4.381  14.393 -0.0055 -1.0180 -2.5113
 9400TIP3   OH249690   1.888   0.720  13.033 -0.4746 -0.0443  0.3111
 9400TIP3    H149691   1.803   0.744  13.069  1.1632  2.0013  3.2571
 9400TIP3    H249692   1.921   0.654  13.094  0.2948 -0.3914 -0.4647
 9401TIP3   OH249693   2.168   1.814   4.352 -0.1312  0.3827 -0.1197
 9401TIP3    H149694   2.261   1.796   4.338 -0.8306 -2.2673 -2.0625
 9401TIP3    H249695   2.141   1.862   4.273 -0.7245 -0.2504 -0.3077
 9402TIP3   OH249696   4.505   4.381   2.776 -0.3041  0.4133 -0.3978
 9402TIP3    H149697   4.410   4.368   2.778 -0.1185 -1.3622 -0.7980
 9402TIP3    H249698   4.539   4.299   2.739  1.3716  1.0996 -0.4649
 9403TIP3   OH249699   2.820   3.585   4.853 -0.2370  0.0431 -0.5058
 9403TIP3    H149700   2.866   3.629   4.925  0.0818 -0.5315 -0.3555
 9403TIP3    H249701   2.728   3.585   4.881  0.0977 -1.6645  0.7049
 9404TIP3   OH249702   0.988   0.161  13.275  0.7298  0.1389  0.7080
 9404TIP3    H149703   0.978   0.174  13.369 -0.0790 -0.7520  0.7647
 9404TIP3    H249704   0.962   0.244  13.236 -1.6610 -0.3113  1.1644
 9405TIP3   OH249705   3.023   3.458   2.678 -0.7430 -0.5238  0.2810
 9405TIP3    H149706   3.014   3.379   2.732  1.0572 -0.2276  1.0820
 9405TIP3    H249707   3.099   3.441   2.623 -0.5852  0.4867  0.1756
 9406TIP3   OH249708   5.558   4.436  14.315 -0.3959 -0.2750  0.5226
 9406TIP3    H149709   5.554   4.357  14.369  0.4930 -0.4620  0.3414
 9406TIP3    H249710   5.637   4.481  14.346 -0.9550  0.5942  0.6937
 9407TIP3   OH249711   6.206   2.870   3.748 -0.3633  0.1685  0.4495
 9407TIP3    H149712   6.295   2.893   3.721 -0.7985  5.0181  2.0607
 9407TIP3    H249713   6.156   2.867   3.667  0.8810 -0.8973 -0.3265
 9408TIP3   OH249714   2.080   4.840   5.148 -0.0171  0.4140 -0.0556
 9408TIP3    H149715   2.134   4.895   5.092 -0.3099  0.3031 -0.4518
 9408TIP3    H249716   1.995   4.836   5.103 -0.1157 -0.0458  0.1633
 9409TIP3   OH249717   4.135   2.182  12.563  0.0541 -0.2519  0.1139
 9409TIP3    H149718   4.151   2.145  12.476 -0.0080  1.5038 -0.7077
 9409TIP3    H249719   4.192   2.259  12.566 -2.0851  1.4249  0.4270
 9410TIP3   OH249720   2.757   5.972  11.197  0.1624 -0.2588 -0.2420
 9410TIP3    H149721   2.843   5.973  11.155  0.1742  2.0389 -0.2623
 9410TIP3    H249722   2.695   5.974  11.124  0.0795 -1.0373 -0.2051
 9411TIP3   OH249723   3.946   6.253   6.630 -0.0745  0.3162  0.4284
 9411TIP3    H149724   3.934   6.298   6.714 -0.4003  1.1435 -0.0417
 9411TIP3    H249725   4.040   6.257   6.614 -0.0985  0.8748  0.3850
 9412TIP3   OH249726   5.217   3.043  14.960  0.2606 -0.0297 -0.1160
 9412TIP3    H149727   5.287   3.066  14.899  1.0232 -0.9552  0.3764
 9412TIP3    H249728   5.233   2.951  14.980  0.0240  0.2581  1.4816
 9413TIP3   OH249729   3.513   2.052   1.155  0.6059 -0.1169  0.1438
 9413TIP3    H149730   3.526   2.023   1.245 -0.1107 -0.2085  0.2190
 9413TIP3    H249731   3.582   2.007   1.106  1.0258 -0.0365  0.6404
 9414TIP3   OH249732   4.931   1.772  16.416  0.4454 -0.3740  0.6071
 9414TIP3    H149733   4.955   1.772  16.323  1.7611  0.2585  0.9168
 9414TIP3    H249734   4.883   1.691  16.428  1.0874 -0.9370 -0.4366
 9415TIP3   OH249735   3.143   0.620   1.294 -0.5886 -0.1219  0.2978
 9415TIP3    H149736   3.154   0.529   1.323  0.0727  0.2700  1.3469
 9415TIP3    H249737   3.185   0.623   1.209  1.3624 -0.3252  1.1931
 9416TIP3   OH249738   2.768   1.043   4.441  0.4219 -0.3856 -0.0768
 9416TIP3    H149739   2.840   1.034   4.379  0.5472  2.8636 -0.5660
 9416TIP3    H249740   2.810   1.073   4.522 -0.3802  3.2802 -0.8661
 9417TIP3   OH249741   2.735   6.373  13.264 -0.4005  0.0371 -0.0341
 9417TIP3    H149742   2.656   6.397  13.313  0.5812 -0.7465  2.0150
 9417TIP3    H249743   2.792   6.450  13.272 -1.1521  0.8884 -2.1142
 9418TIP3   OH249744   5.568   3.800  14.568 -0.8155 -0.1933  0.0364
 9418TIP3    H149745   5.593   3.834  14.654  0.5047 -1.7590  0.3311
 9418TIP3    H249746   5.567   3.705  14.580  0.5363 -0.5133 -1.9431
 9419TIP3   OH249747   5.329   4.648  15.092  0.0981 -0.9620  0.1348
 9419TIP3    H149748   5.339   4.565  15.139 -0.6962 -0.5825  1.0211
 9419TIP3    H249749   5.350   4.715  15.157 -2.7920 -0.3331  0.5952
 9420TIP3   OH249750   6.446   1.318   4.382  0.2323 -0.5757  0.3549
 9420TIP3    H149751   6.412   1.330   4.293  0.6397  2.4142  0.5069
 9420TIP3    H249752   6.530   1.275   4.369  0.5458  0.3201 -0.8033
 9421TIP3   OH249753   5.079   0.267  11.457 -0.0649 -0.3589 -0.4492
 9421TIP3    H149754   5.152   0.219  11.496 -0.2619 -0.5170 -0.2722
 9421TIP3    H249755   5.120   0.340  11.411  0.1424  0.0534  0.3743
 9422TIP3   OH249756   2.792   1.018   2.484 -0.0966  0.2144 -0.2127
 9422TIP3    H149757   2.708   0.978   2.462 -0.5082  0.0359  1.5243
 9422TIP3    H249758   2.850   0.992   2.413 -0.9794 -1.4497 -0.3890
 9423TIP3   OH249759   1.943   2.591   4.004 -0.1783 -1.0685  0.1345
 9423TIP3    H149760   1.849   2.572   4.001  0.1059 -2.4682 -0.8364
 9423TIP3    H249761   1.963   2.601   4.097 -1.3812 -0.1968  0.3141
 9424TIP3   OH249762   4.905   0.894  15.841 -0.0020 -0.0383 -0.2026
 9424TIP3    H149763   4.812   0.914  15.852  0.0017  0.8084 -1.5718
 9424TIP3    H249764   4.912   0.801  15.864 -1.4885 -0.5469 -1.6563
 9425TIP3   OH249765   5.601   0.722   4.485 -0.1096  0.3796  0.5952
 9425TIP3    H149766   5.614   0.811   4.519  1.0533  0.5580 -0.2694
 9425TIP3    H249767   5.535   0.732   4.416  1.2449  0.8861 -0.6717
 9426TIP3   OH249768   2.359   6.069  14.316 -0.2109 -0.8922  0.1404
 9426TIP3    H149769   2.330   6.069  14.408  1.1971  0.8245  0.6312
 9426TIP3    H249770   2.320   6.147  14.278 -0.2429 -1.2394 -0.5561
 9427TIP3   OH249771   2.887   1.052  12.903  0.1770 -0.1902 -1.2595
 9427TIP3    H149772   2.901   0.995  12.827 -1.6801  0.0484 -1.8266
 9427TIP3    H249773   2.893   1.140  12.868 -0.6107 -0.0778 -1.1304
 9428TIP3   OH249774   2.984   4.964  16.162  0.7885  0.3496 -0.2470
 9428TIP3    H149775   2.968   4.946  16.070  1.6957  1.5434 -0.6594
 9428TIP3    H249776   2.896   4.970  16.200  0.4132 -1.7551 -0.6632
 9429TIP3   OH249777   4.337   4.114   1.083 -0.4288 -0.0404 -0.3373
 9429TIP3    H149778   4.312   4.028   1.049  1.5583 -0.8318  0.0365
 9429TIP3    H249779   4.400   4.147   1.020  2.0793 -0.8217  1.5866
 9430TIP3   OH249780   0.775   2.950  12.998 -0.1658  0.3083 -0.0193
 9430TIP3    H149781   0.839   2.929  12.930 -0.9108 -0.4316 -0.5128
 9430TIP3    H249782   0.804   3.034  13.033  0.4433  0.5268 -0.9989
 9431TIP3   OH249783   1.660   3.611  16.234  0.1021 -0.6908 -0.3354
 9431TIP3    H149784   1.666   3.570  16.320 -0.4234  1.1360  0.6306
 9431TIP3    H249785   1.655   3.705  16.252 -3.5864 -0.3578 -2.0991
 9432TIP3   OH249786   5.590   2.231   5.718 -0.1698 -0.1970 -0.1054
 9432TIP3    H149787   5.550   2.156   5.762 -2.8071 -1.6906 -4.4677
 9432TIP3    H249788   5.561   2.307   5.769 -1.3982 -1.8377  1.7550
 9433TIP3   OH249789   1.828   2.026  16.765 -0.2141 -0.0127 -0.1670
 9433TIP3    H149790   1.877   2.092  16.717  1.4132 -1.1321 -0.1122
 9433TIP3    H249791   1.804   1.960  16.700 -0.1846 -0.3014  0.1093
 9434TIP3   OH249792   1.030   1.593  13.584 -0.5000 -0.1264 -0.0722
 9434TIP3    H149793   1.119   1.602  13.616 -0.8521  0.3608  0.7894
 9434TIP3    H249794   0.977   1.644  13.645 -1.4071 -0.6611 -0.3928
 9435TIP3   OH249795   4.896   2.219   3.055 -0.1849 -0.6035  0.4375
 9435TIP3    H149796   4.949   2.186   2.983 -0.9021 -1.1633  0.1488
 9435TIP3    H249797   4.942   2.191   3.134 -0.5055 -1.9014  0.1989
 9436TIP3   OH249798   5.968   4.580  13.189  0.3498  0.7046 -0.1412
 9436TIP3    H149799   6.021   4.500  13.194  0.0014  0.4907  0.2016
 9436TIP3    H249800   6.016   4.637  13.129 -0.0847 -0.2921 -1.4698
 9437TIP3   OH249801   2.224   1.074  16.388 -0.1840  0.0959  0.7259
 9437TIP3    H149802   2.181   1.004  16.339 -1.2096  0.2952  1.3008
 9437TIP3    H249803   2.178   1.076  16.472  0.6666  0.6323  1.1924
 9438TIP3   OH249804   5.826   0.964  15.731  0.3726 -0.2593  0.1291
 9438TIP3    H149805   5.894   0.993  15.792  1.2386 -0.2738 -0.8145
 9438TIP3    H249806   5.866   0.892  15.682 -0.4815 -0.5688 -0.1350
 9439TIP3   OH249807   2.219   6.286   3.859 -0.3337  0.1598  0.2277
 9439TIP3    H149808   2.305   6.264   3.894  0.9861  2.8220 -1.0532
 9439TIP3    H249809   2.232   6.292   3.764 -1.4654  2.3691  0.1550
 9440TIP3   OH249810   1.242   3.655   4.827 -0.4484 -0.3444 -0.1065
 9440TIP3    H149811   1.193   3.703   4.894  1.0856 -0.2152  0.9785
 9440TIP3    H249812   1.227   3.563   4.848  0.6436 -0.3101  0.9371
 9441TIP3   OH249813   3.492   5.331  13.628  0.0893 -0.2104  0.0897
 9441TIP3    H149814   3.436   5.366  13.558 -0.3465  0.0404  0.5573
 9441TIP3    H249815   3.574   5.379  13.619  0.5780 -1.2173 -1.1776
 9442TIP3   OH249816   3.191   6.190   1.301 -0.3817 -0.1473  0.0789
 9442TIP3    H149817   3.273   6.229   1.273 -0.3165  0.2763  0.8326
 9442TIP3    H249818   3.123   6.243   1.261 -0.2998  1.0374  1.4329
 9443TIP3   OH249819   3.257   5.615  14.127 -0.5819 -0.5139  0.5191
 9443TIP3    H149820   3.230   5.590  14.039 -0.4420 -2.0923  0.8991
 9443TIP3    H249821   3.191   5.679  14.155 -0.6116  0.0299 -0.7177
 9444TIP3   OH249822   5.576   1.455   5.493 -0.6366 -0.5301  0.1137
 9444TIP3    H149823   5.618   1.525   5.444  0.6633 -0.3417  1.4413
 9444TIP3    H249824   5.483   1.475   5.489 -0.6870 -0.8671 -2.7686
 9445TIP3   OH249825   3.112   2.697   5.402 -0.9416  0.3998 -0.0812
 9445TIP3    H149826   3.181   2.644   5.361 -1.3374  0.5247 -0.9362
 9445TIP3    H249827   3.156   2.743   5.473 -1.1184 -3.2049  2.6581
 9446TIP3   OH249828   1.640   2.462  13.204  0.0435 -0.2506  0.3491
 9446TIP3    H149829   1.701   2.388  13.211  1.2785  0.4754 -1.9497
 9446TIP3    H249830   1.592   2.460  13.287  1.9791 -1.9042  1.5381
 9447TIP3   OH249831   3.625   1.007  13.089  0.0283  0.3865 -0.0656
 9447TIP3    H149832   3.564   0.956  13.144  0.6523  0.5572  0.7944
 9447TIP3    H249833   3.606   0.977  13.000  1.9088 -3.1383  0.5084
 9448TIP3   OH249834   2.800   1.559   5.046 -0.3135  1.0928 -0.4089
 9448TIP3    H149835   2.823   1.601   5.129  0.8354  1.8167 -1.0802
 9448TIP3    H249836   2.871   1.498   5.029  0.3637  2.1970 -1.7073
 9449TIP3   OH249837   0.034   5.839   1.077  0.0853  0.0959  0.8931
 9449TIP3    H149838   0.048   5.905   1.009  0.1847 -1.2962 -0.5059
 9449TIP3    H249839   0.003   5.889   1.153  2.2368  2.0159  0.6406
 9450TIP3   OH249840   2.060   2.580  13.799 -0.3920 -0.2896  0.0185
 9450TIP3    H149841   2.031   2.534  13.721  0.0997 -0.5262 -0.0308
 9450TIP3    H249842   1.980   2.616  13.837 -1.0624 -2.6371  1.0222
 9451TIP3   OH249843   1.291   6.591  12.346  0.8237 -0.1425 -0.2791
 9451TIP3    H149844   1.363   6.654  12.337 -0.2761  1.1422 -0.3912
 9451TIP3    H249845   1.250   6.590  12.260  0.8095 -1.0116 -0.2662
 9452TIP3   OH249846   0.672   1.041   2.740  0.0176  0.2269 -0.2217
 9452TIP3    H149847   0.599   1.072   2.687 -0.3736  0.4573  0.4426
 9452TIP3    H249848   0.651   0.949   2.758 -0.7078  0.5938  0.9316
 9453TIP3   OH249849   0.165   6.218   2.158 -0.4529  0.1510 -0.1109
 9453TIP3    H149850   0.074   6.189   2.157 -0.1817 -1.0057 -2.9435
 9453TIP3    H249851   0.173   6.275   2.081  0.8581  1.6480  1.0560
 9454TIP3   OH249852   0.142   1.477   4.297  0.1999 -0.2654 -0.7625
 9454TIP3    H149853   0.048   1.477   4.316  0.4419 -3.1780  0.8799
 9454TIP3    H249854   0.146   1.469   4.201 -1.3462 -2.8560 -0.7125
 9455TIP3   OH249855   4.449   3.626   4.332  0.6860 -0.3891  0.1342
 9455TIP3    H149856   4.411   3.582   4.256  1.9889 -1.2972 -0.0182
 9455TIP3    H249857   4.530   3.579   4.349  1.4198  1.0769  0.8580
 9456TIP3   OH249858   1.457   5.547   1.117 -0.3822  0.2044  0.0650
 9456TIP3    H149859   1.370   5.512   1.101 -0.4315 -0.3165  1.3598
 9456TIP3    H249860   1.507   5.524   1.039 -1.1394 -0.3723 -0.2607
 9457TIP3   OH249861   2.262   3.447  14.924  0.0351 -0.3324  0.6133
 9457TIP3    H149862   2.247   3.507  14.996  0.0142  0.1775  0.1889
 9457TIP3    H249863   2.312   3.498  14.860 -1.2627 -0.2955 -0.4019
 9458TIP3   OH249864   1.913   2.722   3.458  0.2175  0.4376 -0.3447
 9458TIP3    H149865   1.927   2.808   3.419 -0.1290 -0.2409 -2.0955
 9458TIP3    H249866   1.978   2.715   3.527 -0.1429  2.3235  0.2574
 9459TIP3   OH249867   1.731   6.140   2.711 -0.2802  0.2632 -0.0796
 9459TIP3    H149868   1.764   6.227   2.690  0.1387 -0.0414 -0.7082
 9459TIP3    H249869   1.702   6.104   2.626 -1.7303  0.3070  0.3580
 9460TIP3   OH249870   4.492   3.941  12.765 -0.0230  0.6483  0.1792
 9460TIP3    H149871   4.563   3.905  12.712 -0.6244  0.7306 -0.6916
 9460TIP3    H249872   4.479   3.875  12.834 -1.0526 -0.8079 -1.3415
 9461TIP3   OH249873   0.227   3.754  11.868  0.6875  0.7511 -0.0684
 9461TIP3    H149874   0.149   3.702  11.849  0.6114  0.9873 -0.4082
 9461TIP3    H249875   0.300   3.698  11.840  0.8820 -0.9224  3.3791
 9462TIP3   OH249876   0.145   1.771  16.599  0.2172  0.2688  0.3405
 9462TIP3    H149877   0.218   1.805  16.549 -0.9263  4.0357  0.9354
 9462TIP3    H249878   0.092   1.848  16.621 -3.3469 -2.0804  0.9117
 9463TIP3   OH249879   2.607   5.540   1.376  0.0037 -0.4250  0.5948
 9463TIP3    H149880   2.634   5.579   1.459 -0.2351  1.5071 -0.1967
 9463TIP3    H249881   2.582   5.614   1.321  1.1163 -1.5445 -1.5685
 9464TIP3   OH249882   0.433   0.179   4.612  0.0007 -0.0115 -0.5298
 9464TIP3    H149883   0.467   0.095   4.644 -1.8443 -1.0391 -1.1572
 9464TIP3    H249884   0.458   0.182   4.520  1.0521  0.6904 -0.2440
 9465TIP3   OH249885   0.149   5.739  12.054  0.2428  0.2906  0.0228
 9465TIP3    H149886   0.214   5.758  11.986 -0.3677 -0.5173 -0.8157
 9465TIP3    H249887   0.177   5.655  12.091 -0.3400 -0.0885 -0.3809
 9466TIP3   OH249888   4.085   5.266   4.151  0.2651  0.1818  0.8006
 9466TIP3    H149889   4.032   5.233   4.224  0.8668  1.3674  1.8121
 9466TIP3    H249890   4.027   5.259   4.075 -1.3322  1.3439  1.8442
 9467TIP3   OH249891   1.092   2.742  14.846  0.6018 -0.3309 -0.0071
 9467TIP3    H149892   1.182   2.773  14.858  0.4670  0.4564 -0.8647
 9467TIP3    H249893   1.038   2.818  14.869  0.2630  0.2086 -2.2771
 9468TIP3   OH249894   2.503   0.643   3.818 -0.1386 -0.0586  0.0552
 9468TIP3    H149895   2.547   0.588   3.753 -1.6416 -0.5226 -0.6222
 9468TIP3    H249896   2.415   0.606   3.825 -1.0803  1.9959 -0.1096
 9469TIP3   OH249897   5.637   1.288  11.856 -0.1642 -0.0475  0.1130
 9469TIP3    H149898   5.661   1.341  11.780 -0.0374  0.7695  0.7151
 9469TIP3    H249899   5.712   1.295  11.915 -0.6072  0.0037  0.6769
 9470TIP3   OH249900   2.486   0.140  16.835  0.3253  0.1126  0.0292
 9470TIP3    H149901   2.412   0.171  16.887  0.1052 -2.4795  1.4482
 9470TIP3    H249902   2.460   0.052  16.806  1.2402  0.6934 -2.9297
 9471TIP3   OH249903   4.172   5.769  14.012  0.6263  0.7171  0.3008
 9471TIP3    H149904   4.110   5.759  14.084  1.4670 -0.9354  0.8394
 9471TIP3    H249905   4.255   5.789  14.054  1.3783 -1.3779 -0.0665
 9472TIP3   OH249906   6.505   1.831  12.781 -0.8341 -0.1698  0.1531
 9472TIP3    H149907   6.594   1.865  12.777 -0.4105 -1.0901  1.1627
 9472TIP3    H249908   6.487   1.821  12.874 -1.7719 -0.5648 -0.0537
 9473TIP3   OH249909   2.210   0.046  12.762  0.1971  0.0424 -0.4738
 9473TIP3    H149910   2.213  -0.044  12.730 -0.4080 -0.1776  0.0729
 9473TIP3    H249911   2.242   0.040  12.852  0.2637  0.3917 -0.4756
 9474TIP3   OH249912   0.948   3.138  12.236 -0.1456 -0.4898 -0.3624
 9474TIP3    H149913   1.033   3.118  12.197 -0.5582 -1.2358 -0.9003
 9474TIP3    H249914   0.907   3.199  12.175 -0.1234 -0.3618 -0.2510
 9475TIP3   OH249915   0.959   1.268   2.181 -0.3019  0.5117  0.1971
 9475TIP3    H149916   0.945   1.292   2.090 -1.3856  2.2220  0.7790
 9475TIP3    H249917   0.892   1.315   2.230 -0.4593 -1.2243  1.8001
 9476TIP3   OH249918   3.616   1.784   3.919 -0.7407 -0.0299 -0.4537
 9476TIP3    H149919   3.559   1.854   3.887 -0.5670  0.9415  1.1983
 9476TIP3    H249920   3.653   1.820   4.000 -1.9976 -2.6948  1.4273
 9477TIP3   OH249921   5.573   1.909   3.431  0.1163 -0.4680 -0.2710
 9477TIP3    H149922   5.611   1.878   3.349 -1.0676  0.9189 -1.3957
 9477TIP3    H249923   5.492   1.953   3.405  0.9450  2.2603  1.3519
 9478TIP3   OH249924   4.095   1.040  15.964  0.3178 -0.1212  0.5051
 9478TIP3    H149925   4.004   1.067  15.978  0.6751  0.1450  2.5885
 9478TIP3    H249926   4.146   1.120  15.977  0.8596 -0.1467 -1.1702
 9479TIP3   OH249927   4.487   0.865  16.177  0.3299  0.4435  0.1733
 9479TIP3    H149928   4.497   0.899  16.266 -0.5748  1.0725  0.0431
 9479TIP3    H249929   4.489   0.943  16.121  1.1938  0.0336 -0.3978
 9480TIP3   OH249930   1.414   1.412   0.305 -0.6434  0.2212 -0.2190
 9480TIP3    H149931   1.376   1.470   0.238  0.1747  0.4830 -0.4700
 9480TIP3    H249932   1.482   1.363   0.258 -1.0061 -0.6003  0.1087
 9481TIP3   OH249933   6.484   6.625   3.066 -0.6227 -0.3328  0.1106
 9481TIP3    H149934   6.476   6.718   3.049  0.5766  0.0343  1.3940
 9481TIP3    H249935   6.426   6.584   3.002 -1.0352  1.2675 -0.5883
 9482TIP3   OH249936   3.608   1.245  15.982  0.1625  0.0996 -0.2178
 9482TIP3    H149937   3.624   1.224  15.890  0.9813 -0.2077 -0.0155
 9482TIP3    H249938   3.617   1.162  16.028 -0.5012  0.2013  0.1199
 9483TIP3   OH249939   0.608   5.729  13.078 -0.8099 -0.9360  0.3577
 9483TIP3    H149940   0.589   5.706  12.987  1.6955  0.7464 -0.6810
 9483TIP3    H249941   0.555   5.806  13.095  2.4110  1.9788 -1.5657
 9484TIP3   OH249942   5.334   3.653   5.970  0.2278 -0.6183  0.2075
 9484TIP3    H149943   5.267   3.644   6.038  1.5060  0.0493  1.6134
 9484TIP3    H249944   5.291   3.623   5.890 -2.5360  1.8997  0.5504
 9485TIP3   OH249945   5.902   3.961   0.973  0.5452 -0.5364  0.1474
 9485TIP3    H149946   5.911   3.886   0.915 -0.4703 -0.5831  0.0299
 9485TIP3    H249947   5.932   3.929   1.058 -0.1410 -1.1808  0.1635
 9486TIP3   OH249948   4.381   0.997  12.596 -0.3531  0.5007  0.1289
 9486TIP3    H149949   4.388   1.085  12.633 -0.1805 -0.4341  2.5012
 9486TIP3    H249950   4.288   0.975  12.602 -0.3055  0.2862  0.0929
 9487TIP3   OH249951   6.279   5.918   1.718  0.1354 -0.3346  0.0370
 9487TIP3    H149952   6.285   5.989   1.783  0.8905  0.3584 -0.7763
 9487TIP3    H249953   6.256   5.841   1.770 -0.7684  0.5014  0.9404
 9488TIP3   OH249954   5.344   2.222   1.618  0.3951 -0.4433 -0.7845
 9488TIP3    H149955   5.430   2.179   1.615  0.0183 -1.2532 -0.3053
 9488TIP3    H249956   5.318   2.217   1.710  0.9447  2.0870 -0.4294
 9489TIP3   OH249957   1.081   6.427   4.661  0.2705  0.1749 -0.1747
 9489TIP3    H149958   1.089   6.352   4.720  0.9364 -0.1710 -0.6846
 9489TIP3    H249959   1.154   6.417   4.599  1.1344  1.9207  0.4827
 9490TIP3   OH249960   3.572   5.834   2.843 -0.5259 -0.2240 -0.3258
 9490TIP3    H149961   3.667   5.838   2.837 -0.5961  0.9115 -0.9223
 9490TIP3    H249962   3.548   5.755   2.795  0.2066 -1.4361  1.2173
 9491TIP3   OH249963   0.921   1.689   2.241 -0.3263  0.1593 -0.1564
 9491TIP3    H149964   0.998   1.656   2.194 -0.0788  1.9429 -1.0890
 9491TIP3    H249965   0.876   1.744   2.177 -0.3884  2.1071  1.4657
 9492TIP3   OH249966   6.168   0.413  14.547 -0.5064  0.0763  0.3364
 9492TIP3    H149967   6.225   0.373  14.612  1.0908  0.8508 -0.5377
 9492TIP3    H249968   6.134   0.492  14.589 -1.4370 -0.6844  1.0623
 9493TIP3   OH249969   1.221   0.730   2.153  0.2877  0.0676 -0.2777
 9493TIP3    H149970   1.218   0.747   2.059  0.1517 -1.3650 -0.5656
 9493TIP3    H249971   1.131   0.744   2.183 -0.0146 -0.9631 -0.6671
 9494TIP3   OH249972   4.477   1.758   4.875  0.0388  0.6038 -0.6822
 9494TIP3    H149973   4.422   1.818   4.925 -1.2789 -2.0406  1.2953
 9494TIP3    H249974   4.463   1.783   4.783 -2.1288  1.9090 -0.0610
 9495TIP3   OH249975   4.092   2.427  14.649  0.4419  0.2661  0.3058
 9495TIP3    H149976   4.176   2.416  14.693  0.6634  1.1196  0.1050
 9495TIP3    H249977   4.031   2.376  14.702  0.8122  0.8162  1.2752
 9496TIP3   OH249978   1.973   5.035   0.021 -0.9539  0.1513 -0.1515
 9496TIP3    H149979   1.985   5.111   0.078 -0.6302 -2.0187  2.9371
 9496TIP3    H249980   2.007   4.961   0.072 -2.5752 -2.3084 -2.3663
 9497TIP3   OH249981   2.832   0.281  11.619 -0.0993  0.0926  0.2972
 9497TIP3    H149982   2.862   0.355  11.673 -2.6476  0.5373  1.2475
 9497TIP3    H249983   2.808   0.213  11.682 -0.9761 -0.2382 -0.3713
 9498TIP3   OH249984   6.765   6.230   3.999  0.3573 -0.2763 -0.1897
 9498TIP3    H149985   6.802   6.319   4.003  0.4562 -0.3479  1.3250
 9498TIP3    H249986   6.757   6.204   4.091 -1.4723 -1.1029 -0.5406
 9499TIP3   OH249987   3.074   2.482  15.072  0.2516  0.1156  0.0324
 9499TIP3    H149988   3.115   2.562  15.039  2.3908  0.3715  2.9201
 9499TIP3    H249989   3.015   2.454  15.001 -0.2345  3.9220 -1.2863
 9500TIP3   OH249990   2.310   1.852   6.113 -0.3563  0.0454 -0.0712
 9500TIP3    H149991   2.218   1.830   6.097 -0.5851  0.4707  0.6179
 9500TIP3    H249992   2.351   1.846   6.027 -0.9912 -0.3270 -0.3586
 9501TIP3   OH249993   4.881   6.706   1.698 -0.2528  0.7464 -0.5564
 9501TIP3    H149994   4.927   6.789   1.710  0.5490  0.0761  1.3010
 9501TIP3    H249995   4.916   6.671   1.616  2.7418  0.2135  0.8018
 9502TIP3   OH249996   4.046   0.672   5.160  0.5737 -0.6759 -0.2248
 9502TIP3    H149997   4.036   0.748   5.218  1.2622  0.4629 -1.5239
 9502TIP3    H249998   3.960   0.661   5.120  0.9292  0.6829 -1.4623
 9503TIP3   OH249999   4.447   5.117   4.052 -0.0505 -0.3468 -0.4278
 9503TIP3    H150000   4.501   5.067   3.990  0.1707  1.1416 -1.4888
 9503TIP3    H250001   4.375   5.151   3.999 -0.8166 -0.4662  0.5085
 9504TIP3   OH250002   3.417   2.039  16.758 -1.1537  0.3874  0.2961
 9504TIP3    H150003   3.452   2.120  16.720 -0.2971  0.6206  1.5389
 9504TIP3    H250004   3.322   2.052  16.757 -1.0403  1.2792  0.1902
 9505TIP3   OH250005   3.627   4.234  14.154 -0.2287  0.0752  0.6073
 9505TIP3    H150006   3.608   4.288  14.231 -0.1365  0.2062  0.5389
 9505TIP3    H250007   3.685   4.166  14.186 -0.1977  0.1244  0.6571
 9506TIP3   OH250008   1.146   0.584   2.772  0.6494  0.5482  0.4576
 9506TIP3    H150009   1.062   0.597   2.728  1.1477  2.4596 -0.0409
 9506TIP3    H250010   1.151   0.490   2.788 -1.1388  0.2737 -0.3853
 9507TIP3   OH250011   4.525   2.423   2.751  0.1673  0.2725  0.6885
 9507TIP3    H150012   4.534   2.376   2.668 -0.7946 -0.6085  1.0641
 9507TIP3    H250013   4.608   2.408   2.796 -0.6854 -2.5625  1.5308
 9508TIP3   OH250014   0.544   0.676  16.124 -0.0983  0.3222 -0.0127
 9508TIP3    H150015   0.471   0.690  16.063 -1.8957 -1.3044  1.6614
 9508TIP3    H250016   0.523   0.595  16.170  3.0491 -0.5193  0.2205
 9509TIP3   OH250017   3.562   4.695  11.710  0.2423 -0.5477 -0.4842
 9509TIP3    H150018   3.612   4.750  11.649 -1.3211 -0.0414 -1.3505
 9509TIP3    H250019   3.628   4.661  11.771  1.3366  1.8912 -0.1930
 9510TIP3   OH250020   1.411   3.058  16.821 -0.9083  0.3070 -0.2929
 9510TIP3    H150021   1.396   2.972  16.782  0.4871 -0.2863  0.4230
 9510TIP3    H250022   1.381   3.049  16.912  0.2964  0.2106  0.1107
 9511TIP3   OH250023   2.980   3.422  12.492 -0.4469  0.3842  0.4538
 9511TIP3    H150024   2.982   3.335  12.533 -0.9511  0.1284 -0.0540
 9511TIP3    H250025   2.887   3.439  12.477 -0.3086  0.7461 -0.0180
 9512TIP3   OH250026   3.194   5.653   5.445 -0.1124  0.1018 -0.5066
 9512TIP3    H150027   3.243   5.691   5.372  0.4832 -0.3377 -0.3484
 9512TIP3    H250028   3.261   5.622   5.505 -0.5740 -1.0862 -0.5774
 9513TIP3   OH250029   2.153   3.915   6.057 -0.0897  1.1275 -0.0541
 9513TIP3    H150030   2.209   3.963   5.996 -1.4264 -0.7184 -2.9543
 9513TIP3    H250031   2.189   3.936   6.143  4.4636  0.8234 -1.5956
 9514TIP3   OH250032   4.910   3.520  16.354 -0.4918 -0.5304 -0.2200
 9514TIP3    H150033   4.861   3.589  16.311  0.0271 -0.0162 -0.0036
 9514TIP3    H250034   4.880   3.522  16.445 -1.5081 -1.5422 -0.5093
 9515TIP3   OH250035   0.865   6.369  13.297 -0.3412  0.8866 -0.1958
 9515TIP3    H150036   0.837   6.326  13.217 -0.0850 -0.9489  0.6346
 9515TIP3    H250037   0.786   6.376  13.350  0.0965 -1.5671  0.9386
 9516TIP3   OH250038   0.519   1.241  11.220  0.3569 -0.3536  0.2462
 9516TIP3    H150039   0.433   1.246  11.179  0.1855  0.3388  0.6705
 9516TIP3    H250040   0.578   1.216  11.150  0.0921  0.9164 -0.4571
 9517TIP3   OH250041   1.493   4.324   4.560  0.0163  0.5130 -0.0849
 9517TIP3    H150042   1.538   4.240   4.557  0.8391  0.9192  0.5563
 9517TIP3    H250043   1.430   4.320   4.488 -0.2016 -0.7797  0.1489
 9518TIP3   OH250044   0.449   1.330  11.773  0.2382  0.1495 -0.1213
 9518TIP3    H150045   0.387   1.289  11.833  1.0300 -2.7225 -1.1071
 9518TIP3    H250046   0.400   1.341  11.692 -0.0830  1.7040  0.2314
 9519TIP3   OH250047   4.658   5.932  16.420  0.1708 -0.1209  0.4154
 9519TIP3    H150048   4.601   5.901  16.350  0.5758  1.4119 -0.6361
 9519TIP3    H250049   4.738   5.880  16.411 -0.3561 -1.0188  0.7627
 9520TIP3   OH250050   2.747   3.002   4.852 -0.1741 -0.3779  0.6027
 9520TIP3    H150051   2.682   3.046   4.797  0.2232 -0.9446 -0.3395
 9520TIP3    H250052   2.816   2.975   4.791  0.0617 -1.4292  1.3096
 9521TIP3   OH250053   5.254   5.002   6.554 -0.2328 -0.0008 -0.0199
 9521TIP3    H150054   5.308   5.074   6.586  1.5563 -0.4436 -1.8408
 9521TIP3    H250055   5.176   5.044   6.518 -0.2685  0.8090  0.9636
 9522TIP3   OH250056   0.425   5.206   3.756 -0.0866 -0.2598  0.6083
 9522TIP3    H150057   0.458   5.188   3.844  1.5207 -0.1853  0.0606
 9522TIP3    H250058   0.461   5.292   3.734 -0.4313 -0.2977 -0.1257
 9523TIP3   OH250059   4.995   0.957  10.511 -0.2990 -0.2855 -0.7212
 9523TIP3    H150060   4.938   1.007  10.452 -0.2203 -1.7131 -2.0899
 9523TIP3    H250061   5.068   1.016  10.530 -2.0546  1.5105  0.9108
 9524TIP3   OH250062   2.287   0.106   4.806 -0.0743 -0.3687  0.5486
 9524TIP3    H150063   2.259   0.117   4.897 -2.3681 -1.6997  0.1043
 9524TIP3    H250064   2.258   0.186   4.763 -1.6308 -0.9331  0.4805
 9525TIP3   OH250065   1.030   4.857  12.141 -0.5563  0.4020  0.1596
 9525TIP3    H150066   1.018   4.895  12.054 -0.8518  0.7647  0.3554
 9525TIP3    H250067   1.092   4.785  12.127 -2.6785 -1.3910 -0.8690
 9526TIP3   OH250068   3.544   6.168  14.426  0.5124 -0.7358 -0.1801
 9526TIP3    H150069   3.511   6.105  14.362 -1.6544 -1.0418  1.1170
 9526TIP3    H250070   3.532   6.125  14.510 -0.0149  0.9528  0.6637
 9527TIP3   OH250071   3.047   2.369   1.593  0.0327 -0.2418 -0.1477
 9527TIP3    H150072   3.098   2.341   1.516 -0.3326 -1.1360 -0.0748
 9527TIP3    H250073   3.049   2.293   1.652 -1.4533 -0.3413 -0.1892
 9528TIP3   OH250074   3.997   5.246   2.528  0.1443 -0.0450  0.0574
 9528TIP3    H150075   3.933   5.175   2.530  0.4902 -0.3817 -0.5190
 9528TIP3    H250076   4.077   5.208   2.563  0.7594 -0.4048 -1.6518
 9529TIP3   OH250077   0.423   1.172  10.059  0.4519 -0.0055  0.2791
 9529TIP3    H150078   0.418   1.240  10.126 -1.5670  1.7472 -1.5056
 9529TIP3    H250079   0.342   1.122  10.068 -0.4267  0.9912 -1.4885
 9530TIP3   OH250080   3.899   1.004  13.626  0.0559 -0.1553  0.2245
 9530TIP3    H150081   3.932   1.091  13.605  1.7437 -0.8438 -0.1074
 9530TIP3    H250082   3.928   0.949  13.554 -0.3493 -1.1424  0.7959
 9531TIP3   OH250083   1.643   1.481  15.134  0.4928  0.6078 -0.2613
 9531TIP3    H150084   1.733   1.460  15.111  0.6223  1.3904 -0.5084
 9531TIP3    H250085   1.628   1.567  15.095 -0.9991 -0.3526 -1.9495
 9532TIP3   OH250086   1.465   2.847  14.159  0.6949  0.1513  0.2208
 9532TIP3    H150087   1.530   2.846  14.088 -0.4721 -1.3821 -0.8900
 9532TIP3    H250088   1.515   2.825  14.238  1.2720 -3.1728 -0.9152
 9533TIP3   OH250089   0.457   5.706   3.904 -0.2428  0.1108  0.4931
 9533TIP3    H150090   0.457   5.612   3.923  0.8018 -0.0763 -0.3245
 9533TIP3    H250091   0.365   5.730   3.898 -0.5161 -0.8792  0.6036
 9534TIP3   OH250092   4.309   0.765   2.592  0.4139 -0.0723 -0.0995
 9534TIP3    H150093   4.354   0.847   2.571  1.7277 -1.2354 -2.0437
 9534TIP3    H250094   4.249   0.750   2.519  1.1065 -1.4582 -0.4179
 9535TIP3   OH250095   2.757   4.288   4.830  0.4082 -0.5495  0.4536
 9535TIP3    H150096   2.719   4.355   4.887 -2.0872  1.5052 -3.1984
 9535TIP3    H250097   2.699   4.213   4.841 -2.1707  0.9695 -1.5710
 9536TIP3   OH250098   0.136   5.244   3.792 -0.1849 -0.2338  0.1811
 9536TIP3    H150099   0.228   5.219   3.796 -0.7348 -2.3846  0.5325
 9536TIP3    H250100   0.134   5.334   3.824  1.5166 -0.9314  2.5125
 9537TIP3   OH250101   1.010   1.190  16.379  0.6048  1.0410  0.2008
 9537TIP3    H150102   0.967   1.211  16.296 -0.6702 -1.4513  0.1605
 9537TIP3    H250103   0.941   1.200  16.445  0.9192  0.4869  0.6167
 9538TIP3   OH250104   3.209   1.541  16.348  0.0187 -0.2234  0.0629
 9538TIP3    H150105   3.235   1.470  16.405  1.4233  0.4211  0.2759
 9538TIP3    H250106   3.239   1.620  16.393 -0.2470  0.3976 -0.8174
 9539TIP3   OH250107   2.388   2.743  14.070  0.0227  0.1399 -0.5297
 9539TIP3    H150108   2.460   2.741  14.006  0.6096  0.1224  0.1183
 9539TIP3    H250109   2.419   2.687  14.142  0.5193  2.1935  0.9498
 9540TIP3   OH250110   1.344   2.192  10.885 -0.6247 -0.5161  0.4323
 9540TIP3    H150111   1.291   2.188  10.806  0.6096  0.4666 -0.4780
 9540TIP3    H250112   1.345   2.285  10.909  1.0520 -0.4364  0.1420
 9541TIP3   OH250113   2.092   0.571  11.331  0.1449 -0.4762  0.4741
 9541TIP3    H150114   1.998   0.556  11.339  0.1361 -1.2576 -0.8105
 9541TIP3    H250115   2.100   0.647  11.274  0.2970  1.1044  2.4795
 9542TIP3   OH250116   1.218   4.441   2.845  0.1381 -0.3110  0.1301
 9542TIP3    H150117   1.208   4.533   2.820  0.8647 -0.3941 -0.4713
 9542TIP3    H250118   1.129   4.410   2.859 -0.2062  0.0696 -1.1596
 9543TIP3   OH250119   1.678   1.010  16.718  0.0845  0.2544 -0.6289
 9543TIP3    H150120   1.589   1.013  16.752  0.8812  1.7442  1.4903
 9543TIP3    H250121   1.704   1.102  16.708  1.4122 -0.1495 -1.1546
 9544TIP3   OH250122   3.264   1.013  13.557 -0.5628 -0.3526 -0.3136
 9544TIP3    H150123   3.227   1.088  13.604 -0.6715 -0.6335  0.0514
 9544TIP3    H250124   3.225   0.937  13.599 -0.3304 -0.6200 -0.5810
 9545TIP3   OH250125   3.863   5.116   1.303  1.1425 -0.1908 -0.2556
 9545TIP3    H150126   3.801   5.047   1.327  0.0422  0.5880 -0.7612
 9545TIP3    H250127   3.941   5.070   1.274  1.8914 -1.1978  3.0386
 9546TIP3   OH250128   2.389   2.565  11.269 -0.1462  0.5511  0.1850
 9546TIP3    H150129   2.349   2.479  11.260  1.9032 -0.6100  1.2504
 9546TIP3    H250130   2.430   2.562  11.356  2.4073  1.4921 -0.9105
 9547TIP3   OH250131   0.085   6.484   3.322  0.2950  0.3103 -0.5373
 9547TIP3    H150132  -0.009   6.505   3.328  0.1817 -0.2007 -0.5075
 9547TIP3    H250133   0.107   6.496   3.230 -0.1919 -1.2079 -0.8692
 9548TIP3   OH250134   2.561   4.802  14.244 -0.5000 -0.6240 -0.0482
 9548TIP3    H150135   2.634   4.850  14.205 -0.5007 -0.0725  0.6103
 9548TIP3    H250136   2.483   4.849  14.215 -0.6097 -1.3059 -0.8792
 9549TIP3   OH250137   4.172   1.728  16.040  0.1484  0.4774 -0.0582
 9549TIP3    H150138   4.267   1.740  16.039  0.3245 -0.7843 -0.3621
 9549TIP3    H250139   4.136   1.816  16.051  1.3387  1.0450 -0.6069
 9550TIP3   OH250140   2.350   3.063  12.860  0.0427 -0.2300 -0.2868
 9550TIP3    H150141   2.311   2.977  12.877 -1.0134  0.2377 -0.2598
 9550TIP3    H250142   2.316   3.088  12.774  0.8460 -0.1064 -0.5748
 9551TIP3   OH250143   6.252   4.624   3.067  0.5624 -0.4901 -0.3946
 9551TIP3    H150144   6.341   4.655   3.081  0.4224 -1.2838  3.1947
 9551TIP3    H250145   6.214   4.620   3.155 -2.9779 -0.3884 -1.7636
 9552TIP3   OH250146   1.962   2.264   0.016  0.0637  0.2542 -0.1588
 9552TIP3    H150147   1.915   2.192  -0.027  0.5067  0.7225 -1.4384
 9552TIP3    H250148   2.054   2.238   0.014  0.2269  0.8438 -0.6184
 9553TIP3   OH250149   6.180   0.759   4.411 -0.1853  0.8548  0.1321
 9553TIP3    H150150   6.173   0.758   4.506  0.0934  1.8837  0.1815
 9553TIP3    H250151   6.264   0.716   4.393  1.4758  3.6442  0.6038
 9554TIP3   OH250152   4.871   3.630   0.239 -0.3348 -0.9723  0.3037
 9554TIP3    H150153   4.791   3.613   0.189 -0.8446  1.3503  0.1842
 9554TIP3    H250154   4.842   3.687   0.310  1.2321  0.1039  0.1245
 9555TIP3   OH250155   0.298   4.857   1.658 -0.5425 -0.2285 -0.3442
 9555TIP3    H150156   0.310   4.859   1.753 -0.6635  1.8548 -0.3399
 9555TIP3    H250157   0.235   4.786   1.643  2.8528 -3.7919  0.6469
 9556TIP3   OH250158   5.414   1.147   3.376 -0.7078  0.0601 -0.0501
 9556TIP3    H150159   5.373   1.097   3.305  0.0705  0.1315 -0.5589
 9556TIP3    H250160   5.502   1.111   3.383  0.2583  2.0293 -1.1584
 9557TIP3   OH250161   5.305   4.184  14.385 -0.3742  0.5736 -0.8427
 9557TIP3    H150162   5.290   4.155  14.295  0.0890 -1.5667 -0.2769
 9557TIP3    H250163   5.398   4.202  14.389  0.2264 -2.2576 -0.0827
 9558TIP3   OH250164   2.813   0.421   3.921  0.2642 -0.0513 -0.4745
 9558TIP3    H150165   2.893   0.372   3.938  0.2456  0.7381  2.4196
 9558TIP3    H250166   2.813   0.436   3.826  2.0986 -2.4110 -0.9192
 9559TIP3   OH250167   5.341   6.833  17.123  1.0828  0.1222  0.6936
 9559TIP3    H150168   5.261   6.832  17.176  0.1554 -0.0086 -0.6521
 9559TIP3    H250169   5.353   6.742  17.097  0.1248  0.5049 -1.2813
 9560TIP3   OH250170   2.945   6.603  11.641  0.4463 -0.2267 -0.4635
 9560TIP3    H150171   2.879   6.627  11.575  2.4036  1.2244 -2.0694
 9560TIP3    H250172   3.028   6.608  11.593  1.7098 -2.6802  1.2731
 9561TIP3   OH250173   1.278   6.650   1.883  0.4440 -0.3782  0.0138
 9561TIP3    H150174   1.294   6.572   1.830  0.9777  0.7244 -1.5291
 9561TIP3    H250175   1.184   6.648   1.901  0.2232 -0.7243 -1.1074
 9562TIP3   OH250176   2.299   1.320   0.906  0.5382  0.2472 -0.7348
 9562TIP3    H150177   2.293   1.332   0.811 -0.7211  0.0301 -0.7129
 9562TIP3    H250178   2.363   1.250   0.918  1.4346  0.9534 -1.3602
 9563TIP3   OH250179   3.265   0.700  14.528 -0.1427 -0.5604 -0.4319
 9563TIP3    H150180   3.330   0.714  14.459 -0.6125 -1.0819 -0.9853
 9563TIP3    H250181   3.242   0.788  14.558  1.5128 -0.3851  0.4344
 9564TIP3   OH250182   3.984   3.265  12.532 -0.2257  0.0465 -0.1255
 9564TIP3    H150183   3.986   3.291  12.440 -1.4219 -0.8513 -0.4433
 9564TIP3    H250184   4.050   3.196  12.539 -0.8271 -0.5948 -0.5770
 9565TIP3   OH250185   2.634   2.714   0.587  0.2906 -0.2237 -0.0543
 9565TIP3    H150186   2.572   2.740   0.655 -0.6856 -0.1086 -0.9786
 9565TIP3    H250187   2.702   2.782   0.589  0.1869 -0.1323  0.6811
 9566TIP3   OH250188   1.430   2.719   2.963  0.2646  0.3803  0.2098
 9566TIP3    H150189   1.400   2.656   3.029 -0.2231 -1.1425 -1.3923
 9566TIP3    H250190   1.511   2.682   2.930  0.0693  0.6805 -0.6307
 9567TIP3   OH250191   6.823   4.184   4.474  0.0925 -0.2238 -0.4778
 9567TIP3    H150192   6.743   4.147   4.436 -1.1159 -0.0349  1.7025
 9567TIP3    H250193   6.833   4.139   4.558  0.0654  2.3911  1.0478
 9568TIP3   OH250194   2.151   3.271  15.402 -0.5945 -0.0870  0.1105
 9568TIP3    H150195   2.121   3.323  15.477  0.4892  1.0673 -0.2231
 9568TIP3    H250196   2.228   3.318  15.370 -1.1020 -0.4857 -1.8142
 9569TIP3   OH250197   0.289   4.869   4.149  0.5523  0.5352  0.2690
 9569TIP3    H150198   0.203   4.886   4.110 -0.1073 -2.0303  0.3856
 9569TIP3    H250199   0.293   4.929   4.224 -1.6169  0.0391  0.8744
 9570TIP3   OH250200   5.143   2.455  13.920 -0.5249 -0.4236 -0.3621
 9570TIP3    H150201   5.223   2.423  13.960 -1.6193 -0.3922  2.0225
 9570TIP3    H250202   5.134   2.403  13.840  0.5508 -2.2222  0.6238
 9571TIP3   OH250203   0.744   6.012  16.776 -0.3481 -0.1307  0.3819
 9571TIP3    H150204   0.702   6.025  16.861 -0.5406 -1.2931  0.4896
 9571TIP3    H250205   0.694   6.066  16.715  1.2255  2.5960  1.3608
 9572TIP3   OH250206   1.806   1.038   3.814 -0.0517 -0.1005  0.2826
 9572TIP3    H150207   1.748   1.066   3.743  2.6800  1.5616 -1.4856
 9572TIP3    H250208   1.799   1.108   3.879  0.7897  0.7459 -0.4926
 9573TIP3   OH250209   1.358   2.104   0.294  0.8020 -0.1792  0.1569
 9573TIP3    H150210   1.334   2.192   0.322  0.1656 -0.3943  0.3088
 9573TIP3    H250211   1.453   2.100   0.304  0.6336 -0.1794  2.1519
 9574TIP3   OH250212   3.159   1.576  11.826 -0.2894 -0.3398 -0.0726
 9574TIP3    H150213   3.207   1.496  11.845  0.9821  0.0776 -1.4181
 9574TIP3    H250214   3.219   1.646  11.850 -1.1687  0.2194  0.5386
 9575TIP3   OH250215   3.025   4.857   5.408 -0.1070  0.1482 -0.5694
 9575TIP3    H150216   3.066   4.815   5.333 -1.2008 -0.2566 -0.9580
 9575TIP3    H250217   2.937   4.818   5.413  0.0369 -0.0632  1.0938
 9576TIP3   OH250218   4.150   3.654   1.055 -0.1503 -0.3653  0.3396
 9576TIP3    H150219   4.113   3.688   1.137 -4.0175  1.4674 -1.8637
 9576TIP3    H250220   4.082   3.597   1.019  0.8220 -0.1079 -2.1390
 9577TIP3   OH250221   1.050   2.311  12.919  0.0864 -0.2591 -0.5032
 9577TIP3    H150222   1.069   2.322  13.012  0.2350  1.3269 -0.6930
 9577TIP3    H250223   0.965   2.353  12.906 -0.6977 -1.8595 -0.8152
 9578TIP3   OH250224   6.254   3.606  11.213  0.2494 -0.1829  0.2754
 9578TIP3    H150225   6.310   3.549  11.160  0.6210  1.1544 -0.8276
 9578TIP3    H250226   6.174   3.556  11.227  0.8542 -1.2574 -0.0171
 9579TIP3   OH250227   1.754   3.222  14.777 -0.2090 -0.2017  0.1786
 9579TIP3    H150228   1.826   3.217  14.714 -0.3098 -0.8704  0.1049
 9579TIP3    H250229   1.687   3.164  14.742 -1.9716  2.5081 -1.1862
 9580TIP3   OH250230   0.508   4.744  13.187 -0.4716 -0.6495 -0.3638
 9580TIP3    H150231   0.414   4.731  13.177 -0.1241 -1.7872 -2.6235
 9580TIP3    H250232   0.527   4.822  13.136  0.0415 -1.3783 -1.3040
 9581TIP3   OH250233   0.849   4.452  15.797  0.2637  0.1085  0.2412
 9581TIP3    H150234   0.858   4.436  15.703  0.2699 -0.7710  0.3899
 9581TIP3    H250235   0.866   4.546  15.807 -2.3084  0.7947 -0.9803
 9582TIP3   OH250236   3.769   2.573   3.897 -0.2070 -0.0826  0.1406
 9582TIP3    H150237   3.722   2.597   3.818  0.2425  5.5965  1.1810
 9582TIP3    H250238   3.861   2.582   3.875 -0.0655  1.1577  1.1519
 9583TIP3   OH250239   0.362   2.022  11.187  0.1898  1.1212  0.4050
 9583TIP3    H150240   0.357   1.953  11.253 -2.3331  1.5370  0.7560
 9583TIP3    H250241   0.431   2.080  11.220  1.6515 -0.6438  0.6198
 9584TIP3   OH250242   6.750   0.332  10.615 -0.0929  0.1433  0.4741
 9584TIP3    H150243   6.816   0.290  10.561 -0.0396 -0.6911  1.1615
 9584TIP3    H250244   6.795   0.350  10.698 -0.3930  0.6867  0.5264
 9585TIP3   OH250245   0.064   5.014  14.052  0.0156 -0.2445 -0.5542
 9585TIP3    H150246   0.135   4.960  14.019  0.5254 -0.9604  1.5856
 9585TIP3    H250247  -0.014   4.980  14.008  0.9657  1.0196 -3.4882
 9586TIP3   OH250248   0.924   0.393   3.834 -0.4219  0.4766  0.2798
 9586TIP3    H150249   0.838   0.435   3.839 -0.9830 -0.6958  1.1952
 9586TIP3    H250250   0.924   0.348   3.750 -1.3133 -0.6800  0.8565
 9587TIP3   OH250251   3.503   5.612  10.601 -0.1928 -0.0416  0.0405
 9587TIP3    H150252   3.584   5.592  10.648 -0.7571  0.3819  1.2221
 9587TIP3    H250253   3.466   5.526  10.580  0.7110 -0.2445 -0.8114
 9588TIP3   OH250254   1.894   2.029  14.318 -0.7689  0.0494 -0.1366
 9588TIP3    H150255   1.907   2.007  14.225 -0.8800  0.6573 -0.2999
 9588TIP3    H250256   1.804   2.004  14.336 -0.3359 -1.3707  0.1906
 9589TIP3   OH250257   1.379   1.766  14.269  0.5736 -0.5333 -0.5920
 9589TIP3    H150258   1.381   1.788  14.176 -0.8824 -0.5482 -0.6472
 9589TIP3    H250259   1.294   1.724  14.282  0.4061  0.2045  0.8964
 9590TIP3   OH250260   0.094   1.260   0.056 -0.1294 -0.2408  0.2621
 9590TIP3    H150261   0.142   1.177   0.049 -0.0369 -0.2038  0.4418
 9590TIP3    H250262   0.030   1.256  -0.014  2.2483  1.1386 -2.1913
 9591TIP3   OH250263   5.269   3.341  15.886 -0.0145  0.5454  0.2742
 9591TIP3    H150264   5.179   3.317  15.905 -0.9450  3.7015  0.3927
 9591TIP3    H250265   5.302   3.380  15.967  1.4950 -0.5070  0.2233
 9592TIP3   OH250266   3.223   2.686  14.996  0.0128  0.3837 -0.6099
 9592TIP3    H150267   3.307   2.651  15.027 -0.8371 -1.0447  0.1561
 9592TIP3    H250268   3.198   2.749  15.063  0.2547  0.4815 -0.6083
 9593TIP3   OH250269   3.934   5.147  12.138 -0.2447  0.0113  0.8206
 9593TIP3    H150270   3.985   5.074  12.174 -1.4071 -0.9523  0.5808
 9593TIP3    H250271   3.847   5.136  12.176 -0.9642  0.1120 -0.7178
 9594TIP3   OH250272   0.886   2.029  10.793 -0.7376  0.3680  0.3789
 9594TIP3    H150273   0.964   2.044  10.740  1.0175 -1.8905  2.0683
 9594TIP3    H250274   0.848   2.115  10.806  2.2811  1.8125  0.5712
 9595TIP3   OH250275   2.893   1.428   1.800  0.0246 -0.0232  0.1259
 9595TIP3    H150276   2.820   1.438   1.738 -0.1902  1.2600  0.5606
 9595TIP3    H250277   2.948   1.505   1.785  0.9913 -0.6831  0.2118
 9596TIP3   OH250278   5.330   1.609  16.571 -0.6308 -0.1345 -0.6469
 9596TIP3    H150279   5.236   1.613  16.556 -0.7208  2.6563  0.1644
 9596TIP3    H250280   5.366   1.575  16.488 -2.2501 -0.3219 -1.3051
 9597TIP3   OH250281   3.914   3.887   3.114 -0.9123  0.2676  1.2412
 9597TIP3    H150282   3.825   3.867   3.086 -1.0117  1.6125  0.5281
 9597TIP3    H250283   3.958   3.802   3.117 -1.6141 -0.1974 -0.4975
 9598TIP3   OH250284   1.003   3.973   6.343 -0.3930  0.3726 -0.1628
 9598TIP3    H150285   1.002   4.047   6.404 -1.1090 -0.0416  0.3342
 9598TIP3    H250286   0.917   3.975   6.301  0.3274  1.0654 -1.6802
 9599TIP3   OH250287   3.579   6.378  12.876 -0.0925  0.0392 -0.7512
 9599TIP3    H150288   3.670   6.349  12.865  0.1489  1.0387 -1.5862
 9599TIP3    H250289   3.578   6.421  12.962  0.1878 -0.1034 -0.6755
 9600TIP3   OH250290   0.949   4.237  12.038  0.8073 -0.1706  0.3542
 9600TIP3    H150291   0.997   4.185  12.103  0.4105  0.9597  1.5887
 9600TIP3    H250292   0.998   4.319  12.033 -0.4121  0.6207  0.9081
 9601TIP3   OH250293   4.904   2.620  13.169  0.2009 -0.0351  0.2236
 9601TIP3    H150294   4.871   2.550  13.226  2.3464 -1.2776  0.0396
 9601TIP3    H250295   4.935   2.688  13.230  0.3958 -0.3566  0.4869
 9602TIP3   OH250296   0.620   0.314   1.140 -0.3549  0.2915 -0.4350
 9602TIP3    H150297   0.598   0.407   1.144 -0.2251  0.3596 -1.1607
 9602TIP3    H250298   0.679   0.306   1.065  0.4452 -0.2200  0.2220
 9603TIP3   OH250299   5.717   5.089   4.170  0.5684 -0.5156 -0.1877
 9603TIP3    H150300   5.654   5.149   4.210  1.3637  0.9106 -0.9872
 9603TIP3    H250301   5.726   5.018   4.234 -0.1579  0.3784  0.9557
 9604TIP3   OH250302   5.942   6.815   6.117 -0.0222  0.0050 -0.4353
 9604TIP3    H150303   5.958   6.850   6.205 -3.1387  2.6287 -0.7199
 9604TIP3    H250304   5.898   6.732   6.131 -1.1093  0.7179  0.5598
 9605TIP3   OH250305   6.478   2.510  10.869  0.2148 -0.1246  0.7541
 9605TIP3    H150306   6.471   2.530  10.962 -1.8946  0.6118  0.4898
 9605TIP3    H250307   6.394   2.536  10.832  1.7051  1.7283 -1.7632
 9606TIP3   OH250308   2.234   4.688  14.354 -0.0184  0.1002 -0.5321
 9606TIP3    H150309   2.248   4.682  14.260 -0.2509  2.7204 -0.8001
 9606TIP3    H250310   2.153   4.641  14.370  0.5136 -1.1951 -1.4542
 9607TIP3   OH250311   1.002   2.330  17.053  0.0973  0.6545 -0.0671
 9607TIP3    H150312   0.937   2.335  17.124  2.9835  1.7725  2.7644
 9607TIP3    H250313   0.999   2.417  17.013 -1.8447 -0.1113 -1.7962
 9608TIP3   OH250314   3.170   2.017  14.323 -0.2929 -0.3073 -0.7429
 9608TIP3    H150315   3.210   2.054  14.402 -0.5999 -2.8737  0.7327
 9608TIP3    H250316   3.239   2.020  14.257 -0.0646  2.0053 -0.4722
 9609TIP3   OH250317   1.139   1.051   2.891 -0.2118 -0.0703  0.5996
 9609TIP3    H150318   1.223   1.078   2.854 -0.0252 -0.0318  1.0441
 9609TIP3    H250319   1.160   0.973   2.943 -0.5449 -0.3781  0.2732
 9610TIP3   OH250320   4.910   3.524   3.582  0.1078 -0.5523 -0.1524
 9610TIP3    H150321   4.904   3.591   3.515 -0.9908 -0.1143  0.3674
 9610TIP3    H250322   4.826   3.526   3.627  0.1629 -2.0544  0.0897
 9611TIP3   OH250323   2.789   5.886  11.440 -0.2283  0.5505 -0.4767
 9611TIP3    H150324   2.766   5.912  11.350  0.4974 -0.6642 -1.0354
 9611TIP3    H250325   2.836   5.961  11.475 -0.4004  0.9889 -1.1527
 9612TIP3   OH250326   3.421   2.808  10.698  0.3589 -0.2018 -0.5196
 9612TIP3    H150327   3.362   2.866  10.744 -1.6369 -2.1582 -0.4465
 9612TIP3    H250328   3.460   2.862  10.629  0.4642  1.7672  1.0109
 9613TIP3   OH250329   2.257   5.330  14.577 -0.6296 -0.1606 -0.3923
 9613TIP3    H150330   2.286   5.255  14.629 -1.0376  1.2567  2.0854
 9613TIP3    H250331   2.336   5.384  14.567 -0.9621  0.5373  0.5838
 9614TIP3   OH250332   0.105   1.880  12.099 -0.0432 -1.1816  0.1988
 9614TIP3    H150333   0.102   1.829  12.180 -2.2442  1.1671  1.7490
 9614TIP3    H250334   0.014   1.881  12.068  0.4440 -0.5335 -1.3080
 9615TIP3   OH250335   0.566   2.443   4.976 -0.2388 -0.6937 -0.0306
 9615TIP3    H150336   0.555   2.383   5.050 -2.6596 -1.6813 -1.0922
 9615TIP3    H250337   0.486   2.494   4.974  0.8262  1.0408 -0.5519
 9616TIP3   OH250338   4.406   5.624  16.204  0.1370  1.0522  0.0251
 9616TIP3    H150339   4.415   5.719  16.212 -0.3214  1.1438 -0.4928
 9616TIP3    H250340   4.327   5.611  16.152 -0.1805  0.3635  0.6634
 9617TIP3   OH250341   0.114   1.038  10.601  0.1885 -0.3597  0.3783
 9617TIP3    H150342   0.165   0.970  10.557 -0.8998 -1.1887  0.3370
 9617TIP3    H250343   0.033   1.044  10.550 -0.0504  0.4330  0.8260
 9618TIP3   OH250344   4.046   1.400  13.751  0.0942 -0.4902 -0.6433
 9618TIP3    H150345   4.136   1.399  13.782 -0.2580  0.1497  0.4247
 9618TIP3    H250346   4.048   1.347  13.671  1.6282  0.4109 -1.2483
 9619TIP3   OH250347   2.909   2.818  13.315  0.0284 -0.2141 -0.3508
 9619TIP3    H150348   2.881   2.890  13.257  0.9423  1.1583  0.8524
 9619TIP3    H250349   2.940   2.862  13.394  1.5540 -1.8925  0.0360
 9620TIP3   OH250350   5.863   6.579  10.762  0.5824  0.3179 -0.3859
 9620TIP3    H150351   5.948   6.610  10.730  0.2851  0.1609 -1.3796
 9620TIP3    H250352   5.877   6.485  10.779  0.7977  0.4453  0.1533
 9621TIP3   OH250353   6.563   4.463   5.524  0.1474  0.1425  0.6210
 9621TIP3    H150354   6.474   4.478   5.495  0.7587  0.7913 -1.0415
 9621TIP3    H250355   6.561   4.376   5.564 -1.0006 -0.3349 -0.4052
 9622TIP3   OH250356   3.294   0.013   1.922 -0.0709  0.1870  1.0289
 9622TIP3    H150357   3.345  -0.008   1.844  0.0526  1.5629  0.7273
 9622TIP3    H250358   3.359   0.030   1.990 -0.1019  1.8742  0.6627
 9623TIP3   OH250359   1.022   5.127   1.323 -0.0772  0.0186 -0.1920
 9623TIP3    H150360   0.933   5.140   1.355 -0.1477  1.2783 -0.8808
 9623TIP3    H250361   1.064   5.213   1.329  0.4116 -0.0552 -1.9253
 9624TIP3   OH250362   0.726   3.556  16.568  0.5109  0.0283  0.1597
 9624TIP3    H150363   0.755   3.611  16.642 -1.8512 -0.0156  1.2038
 9624TIP3    H250364   0.704   3.618  16.499 -0.3899  0.3269  0.6900
 9625TIP3   OH250365   4.566   3.591   2.112 -0.2958 -0.2639 -0.1664
 9625TIP3    H150366   4.503   3.663   2.117 -0.9299 -0.6761 -1.6275
 9625TIP3    H250367   4.636   3.623   2.055 -1.1784 -1.1628 -1.8518
 9626TIP3   OH250368   6.738   6.705  15.844 -0.0309  0.0253  0.5622
 9626TIP3    H150369   6.655   6.657  15.842 -1.2782  2.0208  1.4393
 9626TIP3    H250370   6.801   6.646  15.802 -1.6220 -2.0251  0.9018
 9627TIP3   OH250371   0.064   3.192   2.553 -0.3358  0.0043 -0.0084
 9627TIP3    H150372   0.147   3.175   2.507 -1.2280 -1.9710 -1.0147
 9627TIP3    H250373   0.013   3.245   2.492 -0.7584 -0.9324 -0.4869
 9628TIP3   OH250374   4.236   5.223   6.104 -0.0576 -0.1622 -0.1251
 9628TIP3    H150375   4.303   5.170   6.147  1.4874  0.2703 -1.8185
 9628TIP3    H250376   4.222   5.180   6.020 -1.9892 -0.2593  0.2158
 9629TIP3   OH250377   6.627   4.380   2.389  0.2520 -0.2464  0.4540
 9629TIP3    H150378   6.599   4.304   2.439 -2.7862  0.8003  0.5460
 9629TIP3    H250379   6.550   4.437   2.387  1.8556  2.0316 -1.1139
 9630TIP3   OH250380   6.000   4.547  15.695  1.3030 -0.4304 -0.8159
 9630TIP3    H150381   6.033   4.459  15.716  1.0568 -0.0129  1.6421
 9630TIP3    H250382   6.051   4.605  15.752  0.4580  0.8612 -1.3466
 9631TIP3   OH250383   2.835   2.159  13.422  0.2061 -0.4852  0.0784
 9631TIP3    H150384   2.848   2.199  13.508 -1.5023 -2.2962  1.2590
 9631TIP3    H250385   2.749   2.190  13.394  1.1670  0.9064 -1.5205
 9632TIP3   OH250386   6.284   0.547   5.339  0.1794 -0.4265  0.2789
 9632TIP3    H150387   6.339   0.602   5.395 -1.5940  0.9545  0.7609
 9632TIP3    H250388   6.280   0.593   5.256 -2.5788  1.1506  1.1579
 9633TIP3   OH250389   3.572   2.673   5.817 -0.1544  0.1733  0.1684
 9633TIP3    H150390   3.615   2.716   5.742 -1.6512  2.0740  0.3245
 9633TIP3    H250391   3.582   2.735   5.889 -0.8555 -0.5447  0.9055
 9634TIP3   OH250392   2.937   2.039  14.478  0.5965 -0.4832 -0.2784
 9634TIP3    H150393   3.024   2.012  14.447  0.7118 -1.9029  1.1368
 9634TIP3    H250394   2.895   2.078  14.401  2.2837 -0.2455 -1.1256
 9635TIP3   OH250395   1.239   0.844   1.896 -0.6916  0.0457  0.8162
 9635TIP3    H150396   1.186   0.851   1.816 -0.3404  0.8139  0.6365
 9635TIP3    H250397   1.323   0.811   1.866  0.3856  2.9042  0.3907
 9636TIP3   OH250398   0.456   2.353  11.458 -0.1181  0.2433  0.3946
 9636TIP3    H150399   0.480   2.445  11.472  0.1323  0.0452  1.3676
 9636TIP3    H250400   0.496   2.330  11.374  0.8161  0.7001  0.6953
 9637TIP3   OH250401   4.881   4.239   4.206 -0.4750  0.1634  0.3389
 9637TIP3    H150402   4.940   4.232   4.281  0.1375  2.0303  0.0719
 9637TIP3    H250403   4.932   4.205   4.132 -0.2755  0.4076  0.3662
 9638TIP3   OH250404   4.954   5.589   4.866  0.2658 -0.1994  0.0971
 9638TIP3    H150405   4.874   5.618   4.909 -1.0799 -1.2289 -1.5546
 9638TIP3    H250406   4.955   5.494   4.877  1.7255 -0.1416  0.7770
 9639TIP3   OH250407   4.873   6.006  11.084  0.3327  0.2846  0.2050
 9639TIP3    H150408   4.848   6.076  11.145 -0.5780  0.8543 -0.7945
 9639TIP3    H250409   4.889   6.051  11.001 -0.2092 -0.6766 -0.4409
 9640TIP3   OH250410   3.775   0.988   2.948  0.0875 -0.5179  0.3888
 9640TIP3    H150411   3.727   1.071   2.953 -0.1670 -0.6752  0.6401
 9640TIP3    H250412   3.706   0.921   2.952  0.1052 -0.7388 -1.9271
 9641TIP3   OH250413   1.983   1.052   4.548  0.0872  0.7488  0.1443
 9641TIP3    H150414   1.973   1.147   4.552  0.5995  0.7571  2.0756
 9641TIP3    H250415   2.078   1.037   4.553  0.2951  0.1708 -3.0579
 9642TIP3   OH250416   5.455   3.914   2.557 -0.0489  0.1393 -0.3503
 9642TIP3    H150417   5.370   3.886   2.524 -0.3862  1.1242 -0.3675
 9642TIP3    H250418   5.506   3.933   2.478  0.2810 -0.6961 -0.3444
 9643TIP3   OH250419   1.651   4.721   4.272 -0.1750  0.6174 -0.1069
 9643TIP3    H150420   1.615   4.633   4.259  1.6650 -0.2519  0.3646
 9643TIP3    H250421   1.659   4.756   4.183 -0.9399  0.3150 -0.3011
 9644TIP3   OH250422   1.344   6.407   4.774  0.1066  0.1177 -0.3479
 9644TIP3    H150423   1.386   6.492   4.763  0.2865 -0.0470 -0.9389
 9644TIP3    H250424   1.265   6.426   4.825  0.1220  0.6430 -0.5156
 9645TIP3   OH250425   1.231   0.475  10.572 -0.2046 -0.1284 -0.5337
 9645TIP3    H150426   1.258   0.403  10.630 -0.5773  0.3362  0.2310
 9645TIP3    H250427   1.199   0.431  10.493  3.8538 -0.7148 -2.0588
 9646TIP3   OH250428   0.807   1.553  16.005 -0.3149 -0.7446  0.2874
 9646TIP3    H150429   0.868   1.627  16.012 -0.7026 -0.2660 -1.0391
 9646TIP3    H250430   0.722   1.590  16.027 -0.7036 -0.4601 -1.5189
 9647TIP3   OH250431   2.978   4.341  15.718 -0.7731 -0.2814  0.2033
 9647TIP3    H150432   2.998   4.392  15.796  0.2204 -0.1177 -0.1387
 9647TIP3    H250433   2.975   4.405  15.647 -1.8226 -0.4068  0.1199
 9648TIP3   OH250434   0.018   3.906  12.243  0.2255 -0.0790  0.1715
 9648TIP3    H150435  -0.042   3.895  12.316 -1.6541  0.3624 -1.2325
 9648TIP3    H250436   0.096   3.947  12.282 -0.3389 -0.7135  2.0472
 9649TIP3   OH250437   1.462   6.576   5.615  1.1582 -0.3088  0.2340
 9649TIP3    H150438   1.477   6.547   5.525  0.3169  1.9897 -0.7336
 9649TIP3    H250439   1.453   6.496   5.666 -0.2114 -1.7105 -2.0558
 9650TIP3   OH250440   6.786   5.446   5.816 -0.3238 -0.3134 -0.0558
 9650TIP3    H150441   6.768   5.462   5.909 -1.4698 -0.5149 -0.2310
 9650TIP3    H250442   6.788   5.350   5.809 -1.0160 -0.3103 -0.3694
 9651TIP3   OH250443   3.588   4.234  13.382 -0.3733  0.4922  0.2847
 9651TIP3    H150444   3.525   4.284  13.330 -1.1132  0.7421  1.3861
 9651TIP3    H250445   3.656   4.297  13.407  1.4245 -0.1683 -2.4883
 9652TIP3   OH250446   2.481   4.823   6.168 -0.1241 -0.2208 -0.2353
 9652TIP3    H150447   2.546   4.767   6.126 -1.1374 -2.3580  0.8292
 9652TIP3    H250448   2.528   4.903   6.191  1.4238 -0.6450 -1.7912
 9653TIP3   OH250449   4.759   5.604   2.214 -0.3185 -0.1432 -0.3060
 9653TIP3    H150450   4.842   5.581   2.172 -1.1317  1.7131 -3.2307
 9653TIP3    H250451   4.696   5.608   2.142 -2.0342  2.4385  1.1723
 9654TIP3   OH250452   6.407   4.515  10.752  0.1429 -0.6735  0.4070
 9654TIP3    H150453   6.316   4.544  10.746  0.3726  0.2166  1.0909
 9654TIP3    H250454   6.436   4.507  10.661 -0.6730 -1.1376  0.1860
 9655TIP3   OH250455   3.414   1.620   3.594 -0.2415 -0.1679  0.5201
 9655TIP3    H150456   3.428   1.606   3.688  1.6380 -0.0845  0.2948
 9655TIP3    H250457   3.425   1.715   3.583  1.0196 -0.3483  0.0332
 9656TIP3   OH250458   5.761   3.349   3.980 -0.2282  0.2890 -0.6014
 9656TIP3    H150459   5.711   3.275   3.944  0.2985 -0.0687 -0.6172
 9656TIP3    H250460   5.696   3.418   3.993 -1.1369 -0.8466  1.3714
 9657TIP3   OH250461   1.005   0.673   3.796 -0.1353  0.3141  0.1545
 9657TIP3    H150462   1.035   0.582   3.801 -0.3940  0.0717 -1.8821
 9657TIP3    H250463   1.078   0.724   3.832 -0.0575 -0.6796  1.5052
 9658TIP3   OH250464   0.605   4.717   2.866 -0.6953  0.7183  0.3400
 9658TIP3    H150465   0.584   4.779   2.936 -1.4863  1.6049 -0.6438
 9658TIP3    H250466   0.564   4.635   2.894 -0.0280  0.7411  1.4449
 9659TIP3   OH250467   1.532   5.097  12.842  0.0127 -0.2237  0.4751
 9659TIP3    H150468   1.485   5.032  12.895 -2.2935  0.0132 -1.1420
 9659TIP3    H250469   1.541   5.056  12.756  2.0811  0.1055  0.4895
 9660TIP3   OH250470   2.145   1.728  13.654 -0.5903  0.3393  0.6466
 9660TIP3    H150471   2.100   1.672  13.717 -1.4246 -0.3036 -0.4819
 9660TIP3    H250472   2.218   1.675  13.621 -0.5646  0.4157  0.5782
 9661TIP3   OH250473   1.695   5.100  11.916  0.3435 -0.3011 -0.2915
 9661TIP3    H150474   1.615   5.052  11.939  1.1582 -0.8317  1.6566
 9661TIP3    H250475   1.744   5.105  11.998  1.2291  2.1501 -0.8909
 9662TIP3   OH250476   0.054   0.613  14.701 -0.1097  0.4049 -0.3915
 9662TIP3    H150477  -0.035   0.642  14.723  0.2561  0.7557  0.6990
 9662TIP3    H250478   0.062   0.526  14.741 -0.8576 -0.8575 -2.8032
 9663TIP3   OH250479   0.255   0.302   4.273 -0.0365  0.1844 -0.5532
 9663TIP3    H150480   0.211   0.254   4.203 -1.6131 -0.5561  0.8519
 9663TIP3    H250481   0.195   0.374   4.293 -0.1216 -0.1970  0.6609
 9664TIP3   OH250482   1.057   4.865   1.824 -0.0568  1.0012 -0.2295
 9664TIP3    H150483   1.000   4.795   1.792  0.8301 -1.5456  3.2047
 9664TIP3    H250484   1.142   4.848   1.784 -0.2714  1.2362 -0.7930
 9665TIP3   OH250485   2.903   0.542   0.780  0.1348 -0.3092  0.1007
 9665TIP3    H150486   2.840   0.558   0.710  0.5072  0.6744 -0.0225
 9665TIP3    H250487   2.879   0.605   0.848 -0.0434 -1.0639  0.7460
 9666TIP3   OH250488   4.171   2.145  16.920  0.1985 -0.0350 -0.1199
 9666TIP3    H150489   4.254   2.177  16.885 -0.1890  0.1940 -0.8645
 9666TIP3    H250490   4.162   2.188  17.005  1.2770 -0.7910  0.3937
 9667TIP3   OH250491   6.391   2.769  15.507  0.1434  0.1501 -0.0497
 9667TIP3    H150492   6.415   2.709  15.437 -1.5716 -0.1750 -0.4112
 9667TIP3    H250493   6.314   2.815  15.474 -0.6805  0.0272  1.5835
 9668TIP3   OH250494   5.451   2.591  14.270  0.9486  0.3110  0.1548
 9668TIP3    H150495   5.541   2.584  14.300  1.4076 -0.1709 -1.2562
 9668TIP3    H250496   5.426   2.502  14.247  0.6226  0.6349 -0.8186
 9669TIP3   OH250497   1.091   0.249  14.230  0.4480 -0.0717 -0.0503
 9669TIP3    H150498   1.017   0.305  14.254  1.3305  1.2647 -0.3234
 9669TIP3    H250499   1.168   0.300  14.254  1.3152 -0.3658 -2.0173
 9670TIP3   OH250500   2.073   5.221   0.224 -0.4311 -0.0524 -0.7379
 9670TIP3    H150501   2.078   5.306   0.179  0.3210  0.0353 -0.5183
 9670TIP3    H250502   1.991   5.225   0.274 -0.9316  0.1186 -1.5579
 9671TIP3   OH250503   3.450   1.629  15.558  0.1481 -0.5267  0.9487
 9671TIP3    H150504   3.520   1.691  15.581 -0.1224  0.3181 -0.3847
 9671TIP3    H250505   3.390   1.632  15.632  0.4945  0.2916  1.2112
 9672TIP3   OH250506   1.191   0.906  15.358  0.4273  0.1643 -0.1796
 9672TIP3    H150507   1.157   0.946  15.278 -1.8038 -2.2876 -0.6191
 9672TIP3    H250508   1.194   0.812  15.338  3.3798 -0.2106  1.4426
 9673TIP3   OH250509   2.652   6.591   2.531  0.4258  0.9775 -0.0769
 9673TIP3    H150510   2.582   6.582   2.595  2.7783  1.5298  2.7876
 9673TIP3    H250511   2.709   6.516   2.547  1.5693  1.6312 -0.8974
 9674TIP3   OH250512   3.437   0.414  11.173 -0.0435  0.1757  0.6503
 9674TIP3    H150513   3.434   0.324  11.205 -1.2145  0.2183  0.7361
 9674TIP3    H250514   3.394   0.410  11.088  1.2838  0.4016 -0.0422
 9675TIP3   OH250515   0.568   6.489   2.062 -0.3639 -0.5769 -0.1731
 9675TIP3    H150516   0.565   6.405   2.016 -1.4187 -0.4525 -0.3726
 9675TIP3    H250517   0.528   6.471   2.147  0.9504 -0.6453  0.4498
 9676TIP3   OH250518   2.948   3.464  11.407  0.9838  0.1448 -0.1309
 9676TIP3    H150519   2.962   3.409  11.484  0.3037 -0.3066 -0.3221
 9676TIP3    H250520   2.852   3.467  11.397  1.0889 -1.4540 -2.1369
 9677TIP3   OH250521   3.109   1.292   0.556 -0.3807  0.2749  0.4816
 9677TIP3    H150522   3.199   1.320   0.540 -0.4717  1.1991  1.5115
 9677TIP3    H250523   3.117   1.212   0.608 -0.1550 -0.6794 -0.9387
 9678TIP3   OH250524   2.491   2.101   0.961 -0.1317 -0.4785 -0.2281
 9678TIP3    H150525   2.503   2.195   0.946  1.6714 -0.9415 -2.0857
 9678TIP3    H250526   2.553   2.079   1.030  1.4903 -0.7420 -1.7014
 9679TIP3   OH250527   5.269   2.881   0.442 -0.0128 -0.7530 -0.0571
 9679TIP3    H150528   5.349   2.864   0.492  2.0218 -1.6175 -3.2835
 9679TIP3    H250529   5.265   2.809   0.378 -3.8871 -1.1883  0.4179
 9680TIP3   OH250530   1.665   4.560   3.097  0.0080 -0.0046  0.3154
 9680TIP3    H150531   1.658   4.465   3.112  2.7899 -0.5854 -1.2925
 9680TIP3    H250532   1.632   4.572   3.008  1.1026  0.2370 -0.0730
 9681TIP3   OH250533   4.556   4.754   5.880 -0.2393 -0.0856 -0.1148
 9681TIP3    H150534   4.605   4.687   5.929 -0.1676 -0.0662 -0.1596
 9681TIP3    H250535   4.465   4.728   5.890 -0.1422 -0.9107 -1.1702
 9682TIP3   OH250536   4.541   2.050   1.512  0.6487 -0.1962  0.2726
 9682TIP3    H150537   4.604   2.008   1.571  0.6892 -0.3946  0.0900
 9682TIP3    H250538   4.456   2.014   1.537  0.6736 -0.3278  0.1694
 9683TIP3   OH250539   6.411   6.153  11.031  0.0103 -0.3199  0.3572
 9683TIP3    H150540   6.409   6.227  11.092  0.1550  0.6415 -0.7843
 9683TIP3    H250541   6.332   6.163  10.978 -0.2566 -1.3061  0.5466
 9684TIP3   OH250542   4.584   0.858  11.898 -0.2304 -0.3704  1.0541
 9684TIP3    H150543   4.582   0.848  11.803  1.3633  0.9272  0.8267
 9684TIP3    H250544   4.677   0.871  11.919 -0.6021 -0.0710  2.7234
 9685TIP3   OH250545   5.333   2.025   4.277 -0.2646  0.1328 -0.1016
 9685TIP3    H150546   5.378   1.972   4.343 -0.8519 -0.1094  0.1092
 9685TIP3    H250547   5.402   2.079   4.239  0.7277 -1.9386 -1.4879
 9686TIP3   OH250548   0.238   2.991   4.549  0.4027  0.1613  0.4634
 9686TIP3    H150549   0.280   3.038   4.477  1.5395  1.6413  2.0137
 9686TIP3    H250550   0.242   3.052   4.623 -0.1961 -1.5140  1.9490
 9687TIP3   OH250551   1.221   5.816   3.865  0.7711 -0.0366 -0.1004
 9687TIP3    H150552   1.266   5.803   3.782  0.9271  0.1048 -0.0386
 9687TIP3    H250553   1.287   5.856   3.923 -0.1411  2.8008 -0.8350
 9688TIP3   OH250554   0.764   3.686  14.046  0.4938 -0.0231 -0.1140
 9688TIP3    H150555   0.848   3.641  14.042  0.5377  0.0091  0.4297
 9688TIP3    H250556   0.751   3.707  14.138 -0.8831 -1.4992  0.0650
 9689TIP3   OH250557   1.064   3.487   5.219 -0.1403  0.0221  0.2331
 9689TIP3    H150558   1.066   3.459   5.310  0.5334 -0.8609 -0.0380
 9689TIP3    H250559   0.975   3.470   5.190 -0.4109  0.4878  0.7745
 9690TIP3   OH250560   2.577   4.083  15.861 -0.1009 -0.2553  0.4912
 9690TIP3    H150561   2.553   3.991  15.846 -0.1952  0.0348 -1.3375
 9690TIP3    H250562   2.616   4.111  15.779  1.0484  1.0256  1.4303
 9691TIP3   OH250563   6.243   6.279   4.842  0.4120 -0.3801 -0.3245
 9691TIP3    H150564   6.264   6.372   4.854  0.5951 -0.4969  0.3250
 9691TIP3    H250565   6.162   6.279   4.792  0.1920  0.1423  0.0164
 9692TIP3   OH250566   0.223   3.578  14.882  0.4273  0.7283 -0.1795
 9692TIP3    H150567   0.257   3.646  14.824 -0.0573  1.6608  0.6112
 9692TIP3    H250568   0.139   3.612  14.912  0.6128  0.2148  0.9710
 9693TIP3   OH250569   1.211   1.411   0.537  0.1557 -0.1592 -0.0497
 9693TIP3    H150570   1.254   1.461   0.467  0.7868 -0.8803 -0.1895
 9693TIP3    H250571   1.259   1.434   0.616  1.5131 -1.7213 -0.3545
 9694TIP3   OH250572   4.591   1.705   5.625  0.1301 -0.5883 -0.2754
 9694TIP3    H150573   4.571   1.687   5.717  2.1873 -2.5649 -0.1477
 9694TIP3    H250574   4.656   1.640   5.601  0.5821  0.6751 -2.8032
 9695TIP3   OH250575   0.526   2.151   5.084  0.1581 -1.0574  0.8183
 9695TIP3    H150576   0.431   2.150   5.098  0.0227  0.1355  0.1409
 9695TIP3    H250577   0.541   2.090   5.012 -0.2158 -0.6253  0.3616
 9696TIP3   OH250578   5.095   5.057   5.038 -0.3352  0.1069  0.5006
 9696TIP3    H150579   5.141   5.032   4.958  0.7351  1.2097  0.7414
 9696TIP3    H250580   5.163   5.054   5.106 -1.3067 -1.1791  1.4516
 9697TIP3   OH250581   3.235   5.062   2.642 -0.2480 -0.0226 -0.3168
 9697TIP3    H150582   3.220   5.154   2.621 -1.0672  0.2337  1.2851
 9697TIP3    H250583   3.201   5.051   2.731 -0.3239 -1.9130 -0.5337
 9698TIP3   OH250584   0.369   2.628  15.928 -0.2821 -0.4709  0.1819
 9698TIP3    H150585   0.458   2.660  15.912  0.7411 -1.8879  2.4009
 9698TIP3    H250586   0.315   2.707  15.933  0.8204  0.4148 -1.2860
 9699TIP3   OH250587   3.668   6.348   1.676 -0.3855 -0.2738  0.2799
 9699TIP3    H150588   3.663   6.403   1.598  0.4969  0.4316  0.6932
 9699TIP3    H250589   3.590   6.371   1.727  0.3966  1.2914  0.8568
 9700TIP3   OH250590   3.945   4.486   1.269  0.1676 -0.0295  0.3968
 9700TIP3    H150591   4.019   4.535   1.305 -0.0695  1.6708 -1.2590
 9700TIP3    H250592   3.972   4.464   1.179 -1.4062  0.8701 -0.3343
 9701TIP3   OH250593   0.457   2.669   4.348 -0.2224 -0.2504  0.6163
 9701TIP3    H150594   0.546   2.637   4.336  0.3194  1.0970  0.8557
 9701TIP3    H250595   0.456   2.705   4.437 -1.6688 -2.2444  1.4996
 9702TIP3   OH250596   5.152   1.180  14.209  0.4724  0.5246 -0.1553
 9702TIP3    H150597   5.172   1.202  14.300  1.3500 -1.8439  0.3046
 9702TIP3    H250598   5.235   1.190  14.163  0.7520 -1.1091 -0.0490
 9703TIP3   OH250599   2.754   0.888  13.651  0.5752  0.8397  0.1139
 9703TIP3    H150600   2.799   0.874  13.735  0.2182 -1.6778 -0.0341
 9703TIP3    H250601   2.666   0.851  13.665  0.8578 -0.6187 -1.6545
 9704TIP3   OH250602   0.285   0.813   3.030  0.2384 -0.0612 -0.2919
 9704TIP3    H150603   0.224   0.831   2.958 -0.0752 -0.2832 -0.0808
 9704TIP3    H250604   0.268   0.883   3.093  0.4631  0.0914 -0.3982
 9705TIP3   OH250605   3.441   4.110   4.956 -0.4650 -0.6528 -0.4404
 9705TIP3    H150606   3.438   4.074   5.044 -2.6223 -1.2477 -0.7043
 9705TIP3    H250607   3.463   4.202   4.969  2.2116 -1.3243  0.4446
 9706TIP3   OH250608   5.566   1.643  11.509 -0.7340 -0.1031 -0.7840
 9706TIP3    H150609   5.605   1.658  11.423  0.5101  0.5337 -0.1354
 9706TIP3    H250610   5.562   1.730  11.549  0.7888 -0.6398  0.6445
 9707TIP3   OH250611   1.776   2.763  12.956 -0.2072  0.3142  0.1906
 9707TIP3    H150612   1.787   2.823  13.029 -1.3673  0.7045  0.0665
 9707TIP3    H250613   1.681   2.760  12.941  0.0033  0.3258 -1.3503
 9708TIP3   OH250614   3.267   3.227   5.727 -0.3214  0.1872  0.1721
 9708TIP3    H150615   3.206   3.251   5.657  0.5001  2.6365  0.1986
 9708TIP3    H250616   3.284   3.309   5.774  1.9131 -0.6687  1.0221
 9709TIP3   OH250617   4.209   6.260   5.645 -0.4653  0.1938 -0.8139
 9709TIP3    H150618   4.147   6.251   5.717  0.3625 -2.3257 -0.3149
 9709TIP3    H250619   4.161   6.232   5.567 -0.4677 -0.0289 -0.7312
 9710TIP3   OH250620   6.136   3.769   0.635  0.3423 -0.0189 -0.3201
 9710TIP3    H150621   6.182   3.836   0.584  0.6765  0.5633  0.7163
 9710TIP3    H250622   6.159   3.686   0.593  0.7761  0.4311 -0.9865
 9711TIP3   OH250623   4.559   0.407   4.041  0.1258  0.0821 -0.5590
 9711TIP3    H150624   4.628   0.451   4.090 -2.3611  2.0924  1.3885
 9711TIP3    H250625   4.572   0.314   4.059  0.7253  0.6018  2.0305
 9712TIP3   OH250626   6.692   5.274  12.911  0.2180 -0.2701 -0.3668
 9712TIP3    H150627   6.729   5.232  12.833  0.0871 -0.7202 -0.1888
 9712TIP3    H250628   6.698   5.368  12.893 -1.3506 -0.3685 -1.6397
 9713TIP3   OH250629   1.280   5.649  13.566  0.5548 -0.1375 -0.1787
 9713TIP3    H150630   1.209   5.713  13.558  0.0988 -0.5662  0.3652
 9713TIP3    H250631   1.355   5.692  13.526  0.5133  1.1684  1.0623
 9714TIP3   OH250632   3.261   1.322  11.933  0.1094 -0.0847 -0.8164
 9714TIP3    H150633   3.340   1.280  11.968 -0.3315 -0.4468 -0.2361
 9714TIP3    H250634   3.215   1.355  12.011  1.4599  3.4161 -1.3105
 9715TIP3   OH250635   1.443   1.770  15.572 -0.1667 -0.4761 -0.3332
 9715TIP3    H150636   1.352   1.740  15.575 -1.2882  2.5818  0.9436
 9715TIP3    H250637   1.466   1.788  15.663  1.0456  0.5812 -0.8119
 9716TIP3   OH250638   0.027   5.494  11.561 -0.1190  0.5394  0.4897
 9716TIP3    H150639   0.030   5.574  11.613  0.2243  0.4783  0.5645
 9716TIP3    H250640   0.003   5.425  11.623  0.0976  0.4988  0.5284
 9717TIP3   OH250641   4.596   5.507   4.278 -0.1404  0.5749  1.1406
 9717TIP3    H150642   4.506   5.477   4.261 -0.2460  0.8838  1.1363
 9717TIP3    H250643   4.651   5.438   4.242 -0.3309  1.7102 -1.6754
 9718TIP3   OH250644   6.181   4.364  14.989 -0.1119 -0.1709 -0.0940
 9718TIP3    H150645   6.101   4.317  14.966 -0.1801  1.1113 -2.7037
 9718TIP3    H250646   6.217   4.394  14.906  2.6654  0.0330  1.0634
 9719TIP3   OH250647   6.209   2.066  11.872  0.6352 -0.3654  0.6122
 9719TIP3    H150648   6.257   1.988  11.900  0.7344 -1.3658 -2.0671
 9719TIP3    H250649   6.242   2.084  11.784 -0.2251  2.0482  0.7134
 9720TIP3   OH250650   4.211   3.813  11.666  0.3334 -0.4985  0.7848
 9720TIP3    H150651   4.238   3.783  11.580 -0.8015 -3.0620  1.2271
 9720TIP3    H250652   4.154   3.888  11.649  0.1141 -0.9730 -0.6984
 9721TIP3   OH250653   3.322   2.251  14.380 -0.0465 -0.2522  0.0361
 9721TIP3    H150654   3.403   2.247  14.329  0.0029 -1.0224  0.1707
 9721TIP3    H250655   3.261   2.300  14.325  0.1115 -0.7789 -0.6161
 9722TIP3   OH250656   1.666   0.229  15.088  0.4219  0.6804 -0.4323
 9722TIP3    H150657   1.629   0.317  15.102  1.8365  1.1269  0.7669
 9722TIP3    H250658   1.731   0.241  15.019  0.5818  0.5798 -0.3007
 9723TIP3   OH250659   6.610   1.169  10.767 -0.4840 -0.2357 -0.4015
 9723TIP3    H150660   6.699   1.185  10.799 -1.0764  1.1243  0.6735
 9723TIP3    H250661   6.621   1.111  10.692  1.4826  1.2095 -1.3279
 9724TIP3   OH250662   6.278   2.270  12.041  0.0807 -0.6072 -0.1638
 9724TIP3    H150663   6.248   2.198  11.986  1.5385 -0.8355 -0.7092
 9724TIP3    H250664   6.365   2.242  12.072  0.1713  0.4148  0.5625
 9725TIP3   OH250665   6.156   1.430  13.506  0.4057  0.7270 -0.4976
 9725TIP3    H150666   6.187   1.511  13.465  1.8889 -0.1825 -1.2745
 9725TIP3    H250667   6.137   1.372  13.433 -0.6120  0.3383  0.0548
 9726TIP3   OH250668   1.960   3.799  12.017  0.0415  0.4476 -0.2620
 9726TIP3    H150669   2.005   3.773  11.937  0.2325  1.1180 -0.3738
 9726TIP3    H250670   1.948   3.894  12.010  1.6136  0.8157  1.2543
 9727TIP3   OH250671   5.378   5.153   1.620  0.0639 -0.4565  0.1658
 9727TIP3    H150672   5.350   5.144   1.711  0.5301 -0.3505  0.3228
 9727TIP3    H250673   5.455   5.209   1.625  0.1937 -0.5967 -0.2778
 9728TIP3   OH250674   4.249   0.546  16.027 -0.5422  0.0912 -0.2725
 9728TIP3    H150675   4.303   0.489  15.972 -0.0439 -0.2534  0.5568
 9728TIP3    H250676   4.312   0.591  16.083 -1.0379  0.4886 -0.0304
 9729TIP3   OH250677   1.040   6.207  14.982  0.1851  0.1833  0.7626
 9729TIP3    H150678   1.030   6.149  15.058  1.3483  0.0975  0.8708
 9729TIP3    H250679   1.088   6.154  14.919  0.3197  0.6745  0.4521
 9730TIP3   OH250680   5.312   1.370  15.039  0.2762  0.1372  1.0769
 9730TIP3    H150681   5.218   1.388  15.034  0.2667 -0.1389 -0.0909
 9730TIP3    H250682   5.318   1.276  15.054  0.3592  0.0633  0.6063
 9731TIP3   OH250683   1.893   3.907   2.213 -0.4467 -0.5140 -0.6674
 9731TIP3    H150684   1.797   3.906   2.215 -0.5157  0.8922 -1.4380
 9731TIP3    H250685   1.916   3.995   2.241  0.7764 -1.6574  2.2117
 9732TIP3   OH250686   4.821   0.863   3.980 -0.2012 -0.4541  0.0228
 9732TIP3    H150687   4.843   0.867   3.887 -0.1511 -1.1870 -0.0039
 9732TIP3    H250688   4.906   0.860   4.025 -0.2084  0.7814  0.1518
 9733TIP3   OH250689   0.056   0.465  12.777 -0.7902 -0.1047 -0.8890
 9733TIP3    H150690   0.098   0.474  12.692 -1.6388  0.5577 -1.2548
 9733TIP3    H250691   0.076   0.375  12.804 -1.4719 -0.7319 -2.3264
 9734TIP3   OH250692   5.751   2.057   3.580  0.9106 -0.5127 -0.6198
 9734TIP3    H150693   5.687   2.013   3.524 -0.4691 -0.0666  0.5298
 9734TIP3    H250694   5.826   2.074   3.523 -0.5606  0.2390 -2.4411
 9735TIP3   OH250695   4.513   6.615   0.957  0.0852 -0.2702 -0.3093
 9735TIP3    H150696   4.453   6.588   1.025  2.0176  0.5414  1.8494
 9735TIP3    H250697   4.548   6.534   0.921 -1.1740 -0.7087 -0.5950
 9736TIP3   OH250698   5.168   5.412   4.287  0.3700 -0.0814  0.6629
 9736TIP3    H150699   5.248   5.447   4.247 -0.1757  0.5751  0.1229
 9736TIP3    H250700   5.195   5.389   4.376  1.4387 -0.9648  0.1401
 9737TIP3   OH250701   0.424   3.914   1.752 -0.0390  0.0620 -0.3881
 9737TIP3    H150702   0.476   3.989   1.723  1.1660  0.2272  1.9694
 9737TIP3    H250703   0.333   3.946   1.749  0.2025  0.6983 -1.9000
 9738TIP3   OH250704   6.713   1.980  11.319 -0.3200  0.2738 -0.3672
 9738TIP3    H150705   6.635   1.933  11.288 -0.4797  0.3158 -0.0336
 9738TIP3    H250706   6.784   1.917  11.310 -0.8327 -0.7502  1.8534
 9739TIP3   OH250707   6.619   6.333  11.618 -0.2802  0.3781 -0.1728
 9739TIP3    H150708   6.684   6.341  11.548  0.2562 -0.6598  0.1897
 9739TIP3    H250709   6.627   6.243  11.649 -1.6355  0.3392  0.1407
 9740TIP3   OH250710   0.250   0.058   5.471  0.4272 -0.2318 -0.3743
 9740TIP3    H150711   0.218  -0.026   5.436  0.2472  0.0744 -0.9540
 9740TIP3    H250712   0.286   0.103   5.395  0.9945  0.0046  0.0337
 9741TIP3   OH250713   0.064   0.441   2.366 -0.1845  0.3276  0.0947
 9741TIP3    H150714   0.023   0.448   2.280 -1.5253 -0.4117  0.6399
 9741TIP3    H250715   0.068   0.531   2.398 -0.2622  0.5391 -0.4772
 9742TIP3   OH250716   5.094   5.075   4.555 -0.0194  0.1362  0.4532
 9742TIP3    H150717   5.013   5.113   4.522  0.2077  0.9743  0.8228
 9742TIP3    H250718   5.067   5.021   4.629 -0.2597  0.3465  0.5200
 9743TIP3   OH250719   1.879   1.069  12.761  0.0549 -0.2735 -0.2750
 9743TIP3    H150720   1.933   1.000  12.723  0.5762  0.5003 -0.9634
 9743TIP3    H250721   1.794   1.027  12.777  1.0051 -1.6659  1.3803
 9744TIP3   OH250722   1.874   4.272  11.186 -0.0743  0.2035 -0.5563
 9744TIP3    H150723   1.921   4.284  11.103 -1.3036 -1.1476 -1.4963
 9744TIP3    H250724   1.935   4.304  11.253  0.8897  1.4715 -1.9799
 9745TIP3   OH250725   0.952   5.514   3.485 -0.3614 -0.7401 -0.0870
 9745TIP3    H150726   0.962   5.440   3.545 -0.7589 -0.4825  0.3040
 9745TIP3    H250727   1.008   5.582   3.522  0.2110 -0.9238 -0.5916
 9746TIP3   OH250728   5.604   6.347   1.355 -0.2823  0.2929  0.2923
 9746TIP3    H150729   5.606   6.417   1.290 -1.1838 -1.0580 -1.2671
 9746TIP3    H250730   5.564   6.387   1.432 -1.1297  1.3878 -0.6818
 9747TIP3   OH250731   2.740   5.213   6.341 -0.3310  0.1440  0.0593
 9747TIP3    H150732   2.677   5.149   6.307 -1.4565  0.4392  1.4841
 9747TIP3    H250733   2.719   5.293   6.293 -0.0756 -0.1155 -0.4934
 9748TIP3   OH250734   3.442   6.353  16.655 -0.4924  0.0694  0.3562
 9748TIP3    H150735   3.452   6.448  16.646 -0.4280 -0.0546 -1.1922
 9748TIP3    H250736   3.529   6.318  16.634 -0.4652 -0.3252  1.1191
 9749TIP3   OH250737   6.350   6.394   1.641 -0.2352 -0.3575 -0.3867
 9749TIP3    H150738   6.360   6.444   1.560 -0.0143  1.0613  0.4970
 9749TIP3    H250739   6.361   6.458   1.711 -1.8891 -1.2644  0.7730
 9750TIP3   OH250740   6.240   2.142  16.721  0.0922  0.2640  0.3166
 9750TIP3    H150741   6.181   2.092  16.777 -0.0272 -1.9343 -1.6261
 9750TIP3    H250742   6.182   2.198  16.670  0.1283  1.5200  1.5733
 9751TIP3   OH250743   4.111   5.776   4.189  0.3766  0.1952 -0.3516
 9751TIP3    H150744   4.063   5.697   4.167  0.9939 -0.4256  0.4592
 9751TIP3    H250745   4.195   5.767   4.143  0.6125  0.1767  0.0817
 9752TIP3   OH250746   3.107   6.694   2.983  0.3190  0.3177  0.2459
 9752TIP3    H150747   3.074   6.610   3.017  0.8970 -0.3895 -0.8720
 9752TIP3    H250748   3.194   6.702   3.022 -0.4399  1.3592  1.8526
 9753TIP3   OH250749   5.758   3.668   5.635 -0.1390 -0.0863  0.6817
 9753TIP3    H150750   5.813   3.642   5.561  0.1003  1.0556  0.4257
 9753TIP3    H250751   5.790   3.755   5.658 -0.2975 -0.3840  2.0677
 9754TIP3   OH250752   2.818   1.024  13.428 -0.7254 -0.0053  0.1201
 9754TIP3    H150753   2.783   1.113  13.423  1.2737  0.8017 -1.2331
 9754TIP3    H250754   2.837   1.011  13.520 -1.3728  0.8497  0.3853
 9755TIP3   OH250755   6.595   2.984   5.117 -0.0393 -0.0533  0.8393
 9755TIP3    H150756   6.681   3.027   5.115  0.5344 -1.1606  0.4740
 9755TIP3    H250757   6.538   3.043   5.068  1.0840 -0.3981 -0.9876
 9756TIP3   OH250758   4.417   5.484  11.863  0.0095 -0.1843 -0.0862
 9756TIP3    H150759   4.469   5.452  11.937  0.8656  1.3957  0.0296
 9756TIP3    H250760   4.349   5.417  11.851 -0.7307 -0.0703  2.7267
 9757TIP3   OH250761   5.480   3.085  16.949 -0.2868  0.6157  0.0236
 9757TIP3    H150762   5.505   3.174  16.924 -1.9204  1.1372  0.1160
 9757TIP3    H250763   5.444   3.095  17.038 -2.0784  0.1800 -0.6240
 9758TIP3   OH250764   6.163   3.354   5.584 -0.5966 -0.1481  0.0123
 9758TIP3    H150765   6.103   3.391   5.519  0.6249  0.7868 -0.6139
 9758TIP3    H250766   6.245   3.400   5.570 -0.4789  0.6319  2.7255
 9759TIP3   OH250767   4.182   0.810  13.723 -0.0960 -0.0149  0.7961
 9759TIP3    H150768   4.138   0.821  13.808 -0.1343  0.5620  0.7099
 9759TIP3    H250769   4.115   0.773  13.666 -1.0224  2.3442  0.2289
 9760TIP3   OH250770   2.556   1.220   3.798  0.1590 -0.6091 -0.0278
 9760TIP3    H150771   2.461   1.210   3.800  0.1155 -0.2060  0.0791
 9760TIP3    H250772   2.585   1.161   3.728 -0.1938 -0.5338 -0.2426
 9761TIP3   OH250773   4.488   0.121   4.299  0.1931 -0.3352 -0.3618
 9761TIP3    H150774   4.545   0.083   4.366  0.2675  1.2114  0.4793
 9761TIP3    H250775   4.541   0.122   4.220  0.2400 -1.8158 -0.3873
 9762TIP3   OH250776   4.305   5.058  13.875  0.1707 -0.5963  0.2649
 9762TIP3    H150777   4.328   5.061  13.968  1.0715  0.7161  0.0263
 9762TIP3    H250778   4.343   4.976  13.844 -1.3152 -1.7419  1.3194
 9763TIP3   OH250779   4.483   1.441  14.982  0.2622 -0.0499  0.6987
 9763TIP3    H150780   4.427   1.367  14.958  3.2619 -1.9554 -1.0098
 9763TIP3    H250781   4.547   1.404  15.043  1.4255  1.3211  0.3524
 9764TIP3   OH250782   4.478   0.619  12.213  0.3797 -0.3963 -0.0847
 9764TIP3    H150783   4.410   0.673  12.174  0.2267 -0.5974 -0.0948
 9764TIP3    H250784   4.538   0.682  12.253  0.5008 -0.1892 -0.5822
 9765TIP3   OH250785   3.780   2.177  11.676  0.2770  0.1170 -0.1659
 9765TIP3    H150786   3.861   2.219  11.646 -0.1054  1.1170  0.1741
 9765TIP3    H250787   3.805   2.133  11.758  0.3756  0.8415  0.2036
 9766TIP3   OH250788   4.178   1.152  10.996 -0.0824 -0.1616 -0.2972
 9766TIP3    H150789   4.141   1.204  10.924  2.4139 -2.3758 -3.4954
 9766TIP3    H250790   4.271   1.173  10.994  0.4587 -2.3172  0.4469
 9767TIP3   OH250791   5.468   0.736   4.772  0.4309  0.1459 -0.6696
 9767TIP3    H150792   5.526   0.812   4.774  0.3196  0.4780 -3.9205
 9767TIP3    H250793   5.381   0.772   4.793  0.5787  0.6770 -0.9477
 9768TIP3   OH250794   0.434   2.775   1.783 -0.2258 -0.2259 -0.3648
 9768TIP3    H150795   0.432   2.721   1.703 -0.0927 -0.4650 -0.2107
 9768TIP3    H250796   0.520   2.756   1.821  0.0536  0.5416 -0.6107
 9769TIP3   OH250797   0.545   1.858   0.526 -0.6253 -0.0827  0.0497
 9769TIP3    H150798   0.577   1.839   0.614  0.1505 -0.7278 -0.3678
 9769TIP3    H250799   0.476   1.793   0.511 -1.4132  0.6150  0.5228
 9770TIP3   OH250800   2.365   3.453   5.173 -0.5873 -0.3223 -0.3318
 9770TIP3    H150801   2.319   3.383   5.219 -2.2240  0.5813 -0.4746
 9770TIP3    H250802   2.294   3.504   5.131  0.5857  0.9836 -0.8129
 9771TIP3   OH250803   3.790   3.377  12.326  0.4591  0.0183 -0.2038
 9771TIP3    H150804   3.766   3.289  12.298  0.9857 -0.0245 -0.5349
 9771TIP3    H250805   3.715   3.408  12.377  0.9272 -1.2402  1.3109
 9772TIP3   OH250806   1.083   6.480   0.754  0.4250 -0.2063  0.0419
 9772TIP3    H150807   1.149   6.548   0.763  0.6627 -0.1916 -1.5454
 9772TIP3    H250808   1.120   6.418   0.692 -0.5393 -0.8438  0.0711
 9773TIP3   OH250809   4.974   4.422   6.144  0.0021 -0.3922  0.4142
 9773TIP3    H150810   4.902   4.382   6.096  1.7257 -0.7273 -2.1032
 9773TIP3    H250811   5.029   4.349   6.171  1.4765 -0.0513 -1.3773
 9774TIP3   OH250812   0.222   0.001  13.826 -0.2035  0.4640 -0.1188
 9774TIP3    H150813   0.282  -0.008  13.753 -0.8395  0.2820 -0.6333
 9774TIP3    H250814   0.272   0.048  13.893  0.9686 -0.8908  0.0049
 9775TIP3   OH250815   5.773   0.647  12.284  0.1588 -0.5630  0.2269
 9775TIP3    H150816   5.810   0.562  12.260  0.3109 -0.9053  1.6047
 9775TIP3    H250817   5.844   0.692  12.329  0.2486  0.5269 -0.9438
 9776TIP3   OH250818   5.411   6.350  14.505  0.0285  0.6975  0.2356
 9776TIP3    H150819   5.487   6.330  14.450  0.3760  1.0702  0.5671
 9776TIP3    H250820   5.426   6.299  14.585  0.7589  1.9930  0.9575
 9777TIP3   OH250821   1.227   4.672   0.096 -0.0896  0.2157  0.2799
 9777TIP3    H150822   1.240   4.764   0.075  0.8573 -0.1138 -0.6926
 9777TIP3    H250823   1.212   4.630   0.011 -3.4138 -0.1288  0.9170
 9778TIP3   OH250824   5.678   5.802  12.947 -0.0070 -0.1808 -0.1416
 9778TIP3    H150825   5.665   5.829  12.856 -0.9941  0.1845  0.0933
 9778TIP3    H250826   5.720   5.717  12.941 -0.3548 -0.3034 -0.9453
 9779TIP3   OH250827   4.294   1.948   1.305  0.3943  0.0786  0.2391
 9779TIP3    H150828   4.324   1.972   1.217 -0.9441 -0.5707 -0.4349
 9779TIP3    H250829   4.261   2.030   1.342 -1.2071 -0.0532 -0.8019
 9780TIP3   OH250830   6.438   0.224  17.001  0.0952  0.4016 -0.5164
 9780TIP3    H150831   6.493   0.300  16.982 -0.5176  0.4271 -2.3238
 9780TIP3    H250832   6.460   0.201  17.091  1.7535  1.4955 -0.6020
 9781TIP3   OH250833   2.917   0.374  12.305  0.0820  0.1103  0.1986
 9781TIP3    H150834   2.835   0.326  12.318 -0.2857  0.2803 -1.3141
 9781TIP3    H250835   2.973   0.313  12.258  0.7373  0.1069  0.9555
 9782TIP3   OH250836   4.379   4.204   3.852  0.1706  0.1016  0.4674
 9782TIP3    H150837   4.434   4.217   3.930  1.5795  0.4208 -0.5337
 9782TIP3    H250838   4.423   4.254   3.784 -1.4656  0.4621 -0.3689
 9783TIP3   OH250839   5.203   4.883   0.408 -0.1145 -0.1583 -0.0863
 9783TIP3    H150840   5.255   4.949   0.362  0.4248 -0.1005  0.5898
 9783TIP3    H250841   5.268   4.834   0.459 -0.6811 -0.3342  0.4738
 9784TIP3   OH250842   4.102   4.926  13.296  0.4473 -0.7035 -0.1167
 9784TIP3    H150843   4.142   4.992  13.239  0.3376  0.9159  1.5749
 9784TIP3    H250844   4.015   4.962  13.315 -0.2886 -2.1973 -0.4955
 9785TIP3   OH250845   6.640   5.566  11.094  0.8426 -0.2892  0.7353
 9785TIP3    H150846   6.696   5.488  11.091  1.4076  0.1327 -0.3671
 9785TIP3    H250847   6.697   5.638  11.068  0.0421  0.3113  0.5839
 9786TIP3   OH250848   3.549   3.343   3.669  0.1513  0.4575  0.0002
 9786TIP3    H150849   3.539   3.430   3.707 -0.5770  0.2965  0.1954
 9786TIP3    H250850   3.489   3.288   3.719 -0.0396  0.0249 -0.6924
 9787TIP3   OH250851   5.122   6.638   5.595  0.6098 -0.3811  0.3361
 9787TIP3    H150852   5.169   6.621   5.677  0.2301 -0.7871  0.4742
 9787TIP3    H250853   5.166   6.581   5.531  1.9544  1.0989 -0.1306
 9788TIP3   OH250854   4.963   3.460  12.947  0.0307 -0.2042  0.1787
 9788TIP3    H150855   4.891   3.489  12.891 -0.1211  0.4215  0.6899
 9788TIP3    H250856   5.039   3.509  12.916  0.0620 -0.2605  0.1669
 9789TIP3   OH250857   3.280   0.938   4.056  0.4295 -0.2011  0.0559
 9789TIP3    H150858   3.260   0.850   4.086  1.2549 -1.0588 -1.7612
 9789TIP3    H250859   3.200   0.988   4.072  0.0208 -1.2063  1.2768
 9790TIP3   OH250860   3.456   3.292   5.473  0.0183 -0.1057 -0.1808
 9790TIP3    H150861   3.377   3.266   5.519  0.4940 -1.2061  0.0477
 9790TIP3    H250862   3.434   3.285   5.380 -0.3316  0.2056 -0.1243
 9791TIP3   OH250863   0.578   1.552   2.204  0.4391  0.6131 -0.3825
 9791TIP3    H150864   0.564   1.520   2.115  0.1870 -1.2351  0.2855
 9791TIP3    H250865   0.669   1.532   2.222  0.5362  1.1432 -0.2689
 9792TIP3   OH250866   5.927   3.463  15.912 -0.3385 -0.3506  0.3886
 9792TIP3    H150867   5.966   3.539  15.954  0.0971 -1.1236  1.4239
 9792TIP3    H250868   5.983   3.389  15.938  1.6724 -0.5791 -3.7239
 9793TIP3   OH250869   4.699   1.059  14.602 -0.4527  0.5179 -0.3150
 9793TIP3    H150870   4.638   1.124  14.565 -0.6240  0.3987 -0.2439
 9793TIP3    H250871   4.771   1.112  14.637 -0.4654  0.6539 -0.4913
 9794TIP3   OH250872   0.036   3.095   5.148 -0.6227  0.3157  0.3904
 9794TIP3    H150873   0.095   3.064   5.217 -0.9734  0.6130  0.8292
 9794TIP3    H250874   0.092   3.149   5.092  0.3251 -2.1059 -1.1510
 9795TIP3   OH250875   1.953   0.236  13.823 -0.0892  0.6377  1.0158
 9795TIP3    H150876   1.980   0.163  13.767 -1.2643  1.1412 -0.2622
 9795TIP3    H250877   2.021   0.302  13.810 -0.8350  1.1119 -0.5703
 9796TIP3   OH250878   4.783   2.900  13.874  0.3663  0.1622  0.8518
 9796TIP3    H150879   4.816   2.890  13.964 -0.3913 -0.5357  1.0731
 9796TIP3    H250880   4.740   2.816  13.856  1.0063  0.0749 -0.3830
 9797TIP3   OH250881   3.522   0.684   1.446  0.0680 -0.1339  0.0153
 9797TIP3    H150882   3.470   0.741   1.389 -1.3533 -0.5536  0.8607
 9797TIP3    H250883   3.588   0.742   1.484 -0.9512  0.8324  0.3641
 9798TIP3   OH250884   1.469   0.734  15.646 -0.0932  0.0767  0.3461
 9798TIP3    H150885   1.448   0.643  15.667 -1.9414  0.9970  2.9405
 9798TIP3    H250886   1.552   0.751  15.692  0.6766 -0.4591 -0.7922
 9799TIP3   OH250887   4.836   2.911  11.620  0.0069 -0.4409 -0.4558
 9799TIP3    H150888   4.755   2.910  11.672 -0.6402 -0.4666 -1.4414
 9799TIP3    H250889   4.887   2.983  11.658 -1.3593  0.9228 -1.1137
 9800TIP3   OH250890   6.081   2.823  13.591 -0.1087  0.3054  0.0414
 9800TIP3    H150891   6.121   2.743  13.559 -1.4872 -0.8147  0.9937
 9800TIP3    H250892   6.088   2.818  13.687 -1.6164  0.5264  0.1943
 9801TIP3   OH250893   4.510   1.262  15.737 -0.1839 -0.4119  0.2451
 9801TIP3    H150894   4.599   1.294  15.750 -0.3804 -0.1265  0.9264
 9801TIP3    H250895   4.485   1.295  15.650 -0.1361  0.7248  0.6423
 9802TIP3   OH250896   2.444   5.658   4.293  0.8476 -0.0728 -0.7561
 9802TIP3    H150897   2.482   5.743   4.316  3.1193 -1.5158  1.4384
 9802TIP3    H250898   2.380   5.678   4.225 -0.1939  3.6216  1.0175
 9803TIP3   OH250899   1.132   1.655   5.468 -0.0520 -0.6873  0.3821
 9803TIP3    H150900   1.106   1.742   5.437 -1.7903 -1.2922  0.0227
 9803TIP3    H250901   1.091   1.647   5.554 -0.7972 -1.5326 -0.0350
 9804TIP3   OH250902   4.829   2.696  14.712 -0.8131 -0.0130 -0.4532
 9804TIP3    H150903   4.923   2.683  14.699 -0.8079  0.7284 -1.2245
 9804TIP3    H250904   4.824   2.753  14.788 -0.6731 -0.7129  0.0880
 9805TIP3   OH250905   5.700   1.774   4.891  0.1879 -0.2812 -0.0976
 9805TIP3    H150906   5.633   1.841   4.877  0.1194 -0.5181 -1.0214
 9805TIP3    H250907   5.658   1.692   4.864  0.8821 -0.4140 -0.8105
 9806TIP3   OH250908   1.111   6.646   4.145 -0.2703 -1.0881 -0.7701
 9806TIP3    H150909   1.132   6.725   4.095 -0.6299 -1.1246 -0.9838
 9806TIP3    H250910   1.022   6.662   4.178  0.3064 -0.6853  0.6114
 9807TIP3   OH250911   6.811   2.025  14.667  0.3425  0.2278  0.0790
 9807TIP3    H150912   6.820   2.009  14.761 -0.9757  0.2365  0.2221
 9807TIP3    H250913   6.734   2.082  14.660 -0.5885 -1.1270 -1.1303
 9808TIP3   OH250914   2.765   4.842  16.380  0.3236  0.6837  0.0447
 9808TIP3    H150915   2.707   4.782  16.333 -0.0758  0.3586  0.9330
 9808TIP3    H250916   2.723   4.928  16.372 -1.2270  0.2019  2.0868
 9809TIP3   OH250917   1.868   4.642  11.419  0.1253  0.0681 -0.0452
 9809TIP3    H150918   1.956   4.659  11.384  0.8535  0.5399  1.8833
 9809TIP3    H250919   1.846   4.555  11.384  0.6675  0.6040 -1.8205
 9810TIP3   OH250920   3.291   1.797   1.473  0.4089 -0.4155 -0.1802
 9810TIP3    H150921   3.302   1.816   1.566 -1.5079 -1.3254  0.2730
 9810TIP3    H250922   3.330   1.710   1.461  0.5641 -0.3419 -0.2146
 9811TIP3   OH250923   5.239   1.273   2.317 -0.7046 -0.0648 -0.3110
 9811TIP3    H150924   5.176   1.238   2.379  0.2392  0.5532  1.0761
 9811TIP3    H250925   5.302   1.202   2.303 -2.8652 -1.5466 -3.5668
 9812TIP3   OH250926   5.837   3.905   3.820  0.6002 -0.3585  0.7996
 9812TIP3    H150927   5.760   3.932   3.771  1.6520  0.2591 -0.5647
 9812TIP3    H250928   5.819   3.933   3.910 -0.1273  1.1262  0.2213
 9813TIP3   OH250929   5.698   4.108  11.548 -0.0532  0.4368 -0.2378
 9813TIP3    H150930   5.711   4.071  11.636  0.4017 -0.8285 -0.8214
 9813TIP3    H250931   5.610   4.079  11.523 -0.3742  1.1967 -0.0275
 9814TIP3   OH250932   4.079   3.410   0.010 -0.2234  0.2002  0.4715
 9814TIP3    H150933   3.998   3.442   0.050 -0.4966 -0.4920  0.4950
 9814TIP3    H250934   4.075   3.441  -0.080 -0.9756 -0.5997  0.2127
 9815TIP3   OH250935   3.531   0.072   3.201  0.1822  0.1737 -0.4250
 9815TIP3    H150936   3.465   0.056   3.134 -1.4577 -0.5070  1.2515
 9815TIP3    H250937   3.488   0.048   3.283  1.5024  2.5661  1.0865
 9816TIP3   OH250938   3.357   3.465   5.853  0.6397  0.7743  0.3307
 9816TIP3    H150939   3.419   3.419   5.909  0.5193  0.1019 -0.0646
 9816TIP3    H250940   3.271   3.444   5.890  0.6116  1.1514  0.4823
 9817TIP3   OH250941   3.395   3.771  16.632  0.4048 -0.5063  0.2234
 9817TIP3    H150942   3.486   3.751  16.610  0.1527  0.5439 -1.9577
 9817TIP3    H250943   3.346   3.756  16.551 -1.3032 -0.5258  1.2090
 9818TIP3   OH250944   4.222   2.140   5.725  0.1988  0.3925  0.0691
 9818TIP3    H150945   4.132   2.172   5.716  0.3972  0.9642  0.0807
 9818TIP3    H250946   4.223   2.096   5.810 -0.4109 -0.7938 -0.5095
 9819TIP3   OH250947   4.912   2.926   0.255 -0.2671  0.1839  0.0141
 9819TIP3    H150948   4.847   2.866   0.217 -1.4462  2.4376 -1.7662
 9819TIP3    H250949   4.880   2.943   0.344 -0.0939 -1.4589  0.4387
 9820TIP3   OH250950   6.745   1.376  13.230 -0.8684  0.1440 -0.3765
 9820TIP3    H150951   6.682   1.306  13.211 -0.7010  0.5576 -2.8313
 9820TIP3    H250952   6.690   1.452  13.249 -1.0602 -0.1369  0.2446
 9821TIP3   OH250953   5.974   6.109   5.456 -0.0051 -0.1228  0.1384
 9821TIP3    H150954   6.049   6.079   5.507 -0.3756 -1.0307  0.1786
 9821TIP3    H250955   6.010   6.132   5.370  0.4223  0.1441  0.3876
 9822TIP3   OH250956   2.771   2.535   3.857  0.4869 -0.7908 -0.5888
 9822TIP3    H150957   2.761   2.545   3.952 -0.9938  5.5690 -0.9196
 9822TIP3    H250958   2.694   2.485   3.830 -0.1932 -0.9203  1.3973
 9823TIP3   OH250959   5.610   5.965  17.122 -0.5912 -0.0735 -0.0597
 9823TIP3    H150960   5.558   6.012  17.057 -0.7094  0.9581  0.7671
 9823TIP3    H250961   5.681   5.926  17.071 -1.6752 -0.8093 -1.0786
 9824TIP3   OH250962   0.703   3.276  16.800 -0.3000  0.0241 -0.3786
 9824TIP3    H150963   0.667   3.240  16.881 -0.4636  0.5317 -0.2272
 9824TIP3    H250964   0.791   3.237  16.794  0.0472  0.6560  0.4877
 9825TIP3   OH250965   4.460   3.152  13.695  0.3005  0.4419  0.2952
 9825TIP3    H150966   4.522   3.224  13.706  0.8600  0.1221 -0.6694
 9825TIP3    H250967   4.381   3.193  13.660  0.5023  0.6264  0.0578
 9826TIP3   OH250968   3.693   0.727   1.745 -0.0416  0.2641 -0.4098
 9826TIP3    H150969   3.612   0.683   1.721 -0.3431  1.1657 -1.1123
 9826TIP3    H250970   3.751   0.711   1.671  1.7067 -3.2795  1.4663
 9827TIP3   OH250971   4.334   4.901  11.672 -0.1296 -0.0223  1.0361
 9827TIP3    H150972   4.278   4.824  11.679 -0.0215  0.0327  3.7785
 9827TIP3    H250973   4.390   4.896  11.750  2.1115  1.1385 -0.4236
 9828TIP3   OH250974   4.672   5.479  16.205 -0.0545 -0.4156  0.2693
 9828TIP3    H150975   4.602   5.537  16.236 -1.9921 -2.4987  0.1188
 9828TIP3    H250976   4.688   5.508  16.115  0.0733  0.7921  0.6675
 9829TIP3   OH250977   6.297   1.985   5.299  0.1290  0.1284  0.2252
 9829TIP3    H150978   6.316   1.892   5.291  1.5715  0.5138 -1.3865
 9829TIP3    H250979   6.216   1.989   5.350 -0.4901 -2.0323 -0.4985
 9830TIP3   OH250980   3.990   1.917   4.412  0.0814 -0.2835  0.2407
 9830TIP3    H150981   3.980   1.950   4.501 -0.0964  1.7184 -0.4598
 9830TIP3    H250982   3.908   1.872   4.393 -0.3767  0.3333  0.6932
 9831TIP3   OH250983   2.197   5.625   5.630 -0.2447 -0.4865 -0.3111
 9831TIP3    H150984   2.212   5.621   5.535 -0.6346 -0.2645 -0.3822
 9831TIP3    H250985   2.133   5.695   5.641 -1.6520 -1.7746 -0.0535
 9832TIP3   OH250986   1.299   6.191  11.308 -0.3583 -0.0378  0.1736
 9832TIP3    H150987   1.388   6.190  11.272 -0.9782  1.8322 -1.5970
 9832TIP3    H250988   1.270   6.100  11.303  1.7838 -0.8950  1.7915
 9833TIP3   OH250989   5.300   3.658  14.668  0.2849 -0.0254 -0.1200
 9833TIP3    H150990   5.390   3.634  14.645 -0.2997 -1.7298 -0.7776
 9833TIP3    H250991   5.293   3.640  14.762  0.1495 -1.6337 -0.4083
 9834TIP3   OH250992   3.280   4.529  13.955  0.6370 -0.2711 -0.4501
 9834TIP3    H150993   3.259   4.442  13.989  2.9153 -0.6277  0.2075
 9834TIP3    H250994   3.347   4.513  13.888  2.6998  1.0440  1.1636
 9835TIP3   OH250995   6.188   3.086  14.298 -0.4380  0.5846  0.0203
 9835TIP3    H150996   6.206   3.094  14.204 -0.5467  0.2211 -0.0339
 9835TIP3    H250997   6.269   3.051  14.335 -0.5397  0.3238 -0.0032
 9836TIP3   OH250998   0.975   4.526   5.792  0.5343  0.2314  0.2372
 9836TIP3    H150999   0.908   4.496   5.853  0.8319  0.8290  0.8605
 9836TIP3    H251000   0.945   4.494   5.706 -1.8658  2.5848  0.0836
 9837TIP3   OH251001   2.096   0.559   2.425  0.3931  0.0300  0.6990
 9837TIP3    H151002   2.101   0.634   2.484 -1.7781  0.4690  0.3971
 9837TIP3    H251003   2.122   0.595   2.340  1.9761 -0.2401  1.0255
 9838TIP3   OH251004   1.382   4.861  12.123  0.7242  0.2487  0.0684
 9838TIP3    H151005   1.409   4.823  12.206  2.1562 -0.4672 -0.7017
 9838TIP3    H251006   1.299   4.906  12.143  1.0048  0.0274  1.8413
 9839TIP3   OH251007   5.262   2.462   5.904 -0.1080 -0.4053  0.7285
 9839TIP3    H151008   5.235   2.451   5.813 -1.0752  2.7643  0.4896
 9839TIP3    H251009   5.356   2.442   5.904  0.1240  0.4938 -1.2129
 9840TIP3   OH251010   4.741   3.185   0.038 -0.8691 -0.0798 -0.0064
 9840TIP3    H151011   4.788   3.244   0.097  0.5793  0.1403 -1.3064
 9840TIP3    H251012   4.759   3.098   0.072 -0.5892  0.0813  0.2638
 9841TIP3   OH251013   4.353   4.186   4.250 -0.8338 -0.5941  0.2725
 9841TIP3    H151014   4.427   4.226   4.205 -0.2293  0.6747  2.2545
 9841TIP3    H251015   4.372   4.092   4.248 -2.1606 -1.0198 -4.2470
 9842TIP3   OH251016   1.329   5.799  15.665  0.3351 -0.1405 -0.4015
 9842TIP3    H151017   1.344   5.773  15.756 -1.2854 -0.7939 -0.2915
 9842TIP3    H251018   1.314   5.717  15.619  2.9335  0.0092 -1.6791
 9843TIP3   OH251019   4.367   4.921   3.162 -0.4907  0.2053  0.6908
 9843TIP3    H151020   4.455   4.884   3.150 -0.6986 -0.0124 -0.1718
 9843TIP3    H251021   4.363   4.995   3.102 -0.8030  0.3928  0.9370
 9844TIP3   OH251022   5.800   3.057  10.934  0.0014  0.1336  0.4287
 9844TIP3    H151023   5.874   3.050  10.874 -0.4069 -0.2377 -0.0492
 9844TIP3    H251024   5.740   3.117  10.890  0.2657  0.8792  1.0780
 9845TIP3   OH251025   4.401   4.076  13.231 -0.1169 -0.1077  0.1133
 9845TIP3    H151026   4.434   4.093  13.142 -0.5444  0.3236  0.0368
 9845TIP3    H251027   4.306   4.079  13.222 -0.1668 -0.5106  0.5042
 9846TIP3   OH251028   0.909   6.438   4.453 -0.2644 -0.3253 -0.0471
 9846TIP3    H151029   0.858   6.370   4.498 -1.7076  0.1256 -0.9449
 9846TIP3    H251030   0.977   6.462   4.516 -1.0151 -1.1101  1.1072
 9847TIP3   OH251031   6.195   3.160   2.035  0.4223 -0.8090  0.8205
 9847TIP3    H151032   6.151   3.130   1.956  0.4169  1.7513 -0.2235
 9847TIP3    H251033   6.201   3.081   2.090 -2.7462 -1.9129 -0.1912
 9848TIP3   OH251034   5.069   0.981   1.697 -0.4689  0.3966 -0.1459
 9848TIP3    H151035   5.048   0.989   1.790  1.5806 -0.8021  0.4658
 9848TIP3    H251036   5.016   0.907   1.667  1.8418 -1.9415  1.1380
 9849TIP3   OH251037   1.391   1.088   2.817  0.1877 -0.1444  0.1616
 9849TIP3    H151038   1.447   1.145   2.870 -1.4010  2.2244 -0.5465
 9849TIP3    H251039   1.433   1.087   2.731 -0.0076  0.3140  0.0603
 9850TIP3   OH251040   4.979   5.223  12.986 -0.4208  0.2464  0.1448
 9850TIP3    H151041   4.894   5.187  13.009  0.0103 -0.7453  0.2546
 9850TIP3    H251042   4.960   5.309  12.949 -1.3558  0.7291  1.6451
 9851TIP3   OH251043   0.581   4.035   0.099  0.7598 -0.1939 -0.7800
 9851TIP3    H151044   0.643   4.108   0.106  0.9745 -0.4408 -0.1251
 9851TIP3    H251045   0.501   4.076   0.065  1.0502  0.2514 -0.9401
 9852TIP3   OH251046   6.655   2.684  12.921 -0.2345 -0.1389  0.0951
 9852TIP3    H151047   6.653   2.595  12.954  0.8671 -0.6411 -1.1443
 9852TIP3    H251048   6.727   2.686  12.858  0.5004  1.9120  0.8920
 9853TIP3   OH251049   5.183   5.185   5.963 -0.1488 -0.4528 -0.1209
 9853TIP3    H151050   5.136   5.161   6.044 -1.1778  1.1829 -0.1758
 9853TIP3    H251051   5.272   5.153   5.977 -0.4995 -0.9109  1.3281
 9854TIP3   OH251052   1.948   0.797   5.299 -0.0249  0.9703 -0.1700
 9854TIP3    H151053   2.040   0.814   5.317  0.0275  0.9674 -0.4327
 9854TIP3    H251054   1.901   0.866   5.346  0.0824  0.6699  0.3859
 9855TIP3   OH251055   2.785   6.814   3.926  0.2196 -0.2879 -0.0693
 9855TIP3    H151056   2.808   6.818   3.834 -2.0204 -0.1442 -0.6748
 9855TIP3    H251057   2.728   6.889   3.940  0.6308 -0.2290  1.4794
 9856TIP3   OH251058   0.820   3.028   4.391  0.2735 -0.1040  0.1211
 9856TIP3    H151059   0.748   3.065   4.441 -0.4486 -2.4311  0.9157
 9856TIP3    H251060   0.794   3.040   4.300  0.5274  2.1009  0.2773
 9857TIP3   OH251061   2.397   5.670   5.438 -0.6414  0.0158 -0.2374
 9857TIP3    H151062   2.425   5.649   5.527  1.1265  0.0886 -0.7508
 9857TIP3    H251063   2.386   5.765   5.438  0.3230  0.1371 -0.3387
 9858TIP3   OH251064   3.969   4.027   2.860  0.0225  0.6630 -0.4786
 9858TIP3    H151065   3.907   4.019   2.787  1.0653  0.5676 -1.3785
 9858TIP3    H251066   4.002   3.938   2.874 -0.9346  0.4806  0.8305
 9859TIP3   OH251067   4.394   4.389  16.382  0.2477  0.6297  0.3550
 9859TIP3    H151068   4.490   4.395  16.374  0.5959 -3.6125 -1.1390
 9859TIP3    H251069   4.363   4.388  16.291 -0.8965 -0.8727  0.7387
 9860TIP3   OH251070   0.378   0.739   3.354  0.1803  0.0836  0.3683
 9860TIP3    H151071   0.364   0.781   3.438 -0.8263  0.4879  0.0153
 9860TIP3    H251072   0.463   0.772   3.324  0.2064  0.4990  0.8908
 9861TIP3   OH251073   0.434   4.478   5.941  0.6401  0.8227 -0.3744
 9861TIP3    H151074   0.418   4.432   6.023  1.7930  1.5289  0.2562
 9861TIP3    H251075   0.369   4.441   5.881  1.7200 -1.9130 -0.0107
 9862TIP3   OH251076   2.791   6.723  12.594  0.1638  0.4209 -0.3721
 9862TIP3    H151077   2.883   6.713  12.616 -0.3964 -0.2610  1.9837
 9862TIP3    H251078   2.758   6.633  12.590 -0.5711  0.6816 -0.3136
 9863TIP3   OH251079   3.376   4.087  16.589  0.5085 -0.4593 -0.0662
 9863TIP3    H151080   3.364   3.994  16.611  1.5854 -0.4687  0.5458
 9863TIP3    H251081   3.344   4.135  16.665 -2.2494 -0.1755 -1.2709
 9864TIP3   OH251082   4.021   4.251   2.680  0.9386  0.4689  0.0011
 9864TIP3    H151083   4.062   4.165   2.675  1.8332  0.9128 -0.6335
 9864TIP3    H251084   3.974   4.260   2.597  1.2916  0.7994 -0.1672
 9865TIP3   OH251085   1.423   2.822   5.030  0.2474  0.0181  0.2439
 9865TIP3    H151086   1.432   2.893   5.094 -0.7508  1.3426 -1.0048
 9865TIP3    H251087   1.345   2.775   5.057 -0.9493  1.3808 -0.6573
 9866TIP3   OH251088   3.032   6.745   0.814  0.2911 -0.2277 -0.3674
 9866TIP3    H151089   3.081   6.739   0.732  1.7753 -0.0348  0.4873
 9866TIP3    H251090   3.098   6.746   0.883 -0.8542  1.0133  0.7917
 9867TIP3   OH251091   3.023   0.239   3.973  0.0646 -0.2499 -0.5143
 9867TIP3    H151092   3.066   0.211   4.053 -2.5885 -0.2417  1.0249
 9867TIP3    H251093   3.075   0.199   3.903  2.7674  0.1447  1.1078
 9868TIP3   OH251094   0.728   5.874   5.481 -0.8757  0.7605 -0.0997
 9868TIP3    H151095   0.807   5.918   5.511  1.5823 -1.7904 -2.2951
 9868TIP3    H251096   0.703   5.922   5.402  0.4211 -0.2542 -1.1742
 9869TIP3   OH251097   0.599   5.515   2.310  0.0414 -0.0982 -0.3671
 9869TIP3    H151098   0.691   5.542   2.302 -0.4959  1.6776 -1.0226
 9869TIP3    H251099   0.573   5.543   2.398 -0.0006 -0.2204 -0.3396
 9870TIP3   OH251100   1.850   2.378  12.753  0.6705  0.2423  0.5924
 9870TIP3    H151101   1.794   2.429  12.812 -1.3394 -0.2305 -0.8065
 9870TIP3    H251102   1.898   2.318  12.811 -0.8710  0.1274  1.8150
 9871TIP3   OH251103   5.696   3.926   6.063 -0.4948 -0.5646  0.3714
 9871TIP3    H151104   5.738   4.000   6.018 -0.8342 -0.4028  0.3144
 9871TIP3    H251105   5.761   3.897   6.127 -0.5507  0.1282  0.7597
 9872TIP3   OH251106   6.814   5.007   2.225 -0.1948  0.1809  0.2830
 9872TIP3    H151107   6.725   4.986   2.198  0.1056 -0.9671  0.1228
 9872TIP3    H251108   6.841   4.932   2.279  0.5758  0.6402  0.5593
 9873TIP3   OH251109   4.628   2.732   0.452  0.7744  0.3770 -0.0323
 9873TIP3    H151110   4.657   2.730   0.361 -3.3291 -0.1422 -1.5635
 9873TIP3    H251111   4.609   2.640   0.473  0.4533  0.6406  0.8667
 9874TIP3   OH251112   0.245   2.444  14.360  0.2889 -0.4663 -0.4893
 9874TIP3    H151113   0.218   2.352  14.362 -1.3839 -0.0087 -0.7716
 9874TIP3    H251114   0.190   2.487  14.426  0.6115  0.4441 -0.7975
 9875TIP3   OH251115   3.818   3.997  15.153  0.1597 -0.0111  0.4358
 9875TIP3    H151116   3.732   4.038  15.166  0.4722  0.9963 -0.4914
 9875TIP3    H251117   3.870   4.024  15.229 -0.3295 -0.6213  0.9982
 9876TIP3   OH251118   1.866   3.724  10.900 -0.0993 -0.0685 -0.2291
 9876TIP3    H151119   1.775   3.716  10.873 -0.0986  0.5171 -0.4151
 9876TIP3    H251120   1.914   3.740  10.818  0.2322 -0.8335 -0.1920
 9877TIP3   OH251121   1.579   3.410  16.466  0.2373 -0.0589 -0.3889
 9877TIP3    H151122   1.514   3.374  16.526  0.1970  0.6007 -0.0260
 9877TIP3    H251123   1.663   3.389  16.506  0.2010  0.9816  0.2770
 9878TIP3   OH251124   0.218   1.330   1.966 -1.0694  0.0101  0.4870
 9878TIP3    H151125   0.273   1.292   2.034 -1.3977 -1.6428 -0.1165
 9878TIP3    H251126   0.248   1.290   1.885 -1.1529  1.4146 -0.2719
 9879TIP3   OH251127   3.602   5.444  12.009  0.5231  0.0093  0.4821
 9879TIP3    H151128   3.626   5.393  11.932 -0.3922 -0.4982  0.5167
 9879TIP3    H251129   3.675   5.431  12.071  0.8408 -0.2959  0.0457
 9880TIP3   OH251130   4.915   3.991   5.021  0.6484  0.0109  0.3009
 9880TIP3    H151131   5.001   4.006   4.983 -0.6427  0.8417 -2.5924
 9880TIP3    H251132   4.881   4.079   5.040 -0.9655  0.0556 -2.2571
 9881TIP3   OH251133   3.966   1.021   5.536 -0.2415 -0.3062 -0.3073
 9881TIP3    H151134   3.961   1.110   5.572  0.0995 -0.4655  0.1526
 9881TIP3    H251135   4.058   1.013   5.509  0.4257 -1.3754  1.9824
 9882TIP3   OH251136   4.317   3.890  13.512 -0.5082  0.2496  0.1491
 9882TIP3    H151137   4.398   3.843  13.494  0.2217  1.0086  1.3149
 9882TIP3    H251138   4.255   3.822  13.539  0.4138 -0.1100  1.4528
 9883TIP3   OH251139   1.776   0.950   1.856 -0.2232 -0.7674 -0.1275
 9883TIP3    H151140   1.860   0.986   1.828 -1.3434  1.1726 -1.2121
 9883TIP3    H251141   1.781   0.949   1.952  0.9854 -0.5482 -0.1774
 9884TIP3   OH251142   5.679   4.766  13.988 -0.0949  0.7766 -0.3401
 9884TIP3    H151143   5.690   4.727  13.901 -0.3789 -0.1733  0.0376
 9884TIP3    H251144   5.584   4.777  13.997 -0.3543 -1.6666  0.8838
 9885TIP3   OH251145   0.417   1.638   3.527  0.1994  0.1014 -0.5427
 9885TIP3    H151146   0.421   1.586   3.607 -0.0143 -1.5585 -1.5681
 9885TIP3    H251147   0.494   1.612   3.477 -0.2332  0.3035 -1.3348
 9886TIP3   OH251148   0.840   4.495   0.988  0.0901 -0.9097 -0.1219
 9886TIP3    H151149   0.776   4.447   1.041 -1.9059  1.3153 -0.3889
 9886TIP3    H251150   0.888   4.426   0.941 -1.1901 -2.7236  1.0964
 9887TIP3   OH251151   4.755   2.594   3.218  0.0359  0.1830  0.2712
 9887TIP3    H151152   4.680   2.567   3.270 -0.5153  1.7455  0.3478
 9887TIP3    H251153   4.832   2.562   3.266 -0.5531 -1.4620  0.1691
 9888TIP3   OH251154   1.808   6.263   4.894 -0.1397  0.7485  0.0672
 9888TIP3    H151155   1.715   6.245   4.885 -0.2202  1.3665 -0.3878
 9888TIP3    H251156   1.851   6.184   4.860 -0.4896  0.9136 -0.7791
 9889TIP3   OH251157   4.509   4.882   0.946 -0.3445 -0.4819  0.2110
 9889TIP3    H151158   4.599   4.880   0.978  0.0094  1.7238 -0.4784
 9889TIP3    H251159   4.456   4.901   1.024  0.3439  3.1352  0.0004
 9890TIP3   OH251160   2.495   6.400   5.126  0.4001 -0.7115 -0.1678
 9890TIP3    H151161   2.408   6.429   5.100  0.1711 -0.4587  0.8586
 9890TIP3    H251162   2.500   6.310   5.094 -1.4704 -1.8707  2.4315
 9891TIP3   OH251163   5.788   4.777   2.344  0.2440 -0.3537 -0.1932
 9891TIP3    H151164   5.756   4.798   2.257 -0.4371 -0.5923 -0.0009
 9891TIP3    H251165   5.729   4.710   2.377  0.8993 -0.7536  0.1935
 9892TIP3   OH251166   3.384   1.187  15.344  0.0909 -0.0605 -0.0712
 9892TIP3    H151167   3.468   1.165  15.304  1.7625  1.0375  2.5569
 9892TIP3    H251168   3.344   1.103  15.363  0.7818 -0.6109 -0.9412
 9893TIP3   OH251169   2.626   0.941  14.462  0.4035  0.3558  0.4756
 9893TIP3    H151170   2.688   1.012  14.471  0.1307  0.8123 -1.0154
 9893TIP3    H251171   2.627   0.919  14.369 -0.7854 -0.4269  0.6183
 9894TIP3   OH251172   3.225   0.197   1.662  0.2210  0.1059 -0.1728
 9894TIP3    H151173   3.161   0.140   1.619  0.6533 -0.4800 -0.0433
 9894TIP3    H251174   3.279   0.138   1.714 -0.0148  0.7472  0.8358
 9895TIP3   OH251175   6.478   1.570  10.941 -0.2440 -0.1312  0.1822
 9895TIP3    H151176   6.405   1.508  10.936 -0.6614  0.0959  2.3328
 9895TIP3    H251177   6.461   1.634  10.873 -1.8374 -0.3375  0.3589
 9896TIP3   OH251178   2.099   5.857  14.494 -0.3884 -0.5718 -0.0790
 9896TIP3    H151179   2.120   5.848  14.401  0.8733 -1.1894  0.2419
 9896TIP3    H251180   2.149   5.787  14.537 -0.6471 -0.0614  1.1000
 9897TIP3   OH251181   1.974   0.513   3.656  0.2099 -0.4937  0.2472
 9897TIP3    H151182   1.906   0.575   3.680  1.9013  0.4716  2.9654
 9897TIP3    H251183   2.034   0.563   3.600 -0.7498 -1.0675 -1.3480
 9898TIP3   OH251184   1.680   0.189   0.118  0.1229  0.4071 -0.5118
 9898TIP3    H151185   1.689   0.100   0.152 -1.9145  0.4561  0.3453
 9898TIP3    H251186   1.670   0.243   0.196 -0.1828  1.1716 -1.0702
 9899TIP3   OH251187   2.543   6.131   5.021  0.6226  0.6857 -0.0005
 9899TIP3    H151188   2.514   6.099   4.935  0.5224  1.4738 -0.2735
 9899TIP3    H251189   2.467   6.121   5.078  0.4921  0.7425 -0.1647
 9900TIP3   OH251190   5.135   4.790   3.111  0.6033  0.5031 -0.8138
 9900TIP3    H151191   5.108   4.828   3.028  0.0694  0.7099 -0.5492
 9900TIP3    H251192   5.201   4.850   3.145  1.9411 -0.3571 -1.7850
 9901TIP3   OH251193   6.183   6.734   3.339 -0.4018  0.7264  0.8322
 9901TIP3    H151194   6.167   6.645   3.308  0.5695  0.2306  1.6713
 9901TIP3    H251195   6.190   6.787   3.260 -0.6834 -0.0023  0.3145
 9902TIP3   OH251196   5.541   4.084   2.764  0.1479  0.2202  0.7263
 9902TIP3    H151197   5.549   4.173   2.730  0.0579  0.7940  2.1646
 9902TIP3    H251198   5.510   4.032   2.690  0.4410  1.3322 -0.1906
 9903TIP3   OH251199   5.614   1.172  10.366 -0.1231 -0.6387  0.0677
 9903TIP3    H151200   5.626   1.249  10.310 -0.0636 -1.8835 -1.7308
 9903TIP3    H251201   5.523   1.176  10.394 -0.1417  0.0349 -0.0866
 9904TIP3   OH251202   5.933   3.004  11.203 -0.2533 -0.2417  0.1601
 9904TIP3    H151203   5.876   3.050  11.141  3.1985  2.0844 -1.5979
 9904TIP3    H251204   5.976   2.937  11.151 -0.0509 -0.8029  1.0221
 9905TIP3   OH251205   5.533   2.803  16.910  0.1794 -0.2802 -0.4280
 9905TIP3    H151206   5.498   2.751  16.982  0.4239 -1.3070 -1.0215
 9905TIP3    H251207   5.527   2.894  16.940 -0.6200 -0.6190  0.4885
 9906TIP3   OH251208   4.547   6.472  11.489 -0.3455  0.0902 -0.8629
 9906TIP3    H151209   4.627   6.424  11.468 -0.5920 -0.7613  0.0940
 9906TIP3    H251210   4.565   6.561  11.460  1.7621  0.4483  1.2456
 9907TIP3   OH251211   4.736   4.986  13.687  0.4489 -0.2881 -0.0606
 9907TIP3    H151212   4.705   4.899  13.709  0.9951 -1.0290 -1.9854
 9907TIP3    H251213   4.663   5.027  13.641  0.6353 -0.2300 -0.3126
 9908TIP3   OH251214   3.030   2.064  15.616  0.4372 -0.2079  0.3400
 9908TIP3    H151215   3.021   1.992  15.679  2.9800 -2.4107 -1.5463
 9908TIP3    H251216   3.109   2.111  15.643  1.7136 -1.3386 -1.1939
 9909TIP3   OH251217   6.597   4.372  16.999  0.5093  0.0037  0.0692
 9909TIP3    H151218   6.579   4.361  16.906  0.5034  1.6394 -0.1493
 9909TIP3    H251219   6.553   4.454  17.023  0.9863 -0.0923  1.3787
 9910TIP3   OH251220   4.387   2.615   5.754  0.3414 -0.2352 -0.2415
 9910TIP3    H151221   4.421   2.610   5.843 -1.9317 -1.1445  0.6477
 9910TIP3    H251222   4.405   2.529   5.716  0.3973 -0.1985 -0.2974
 9911TIP3   OH251223   5.779   3.972  11.792 -0.1699  0.4905 -0.1161
 9911TIP3    H151224   5.735   3.928  11.864  0.6664 -0.5591 -0.2229
 9911TIP3    H251225   5.808   3.901  11.735  1.2292  1.1706 -0.2901
 9912TIP3   OH251226   5.623   4.379   2.929  0.1102 -0.5271  0.2372
 9912TIP3    H151227   5.623   4.443   3.001 -1.3041 -0.3303  0.0829
 9912TIP3    H251228   5.687   4.313   2.956  1.5543  0.8873  0.4416
 9913TIP3   OH251229   4.939   5.129  15.296  0.0029 -0.0202 -0.7412
 9913TIP3    H151230   4.880   5.148  15.223 -0.9687  0.3507  0.1177
 9913TIP3    H251231   4.942   5.211  15.346  0.4103 -0.3664 -0.1925
 9914TIP3   OH251232   1.168   0.567  14.114 -0.2163 -0.2857 -0.0211
 9914TIP3    H151233   1.201   0.511  14.185  0.7424 -0.4644 -0.5861
 9914TIP3    H251234   1.129   0.642  14.159 -0.5584 -0.8898  0.7199
 9915TIP3   OH251235   0.633   1.013   0.233 -0.0618  0.1932  0.2653
 9915TIP3    H151236   0.722   0.981   0.251 -0.0585  0.2137  0.2853
 9915TIP3    H251237   0.614   0.981   0.145 -0.7565 -1.4099  0.9606
 9916TIP3   OH251238   6.423   6.203   5.054 -0.2468  0.5899  0.0003
 9916TIP3    H151239   6.413   6.108   5.056  1.7558  0.2945 -1.2132
 9916TIP3    H251240   6.363   6.232   4.986 -0.3681  0.1136 -0.0992
 9917TIP3   OH251241   2.165   0.536  17.104  0.0400 -0.5782 -0.6686
 9917TIP3    H151242   2.090   0.549  17.162  1.4262  0.8507  0.8964
 9917TIP3    H251243   2.204   0.454  17.133  0.7501  0.1490  0.4875
 9918TIP3   OH251244   6.093   1.501   4.399 -0.4800 -0.3134  0.4609
 9918TIP3    H151245   6.080   1.417   4.442 -0.1784 -0.9533 -0.6530
 9918TIP3    H251246   6.185   1.522   4.416 -0.1487 -0.9367 -0.4695
 9919TIP3   OH251247   3.187   5.767   3.839  0.2268  0.4576 -0.3456
 9919TIP3    H151248   3.212   5.696   3.898  1.2443  2.6592  2.0715
 9919TIP3    H251249   3.098   5.791   3.867 -0.1878  0.0482 -1.2772
 9920TIP3   OH251250   5.167   2.969   1.491 -0.2676 -0.3482  0.0435
 9920TIP3    H151251   5.103   2.898   1.503 -1.2674  0.5296  0.0919
 9920TIP3    H251252   5.133   3.019   1.416  0.8877 -0.4065 -0.5388
 9921TIP3   OH251253   2.051   3.746   3.867 -0.0538  0.3683  0.2605
 9921TIP3    H151254   1.997   3.670   3.844  0.8477  0.2537 -1.6657
 9921TIP3    H251255   2.007   3.784   3.943 -2.6113  0.0449 -0.9534
 9922TIP3   OH251256   4.506   1.107   3.713 -0.2986 -0.0771  0.2214
 9922TIP3    H151257   4.524   1.056   3.792  0.1515 -1.2657 -0.6197
 9922TIP3    H251258   4.417   1.141   3.726  0.2349  0.7884  1.7658
 9923TIP3   OH251259   5.830   2.044   4.286 -0.0301 -0.1262  0.1179
 9923TIP3    H151260   5.895   2.085   4.343 -0.6799  1.8475 -0.4706
 9923TIP3    H251261   5.882   1.999   4.220  0.7292 -2.4009  2.1434
 9924TIP3   OH251262   5.227   0.015  14.486  0.2870  0.4917  0.3313
 9924TIP3    H151263   5.316   0.046  14.472  0.5247 -0.6672 -0.9181
 9924TIP3    H251264   5.208   0.038  14.577  2.4884 -0.6850  1.1887
 9925TIP3   OH251265   1.983   0.241   2.763  0.1144 -0.3917 -0.0337
 9925TIP3    H151266   1.921   0.305   2.729  0.3072  1.1024  2.2277
 9925TIP3    H251267   2.069   0.278   2.744  0.2262  0.1445  1.4402
 9926TIP3   OH251268   1.733   0.062  10.387 -0.3745  0.7303  0.2540
 9926TIP3    H151269   1.826   0.051  10.369  0.0610  1.5546  1.8114
 9926TIP3    H251270   1.692  -0.018  10.356  0.9956 -0.0457  0.3980
 9927TIP3   OH251271   3.476   2.941   1.500  0.8469 -0.0881 -0.8684
 9927TIP3    H151272   3.441   2.881   1.566 -0.1207  4.2660  3.2017
 9927TIP3    H251273   3.409   2.944   1.432 -1.6040 -0.0313  1.3585
 9928TIP3   OH251274   0.297   5.288   0.996 -0.2362 -0.0396  0.2395
 9928TIP3    H151275   0.327   5.199   0.982  1.3373  0.5366 -0.2813
 9928TIP3    H251276   0.291   5.297   1.091  2.6569  0.1854  0.4920
 9929TIP3   OH251277   1.795   3.625   5.412  0.4865  0.5079  0.7960
 9929TIP3    H151278   1.884   3.590   5.415  0.7330  1.1773  2.1551
 9929TIP3    H251279   1.793   3.690   5.482 -1.0161  0.6542  0.6401
 9930TIP3   OH251280   2.484   2.031   0.675 -0.3236 -0.1206 -0.7132
 9930TIP3    H151281   2.421   1.977   0.627 -0.0160  0.2823 -1.5922
 9930TIP3    H251282   2.454   2.027   0.766 -1.8956  0.4239 -1.1654
 9931TIP3   OH251283   5.287   5.676   3.680 -0.0813  0.2885 -0.2477
 9931TIP3    H151284   5.367   5.625   3.688  0.5142  1.1739 -0.3827
 9931TIP3    H251285   5.219   5.612   3.662  0.8425 -0.3343 -1.6220
 9932TIP3   OH251286   1.744   3.990  14.901  0.8771  0.1486  0.2994
 9932TIP3    H151287   1.682   3.936  14.949 -1.9347  1.2512 -1.8397
 9932TIP3    H251288   1.777   4.052  14.966 -0.3554 -0.4010  1.4960
 9933TIP3   OH251289   5.811   4.052   3.527  0.1757 -1.0576  0.0697
 9933TIP3    H151290   5.881   4.113   3.551  0.9196 -2.3203  1.2412
 9933TIP3    H251291   5.744   4.066   3.593 -0.3747 -0.3809 -0.6153
 9934TIP3   OH251292   1.355   3.515   0.539 -0.0109 -0.4002 -0.2265
 9934TIP3    H151293   1.312   3.597   0.513  1.2817  0.2317 -0.4496
 9934TIP3    H251294   1.434   3.543   0.583  1.0091 -1.5281 -1.2676
 9935TIP3   OH251295   3.124   1.587   2.371 -0.2141  0.1944 -0.2823
 9935TIP3    H151296   3.083   1.583   2.458  0.0389  1.5943 -0.0864
 9935TIP3    H251297   3.218   1.592   2.388  0.0530 -2.1542 -0.7194
 9936TIP3   OH251298   6.006   3.384  10.980 -0.1999  0.5811 -0.9867
 9936TIP3    H151299   6.097   3.367  10.955 -0.2144  1.2862 -1.5510
 9936TIP3    H251300   5.956   3.363  10.901 -0.6930 -1.1572 -0.2600
 9937TIP3   OH251301   5.404   1.495  15.329  0.0209 -0.0126 -0.4640
 9937TIP3    H151302   5.328   1.451  15.290  0.3976 -0.4235 -0.7541
 9937TIP3    H251303   5.439   1.549  15.258  0.5635 -0.5718 -0.6386
 9938TIP3   OH251304   1.242   3.023   6.698  0.3166  0.0898 -0.7846
 9938TIP3    H151305   1.276   3.044   6.611 -0.5114 -1.4912 -1.5292
 9938TIP3    H251306   1.308   2.965   6.736  0.8369  1.0381 -0.1966
 9939TIP3   OH251307   4.342   5.470  15.083 -0.5571  0.1998 -0.0278
 9939TIP3    H151308   4.318   5.531  15.152 -1.5215 -0.1391 -0.0422
 9939TIP3    H251309   4.362   5.388  15.129  2.3521  0.9054  0.1451
 9940TIP3   OH251310   6.331   0.166   0.303 -0.2055 -0.7065 -0.2814
 9940TIP3    H151311   6.244   0.165   0.261 -0.5576  0.5045  0.3831
 9940TIP3    H251312   6.334   0.084   0.353 -0.7907 -0.9536 -0.6362
 9941TIP3   OH251313   5.865   3.881   0.612  0.2496  0.3533  0.3638
 9941TIP3    H151314   5.849   3.862   0.519 -0.1633  1.0596  0.2806
 9941TIP3    H251315   5.947   3.835   0.632  0.3517  0.2070 -0.3560
 9942TIP3   OH251316   2.602   3.881  13.923  0.6998 -0.2952  0.2315
 9942TIP3    H151317   2.536   3.918  13.865  1.1924 -0.7934 -0.6621
 9942TIP3    H251318   2.600   3.787  13.905  0.1929 -0.5977  1.7136
 9943TIP3   OH251319   4.386   0.580   4.155  0.3661 -0.1427  0.3240
 9943TIP3    H151320   4.404   0.626   4.238 -0.4094 -2.7516  2.0728
 9943TIP3    H251321   4.467   0.535   4.135  0.0941 -0.7230  0.5123
 9944TIP3   OH251322   4.191   6.567   2.336 -0.2226  0.1378 -0.1253
 9944TIP3    H151323   4.146   6.575   2.252  2.3970  1.7816 -1.4727
 9944TIP3    H251324   4.234   6.482   2.332  0.0447  0.2902 -0.5383
 9945TIP3   OH251325   3.579   0.943  15.550 -0.1625  0.3729  0.0639
 9945TIP3    H151326   3.571   0.858  15.594  1.8528  0.3865  0.5822
 9945TIP3    H251327   3.505   0.995  15.584 -0.2100 -0.5019  1.3851
 9946TIP3   OH251328   0.353   6.832   4.111 -0.0689 -0.4927  0.0669
 9946TIP3    H151329   0.290   6.768   4.076 -0.7250  0.4396 -0.5229
 9946TIP3    H251330   0.437   6.786   4.109 -0.5176 -1.3306 -0.3662
 9947TIP3   OH251331   2.562   2.747  12.385  0.7551  0.1706 -0.3849
 9947TIP3    H151332   2.564   2.689  12.461 -0.1779  2.3138  1.3763
 9947TIP3    H251333   2.641   2.800  12.393  0.6913  0.3561 -0.9662
 9948TIP3   OH251334   1.113   4.369  14.956  0.1278  0.2475 -0.3334
 9948TIP3    H151335   1.025   4.401  14.938  0.1135 -0.1099 -0.9043
 9948TIP3    H251336   1.140   4.325  14.876  1.1313  1.0300 -0.4465
 9949TIP3   OH251337   4.036   2.982  15.396 -0.7056  0.0027  0.0026
 9949TIP3    H151338   4.105   3.045  15.414 -0.3443 -0.8044  1.6637
 9949TIP3    H251339   4.075   2.922  15.331 -0.4933  0.5703 -0.3988
 9950TIP3   OH251340   0.705   5.289  15.652 -0.3223  0.2860 -0.3961
 9950TIP3    H151341   0.689   5.195  15.655  0.0355  0.1725 -1.7322
 9950TIP3    H251342   0.772   5.304  15.718 -0.1398 -0.4399 -0.4150
 9951TIP3   OH251343   5.453   5.984   3.117  0.2337 -0.4319 -0.5032
 9951TIP3    H151344   5.380   5.967   3.177  0.4566  0.2745 -0.0197
 9951TIP3    H251345   5.529   5.946   3.161  0.4265  0.2345 -0.2569
 9952TIP3   OH251346   0.321   3.841   3.259  0.0523 -0.2759 -0.3192
 9952TIP3    H151347   0.302   3.759   3.214 -2.3989 -0.0507  0.1543
 9952TIP3    H251348   0.344   3.815   3.348  0.9650 -0.5097 -0.6128
 9953TIP3   OH251349   4.870   0.259   3.052 -0.4104 -0.1605  0.4410
 9953TIP3    H151350   4.848   0.177   3.007  0.5131 -0.3504  0.3066
 9953TIP3    H251351   4.844   0.328   2.991 -0.6356 -0.3684  0.3004
 9954TIP3   OH251352   3.907   2.090   1.244 -0.2762  0.7870 -0.0534
 9954TIP3    H151353   3.911   2.133   1.159 -0.9309  0.4149 -0.2732
 9954TIP3    H251354   3.854   2.148   1.299  0.2214  1.0722  0.1332
 9955TIP3   OH251355   5.345   4.009   4.947 -0.5476  0.0692  0.4954
 9955TIP3    H151356   5.397   4.032   4.870 -0.6602 -1.0112  0.0849
 9955TIP3    H251357   5.279   4.078   4.952 -0.8562 -0.1113 -0.6834
 9956TIP3   OH251358   1.373   3.865  11.273  0.0153  0.7260  0.2321
 9956TIP3    H151359   1.449   3.910  11.236 -0.5287  2.5274  1.1598
 9956TIP3    H251360   1.304   3.878  11.208 -0.0059  0.7679  0.2631
 9957TIP3   OH251361   3.737   5.306  14.858  0.3477 -0.3408 -0.5099
 9957TIP3    H151362   3.806   5.249  14.823  0.6436 -0.5252  0.3477
 9957TIP3    H251363   3.674   5.314  14.786  1.4233  0.1055 -1.4240
 9958TIP3   OH251364   2.357   0.006   5.476 -0.2919 -0.2109 -0.2266
 9958TIP3    H151365   2.452   0.003   5.464 -0.2993 -1.2007 -0.1651
 9958TIP3    H251366   2.332  -0.086   5.488 -1.0131  0.2017  1.7033
 9959TIP3   OH251367   4.752   6.782  13.225 -0.1016  0.1960  0.1530
 9959TIP3    H151368   4.729   6.874  13.210 -1.6398  0.3443  2.7661
 9959TIP3    H251369   4.701   6.734  13.161 -0.4821  1.0857 -0.2266
 9960TIP3   OH251370   1.362   4.268  14.039  0.2804  0.0354 -0.3251
 9960TIP3    H151371   1.372   4.362  14.051  0.9819  0.1872 -1.8024
 9960TIP3    H251372   1.417   4.228  14.106  0.1094  0.6752  0.2020
 9961TIP3   OH251373   6.406   1.068  10.910  0.0103  0.3779 -0.3518
 9961TIP3    H151374   6.493   1.099  10.883  0.8687 -0.1961  1.5677
 9961TIP3    H251375   6.420   0.976  10.932 -0.9726  0.4183  0.4737
 9962TIP3   OH251376   0.975   5.196  15.182 -0.5811  0.2029  0.3610
 9962TIP3    H151377   0.885   5.166  15.175 -0.3901 -0.2580 -0.2303
 9962TIP3    H251378   0.969   5.285  15.215 -1.2555  0.2249  0.1734
 9963TIP3   OH251379   1.637   6.511   6.026 -0.2041 -0.2777  0.2490
 9963TIP3    H151380   1.688   6.544   5.952 -0.1263 -1.9986 -0.4955
 9963TIP3    H251381   1.703   6.478   6.087 -0.3425 -0.6935  0.1765
 9964TIP3   OH251382   0.372   6.740  14.763  0.3698  0.0065 -0.3717
 9964TIP3    H151383   0.355   6.691  14.682 -2.4640  0.1723  0.0105
 9964TIP3    H251384   0.288   6.782  14.783  0.9608 -0.0314  2.6692
 9965TIP3   OH251385   5.941   2.768  11.720 -0.0959 -0.3112 -0.2302
 9965TIP3    H151386   5.929   2.722  11.637  2.7812  1.7941 -2.0180
 9965TIP3    H251387   6.022   2.732  11.756 -0.7582 -0.4588  1.1592
 9966TIP3   OH251388   3.244   6.097  11.310 -0.0459  0.3582  0.5349
 9966TIP3    H151389   3.324   6.052  11.338 -1.0437 -1.2096  1.0387
 9966TIP3    H251390   3.215   6.143  11.389  1.0874  2.1546 -0.0360
 9967TIP3   OH251391   6.388   1.044  11.558 -0.3306  0.5367 -0.4017
 9967TIP3    H151392   6.381   1.139  11.560  1.1281  0.6438  0.5438
 9967TIP3    H251393   6.470   1.026  11.513 -0.6642 -0.2879 -0.7035
 9968TIP3   OH251394   6.580   0.742   0.827  0.5647 -0.1214  1.0424
 9968TIP3    H151395   6.568   0.662   0.776 -1.8861 -0.0759  1.4088
 9968TIP3    H251396   6.672   0.764   0.816  0.9262 -2.0719 -0.4158
 9969TIP3   OH251397   0.265   2.252  15.561  0.3671  0.1337  0.0685
 9969TIP3    H151398   0.257   2.268  15.655 -1.6359  1.5887 -0.2888
 9969TIP3    H251399   0.248   2.158  15.551 -0.0951  0.0916  1.1121
 9970TIP3   OH251400   5.466   2.044   4.536 -0.6134 -0.3337 -0.0494
 9970TIP3    H151401   5.559   2.034   4.558 -0.2938 -0.3171 -1.2837
 9970TIP3    H251402   5.456   2.137   4.516 -1.2949 -0.0038  1.6746
 9971TIP3   OH251403   1.541   5.522   0.869  0.5935 -0.6259  0.0286
 9971TIP3    H151404   1.585   5.605   0.851 -0.5322 -0.3488 -1.7030
 9971TIP3    H251405   1.453   5.533   0.832 -1.1180 -1.0509  3.5729
 9972TIP3   OH251406   1.150   2.011   2.999  0.1117  0.2477 -0.4818
 9972TIP3    H151407   1.150   2.032   2.906 -0.8864  1.5950 -0.2171
 9972TIP3    H251408   1.216   2.068   3.038 -1.8635  2.2809  0.0893
 9973TIP3   OH251409   1.656   3.289  15.014 -0.1874 -0.2364  0.0281
 9973TIP3    H151410   1.568   3.305  14.979  0.1814  1.8763 -0.0525
 9973TIP3    H251411   1.712   3.282  14.936  0.5198  3.7914 -0.0386
 9974TIP3   OH251412   3.134   5.386   5.104 -0.4928  0.1434  0.1531
 9974TIP3    H151413   3.217   5.431   5.089 -0.0274 -0.4985  0.6912
 9974TIP3    H251414   3.096   5.432   5.179 -1.2380  1.2410 -0.8790
 9975TIP3   OH251415   6.587   0.556   1.515 -0.5377 -0.6547  0.3538
 9975TIP3    H151416   6.511   0.602   1.548  0.0190  0.1692  0.5098
 9975TIP3    H251417   6.625   0.615   1.450 -1.3576 -2.0468 -1.4628
 9976TIP3   OH251418   3.576   1.498   4.630  0.4418 -0.5227  0.3283
 9976TIP3    H151419   3.650   1.439   4.612 -1.7627 -2.9874 -1.5399
 9976TIP3    H251420   3.542   1.519   4.543  0.5161  2.8744  0.9955
 9977TIP3   OH251421   1.478   2.505  12.246  0.3070 -0.2378  0.2000
 9977TIP3    H151422   1.523   2.458  12.176 -0.2123  0.3765 -0.5674
 9977TIP3    H251423   1.397   2.535  12.206  0.6839  1.4311  0.6034
 9978TIP3   OH251424   1.858   3.471  13.629 -0.0233  0.1626  0.2382
 9978TIP3    H151425   1.925   3.539  13.629  0.0764  0.0651  0.2759
 9978TIP3    H251426   1.835   3.459  13.721 -0.3986  0.4942  0.1902
 9979TIP3   OH251427   3.212   3.123   1.360 -0.3099 -0.2035  0.1480
 9979TIP3    H151428   3.137   3.117   1.419 -0.0885 -1.4881  0.3442
 9979TIP3    H251429   3.207   3.211   1.323 -2.2439 -0.4532 -0.2967
 9980TIP3   OH251430   6.526   0.949  14.865 -0.1871 -1.0939 -0.2349
 9980TIP3    H151431   6.469   0.954  14.788 -1.6387 -0.4077  0.8326
 9980TIP3    H251432   6.475   0.900  14.929  0.4711 -0.5858  0.7028
 9981TIP3   OH251433   1.843   3.973   0.880  0.0869 -0.2317  0.2816
 9981TIP3    H151434   1.841   3.988   0.785 -2.2836 -0.7819  0.1737
 9981TIP3    H251435   1.905   3.901   0.892  0.8309  0.2106 -0.7774
 9982TIP3   OH251436   0.112   0.673  12.399  0.8834 -0.5299  0.0919
 9982TIP3    H151437   0.195   0.718  12.417  0.9915 -0.3987 -0.6986
 9982TIP3    H251438   0.047   0.743  12.397  0.9457 -0.4857 -0.4722
 9983TIP3   OH251439   2.735   3.636   5.828  0.1947 -0.8106  0.3906
 9983TIP3    H151440   2.670   3.668   5.765  2.0385  0.9163 -0.7534
 9983TIP3    H251441   2.728   3.695   5.902  1.0310 -0.0720 -0.1086
 9984TIP3   OH251442   6.572   4.738   1.020 -0.5405  0.3025  0.0270
 9984TIP3    H151443   6.505   4.769   0.959 -2.0702 -0.9517  0.9809
 9984TIP3    H251444   6.632   4.686   0.966  0.2438  2.1615 -0.9991
 9985TIP3   OH251445   4.256   0.781  11.713  0.2497 -0.0290 -0.2180
 9985TIP3    H151446   4.284   0.797  11.803  1.3317  1.0602 -0.7112
 9985TIP3    H251447   4.193   0.709  11.719 -1.3503  1.4125  1.6616
 9986TIP3   OH251448   3.908   6.751  15.776  0.5806  0.8593 -0.4155
 9986TIP3    H151449   3.824   6.705  15.780  0.6194  0.9030  1.9935
 9986TIP3    H251450   3.972   6.683  15.754  0.4348 -0.0570  1.7440
 9987TIP3   OH251451   4.744   6.142   5.766 -0.0605  0.0621  0.4129
 9987TIP3    H151452   4.673   6.099   5.814 -0.0642 -1.0456 -0.5426
 9987TIP3    H251453   4.815   6.079   5.766  0.0748  0.1920 -0.6856
 9988TIP3   OH251454   2.594   0.975   2.715  0.3930 -0.1539  0.4171
 9988TIP3    H151455   2.508   0.999   2.680 -0.3629  0.2640  2.4277
 9988TIP3    H251456   2.647   1.054   2.705 -0.5525  0.7784  2.3623
 9989TIP3   OH251457   4.293   3.069  11.267  0.4027 -0.4062 -0.4983
 9989TIP3    H151458   4.199   3.084  11.269  0.2691 -1.1009  2.1437
 9989TIP3    H251459   4.302   2.975  11.249  0.5419 -0.5329  0.2137
 9990TIP3   OH251460   5.066   6.350  13.053 -0.6723  0.5556 -0.0109
 9990TIP3    H151461   4.975   6.331  13.076 -0.4140  1.2486  1.7471
 9990TIP3    H251462   5.067   6.445  13.038 -0.0554  0.7388  1.0667
 9991TIP3   OH251463   2.431   0.067  14.799 -0.4284 -0.4651 -0.1327
 9991TIP3    H151464   2.468   0.097  14.716 -0.0488  0.7792  0.4607
 9991TIP3    H251465   2.482   0.113  14.866 -1.6665 -0.3448  0.7575
 9992TIP3   OH251466   5.852   6.005  13.061 -0.3459  0.4680  0.5132
 9992TIP3    H151467   5.816   6.022  13.148 -0.5697  0.5600  0.4041
 9992TIP3    H251468   5.823   5.917  13.040 -0.8411  0.6868  0.2628
 9993TIP3   OH251469   0.854   2.787   0.793 -0.4264 -0.3951  0.4994
 9993TIP3    H151470   0.922   2.724   0.769  0.0391  0.9982 -2.1453
 9993TIP3    H251471   0.780   2.733   0.819 -0.4833 -2.2067 -2.8577
 9994TIP3   OH251472   5.126   1.727   3.291  0.6339  0.0825  0.0661
 9994TIP3    H151473   5.087   1.656   3.240  0.6961  2.1294 -3.1942
 9994TIP3    H251474   5.050   1.773   3.328  0.3637  0.0137 -0.3815
 9995TIP3   OH251475   1.945   3.708   2.886 -0.3821  0.2381  0.0534
 9995TIP3    H151476   2.036   3.685   2.903 -0.5953 -0.8708 -0.2447
 9995TIP3    H251477   1.914   3.641   2.825 -1.0578  1.2763 -0.7823
 9996TIP3   OH251478   3.872   1.059   1.719  0.7049  0.2750 -0.7287
 9996TIP3    H151479   3.878   1.024   1.808 -0.7881  1.2914 -0.1838
 9996TIP3    H251480   3.866   1.154   1.730  3.5494  0.7141 -2.1142
 9997TIP3   OH251481   3.595   2.842  11.064 -0.4801 -0.3865  0.4899
 9997TIP3    H151482   3.518   2.815  11.013 -1.7531 -0.1672  2.2010
 9997TIP3    H251483   3.631   2.916  11.014 -0.7119 -1.1840 -0.9126
 9998TIP3   OH251484   3.830   5.775   3.217  0.4010  0.5698  0.4067
 9998TIP3    H151485   3.750   5.763   3.269  1.7252  1.1426  2.7035
 9998TIP3    H251486   3.898   5.731   3.267  1.7676  1.1102 -0.9071
 9999TIP3   OH251487   1.410   2.065   2.613 -0.7102  0.9539 -0.0589
 9999TIP3    H151488   1.426   1.970   2.618  0.8563  1.2096  0.4869
 9999TIP3    H251489   1.474   2.096   2.548 -0.3238  1.8013  0.7136
10000TIP3   OH251490   2.543   4.088   4.863  0.2690 -0.0704  0.0002
10000TIP3    H151491   2.458   4.127   4.841  0.6641 -0.1680 -1.8212
10000TIP3    H251492   2.522   4.019   4.926 -0.9439  0.1932 -0.0904
10001TIP3   OH251493   5.708   3.638   3.922  0.2238  0.4677  0.3232
10001TIP3    H151494   5.745   3.646   4.010 -1.0380  2.3168  0.7305
10001TIP3    H251495   5.749   3.708   3.872 -0.4044  0.5575 -0.0721
10002TIP3   OH251496   2.128   0.765  11.092  0.6122  0.3497 -0.1039
10002TIP3    H151497   2.195   0.729  11.033 -0.0831  0.1880 -0.8026
10002TIP3    H251498   2.149   0.858  11.096  1.7475  0.0873  0.8380
10003TIP3   OH251499   6.644   0.061   3.990  0.4680 -0.0632 -0.5858
10003TIP3    H151500   6.658   0.053   4.084 -0.6644  0.4008 -0.3623
10003TIP3    H251501   6.618  -0.027   3.961 -0.3812  0.0601 -0.2340
10004TIP3   OH251502   1.019   2.188   2.470  0.3074  0.2344  0.4769
10004TIP3    H151503   0.941   2.132   2.466  0.0735  0.5705  0.2245
10004TIP3    H251504   0.983   2.277   2.474  0.6661  0.5592 -1.9539
10005TIP3   OH251505   5.008   6.524  12.701  0.2067  0.2004  0.3161
10005TIP3    H151506   5.039   6.600  12.652  0.3184 -0.3130 -0.4291
10005TIP3    H251507   5.048   6.449  12.657 -1.6884 -0.4559 -0.4079
10006TIP3   OH251508   1.958   0.871   4.923  0.6364 -0.0748 -0.3237
10006TIP3    H151509   1.943   0.820   5.003  3.8015 -0.6573  0.0372
10006TIP3    H251510   1.906   0.951   4.935 -0.7609 -1.1485  1.2234
10007TIP3   OH251511   6.431   0.064   3.104  0.2950  0.0020 -0.0834
10007TIP3    H151512   6.342   0.059   3.138  0.3357  0.1334  0.0440
10007TIP3    H251513   6.486   0.040   3.178  0.3126 -1.1783 -0.4701
10008TIP3   OH251514   4.986   4.729   4.450 -0.3737  0.2241  0.4354
10008TIP3    H151515   4.967   4.817   4.416  1.3600  0.4434 -0.0737
10008TIP3    H251516   4.983   4.672   4.374  0.3021  0.1709  0.4347
10009TIP3   OH251517   1.352   6.067  16.973 -0.0676  0.1435  0.2052
10009TIP3    H151518   1.376   6.084  16.882  0.6642 -1.4441  0.0637
10009TIP3    H251519   1.260   6.039  16.968  0.1825 -0.6310 -0.1360
10010TIP3   OH251520   6.792   2.906   4.053 -0.4991  0.1420 -0.0550
10010TIP3    H151521   6.799   2.916   4.148 -0.4218  1.4780 -0.1859
10010TIP3    H251522   6.877   2.872   4.027 -0.2688  0.4587  0.2700
10011TIP3   OH251523   5.365   0.502  15.781 -0.4748 -0.2151 -0.1628
10011TIP3    H151524   5.313   0.465  15.710 -1.5429  1.8626 -0.5308
10011TIP3    H251525   5.427   0.561  15.737 -0.5221  0.3783  0.5385
10012TIP3   OH251526   1.004   6.771  14.674 -0.1292 -0.3399 -0.3570
10012TIP3    H151527   1.048   6.855  14.679 -0.1759 -0.4105  2.5054
10012TIP3    H251528   1.027   6.737  14.587  4.4695  0.1480  0.4259
10013TIP3   OH251529   1.345   0.135   3.103 -0.2128  0.2176 -0.0653
10013TIP3    H151530   1.251   0.128   3.113 -0.2818 -0.0635 -0.8233
10013TIP3    H251531   1.380   0.128   3.192 -0.8894  0.1603  0.1987
10014TIP3   OH251532   0.162   5.656   4.109  0.2891  0.3651  0.3008
10014TIP3    H151533   0.186   5.712   4.035  0.5340  0.4964  0.4776
10014TIP3    H251534   0.158   5.716   4.184 -0.2748  0.2874  0.3346
10015TIP3   OH251535   5.672   0.859   1.835  0.2142  0.9339  0.2226
10015TIP3    H151536   5.676   0.865   1.930  1.2180  2.1166  0.1400
10015TIP3    H251537   5.764   0.866   1.807  0.2686 -2.0794 -0.7451
10016TIP3   OH251538   3.653   6.815   6.130 -0.0682  0.4308 -0.2205
10016TIP3    H151539   3.611   6.748   6.183  1.0603  0.6557  1.0149
10016TIP3    H251540   3.681   6.881   6.193  0.2092  1.3273 -1.2439
10017TIP3   OH251541   2.955   4.354   1.713  0.1111 -0.2105 -0.3004
10017TIP3    H151542   3.018   4.320   1.650  0.2041  0.1182 -0.3874
10017TIP3    H251543   2.932   4.440   1.680 -0.4654 -0.3677 -0.3284
10018TIP3   OH251544   4.246   1.382   1.662 -0.3570 -0.1363 -0.6727
10018TIP3    H151545   4.267   1.428   1.743  0.1074 -0.4880 -0.5911
10018TIP3    H251546   4.240   1.451   1.595  1.2540 -0.0298 -0.7459
10019TIP3   OH251547   2.530   5.836   6.204 -0.3150  0.2911  0.1473
10019TIP3    H151548   2.519   5.929   6.188 -0.1020  0.4116  0.6836
10019TIP3    H251549   2.560   5.830   6.295  0.2494 -0.2558 -0.0594
10020TIP3   OH251550   4.617   3.621   5.754  0.0919 -0.1086 -0.3967
10020TIP3    H151551   4.620   3.717   5.749 -2.5827  0.2104  1.5591
10020TIP3    H251552   4.666   3.600   5.833  0.7249 -0.3789 -0.8560
10021TIP3   OH251553   0.542   1.520   4.158  0.1362  0.2845  0.4786
10021TIP3    H151554   0.506   1.441   4.118  1.7342  0.2991 -1.0978
10021TIP3    H251555   0.633   1.523   4.129  0.0044  2.9583  0.1042
10022TIP3   OH251556   0.355   5.532   1.362  0.5465  0.2297 -0.1325
10022TIP3    H151557   0.318   5.576   1.439  0.2078 -0.6303  0.2063
10022TIP3    H251558   0.341   5.594   1.290  1.6302  1.4150  0.6327
10023TIP3   OH251559   0.005   3.291  15.189  0.0083 -0.5850  0.0298
10023TIP3    H151560  -0.059   3.328  15.250 -0.4829 -0.5164 -0.5202
10023TIP3    H251561   0.081   3.270  15.244 -0.4939 -0.6963  0.6923
10024TIP3   OH251562   0.387   2.437   2.879 -0.5905  0.0528 -0.2522
10024TIP3    H151563   0.459   2.403   2.826 -0.2861 -0.2002  0.3104
10024TIP3    H251564   0.308   2.413   2.831 -0.3612 -1.0307 -0.1100
10025TIP3   OH251565   5.236   1.720  13.668  0.1029  0.3731 -0.0230
10025TIP3    H151566   5.325   1.751  13.686  0.1611 -0.1248  0.5919
10025TIP3    H251567   5.222   1.649  13.732  0.2194 -1.3076 -1.7713
10026TIP3   OH251568   4.334   0.680   3.557 -0.1261 -0.1106 -0.1226
10026TIP3    H151569   4.393   0.606   3.543  0.6712  0.4155  0.3725
10026TIP3    H251570   4.390   0.748   3.595 -1.0006  0.4927  0.1086
10027TIP3   OH251571   0.592   1.129   5.222  0.1069 -0.2417 -0.4565
10027TIP3    H151572   0.624   1.212   5.187  2.8305 -0.7499  0.5304
10027TIP3    H251573   0.500   1.125   5.196 -0.1900  3.1587 -0.3203
10028TIP3   OH251574   5.608   6.233   3.064  0.0627 -0.0689 -0.0094
10028TIP3    H151575   5.583   6.141   3.065 -0.3931  0.0439 -0.5400
10028TIP3    H251576   5.675   6.239   2.995 -0.3014  0.0901 -0.3550
10029TIP3   OH251577   3.418   1.807   0.385  0.5026  0.6853  0.3031
10029TIP3    H151578   3.455   1.863   0.453  1.1552  0.9247 -0.2362
10029TIP3    H251579   3.325   1.803   0.405  0.9992 -1.3364  2.7321
10030TIP3   OH251580   5.188   4.372   5.439  0.3313  0.3543  0.1532
10030TIP3    H151581   5.206   4.357   5.346  0.3487  0.4994  0.1339
10030TIP3    H251582   5.194   4.467   5.450  0.0775  0.3601  0.2517
10031TIP3   OH251583   5.809   3.000  11.826 -0.4508  0.1124 -0.0367
10031TIP3    H151584   5.834   3.078  11.776 -0.5307 -1.2710 -2.3790
10031TIP3    H251585   5.844   2.927  11.776 -0.7323 -1.4304  1.8645
10032TIP3   OH251586   6.082   1.665  11.781 -0.0463 -0.0225 -0.6112
10032TIP3    H151587   6.063   1.751  11.819 -0.4119  0.4217 -1.7386
10032TIP3    H251588   5.996   1.623  11.773  0.1198 -0.4464 -0.1616
10033TIP3   OH251589   2.927   4.467  13.751 -0.2683 -0.3927 -0.3809
10033TIP3    H151590   2.933   4.419  13.833 -0.1725 -1.7746 -1.1708
10033TIP3    H251591   2.834   4.483  13.739 -0.4295 -1.5378 -0.7421
10034TIP3   OH251592   3.307   5.453   3.330  0.1222  0.1917 -0.2623
10034TIP3    H151593   3.390   5.453   3.282 -0.7497  0.9580 -1.8585
10034TIP3    H251594   3.322   5.511   3.405  1.3930 -0.7078  0.2110
10035TIP3   OH251595   6.081   0.950  17.023  0.0947 -0.3051  0.1357
10035TIP3    H151596   6.113   0.932  16.935 -1.6463  0.8740 -0.7907
10035TIP3    H251597   6.073   0.863  17.064  0.6334 -0.8925 -0.9577
10036TIP3   OH251598   2.129   2.136   3.701 -0.2948 -0.4766  0.0973
10036TIP3    H151599   2.185   2.098   3.632 -0.4462  1.8738 -1.4333
10036TIP3    H251600   2.053   2.169   3.654 -2.5728 -2.6333  2.0108
10037TIP3   OH251601   5.178   5.047  15.463 -0.3374 -0.3157  0.4200
10037TIP3    H151602   5.100   5.035  15.516 -1.3831  1.9565 -0.4428
10037TIP3    H251603   5.145   5.052  15.373  0.8350  0.2941  0.0002
10038TIP3   OH251604   3.119   1.641   0.671 -0.0511  0.0309  0.4980
10038TIP3    H151605   3.117   1.630   0.766  0.9417  1.2859  0.6879
10038TIP3    H251606   3.196   1.592   0.643  0.4505  0.7838  0.5261
10039TIP3   OH251607   4.564   4.201   2.157  0.1674 -0.4478  0.0032
10039TIP3    H151608   4.583   4.108   2.146  0.8337 -0.0349 -3.2278
10039TIP3    H251609   4.608   4.244   2.084  0.3681  2.5319  1.6929
10040TIP3   OH251610   4.260   5.058  12.329  0.1110 -0.0384  0.2493
10040TIP3    H151611   4.194   5.023  12.389 -0.3216  1.0418  0.4283
10040TIP3    H251612   4.340   5.064  12.382 -0.2669  0.9082  0.7474
10041TIP3   OH251613   2.014   2.184   3.207 -0.0920  0.1170 -1.0682
10041TIP3    H151614   1.937   2.162   3.155 -0.1967 -0.2311 -0.7746
10041TIP3    H251615   1.981   2.197   3.296  0.3903 -1.8183 -0.5436
10042TIP3   OH251616   0.755   0.123  11.664  0.1583 -0.0277  0.0863
10042TIP3    H151617   0.812   0.050  11.638  0.7104  0.6006 -0.5012
10042TIP3    H251618   0.720   0.156  11.582 -1.4293 -0.6740  0.4672
10043TIP3   OH251619   3.147   0.586   0.986 -0.3141  0.0514 -0.7887
10043TIP3    H151620   3.076   0.574   0.922 -0.6694  0.5228 -0.4922
10043TIP3    H251621   3.171   0.678   0.978  0.0010 -0.0142 -0.6070
10044TIP3   OH251622   6.011   3.508   3.899 -0.2293 -0.2798  0.1425
10044TIP3    H151623   6.006   3.555   3.816  1.7700 -1.7619 -0.9124
10044TIP3    H251624   5.938   3.446   3.897  0.8503 -1.5779 -1.4164
10045TIP3   OH251625   1.373   3.388  15.371 -0.0090  0.4655 -0.1266
10045TIP3    H151626   1.346   3.353  15.455 -0.9111 -1.3926 -1.1506
10045TIP3    H251627   1.466   3.411  15.383  0.3528 -1.3817  0.8886
10046TIP3   OH251628   4.703   3.097   2.245 -0.1384 -0.1170  0.2300
10046TIP3    H151629   4.708   3.002   2.252  1.4333 -0.0353  0.6150
10046TIP3    H251630   4.677   3.113   2.154 -0.9665 -0.9105  0.3172
10047TIP3   OH251631   2.147   6.131   1.600  0.0484 -0.2277 -0.0801
10047TIP3    H151632   2.104   6.067   1.543  2.7905 -0.6676 -1.8445
10047TIP3    H251633   2.189   6.079   1.668 -1.0469  0.0883  0.8657
10048TIP3   OH251634   6.740   1.041   5.154  0.3606  0.0497 -0.3243
10048TIP3    H151635   6.672   0.998   5.206  0.1636  1.0994  0.3110
10048TIP3    H251636   6.701   1.052   5.068  0.2269 -0.5738 -0.3475
10049TIP3   OH251637   6.144   6.325  12.450  0.6571 -0.2170  0.9390
10049TIP3    H151638   6.211   6.334  12.518  0.4628 -0.4539  1.1636
10049TIP3    H251639   6.180   6.262  12.388  0.1292 -1.3187  1.7084
10050TIP3   OH251640   1.987   0.460   3.081 -0.4524  0.0962 -0.0008
10050TIP3    H151641   1.964   0.553   3.088  1.8114  0.7941 -1.0505
10050TIP3    H251642   1.908   0.414   3.110 -1.5702  2.3289  0.7364
10051TIP3   OH251643   4.485   1.631  15.698  0.4806 -0.4274 -0.6756
10051TIP3    H151644   4.507   1.719  15.726 -0.3697 -0.4766  0.2062
10051TIP3    H251645   4.405   1.642  15.646 -0.8908 -0.8557  1.2123
10052TIP3   OH251646   2.227   2.515  15.313 -0.1237  0.5630 -0.2968
10052TIP3    H151647   2.181   2.432  15.329 -0.1245  0.7801  0.9432
10052TIP3    H251648   2.307   2.489  15.266 -0.5979 -0.0267 -0.7900
10053TIP3   OH251649   1.437   1.241  11.092  0.0936  0.0951 -0.0976
10053TIP3    H151650   1.471   1.304  11.154 -0.0403  2.7723 -2.5501
10053TIP3    H251651   1.355   1.211  11.131 -0.3980  2.2869  0.6918
10054TIP3   OH251652   2.509   3.002  12.118  0.6694 -0.3040  0.8863
10054TIP3    H151653   2.423   3.037  12.141  0.5487 -0.3027  0.4440
10054TIP3    H251654   2.546   2.973  12.201 -0.4211 -1.8314  0.8650
10055TIP3   OH251655   1.929   6.590  12.325 -0.4711  0.0177  0.3230
10055TIP3    H151656   1.883   6.506  12.333 -0.3423 -0.1627 -0.7267
10055TIP3    H251657   1.886   6.634  12.251  0.6363  0.1084 -0.2827
10056TIP3   OH251658   1.137   6.202  16.798  0.4743  0.3881 -0.6741
10056TIP3    H151659   1.179   6.145  16.734 -0.2333  0.4351 -1.2053
10056TIP3    H251660   1.113   6.280  16.748 -0.6890  0.1466 -0.5244
10057TIP3   OH251661   1.216   6.223  11.836  0.0987 -0.5557  0.6619
10057TIP3    H151662   1.254   6.164  11.771  0.6680  0.0391  0.4441
10057TIP3    H251663   1.215   6.308  11.793 -1.4883 -0.5370  0.6640
10058TIP3   OH251664   5.221   3.106   3.521 -0.3943 -0.5674  0.3007
10058TIP3    H151665   5.156   3.139   3.582 -1.1204 -1.4023  0.0172
10058TIP3    H251666   5.186   3.129   3.434  0.9058  1.1149  0.1812
10059TIP3   OH251667   0.313   0.409   3.874  0.1976 -0.2434 -0.0592
10059TIP3    H151668   0.279   0.326   3.908 -1.8877  0.6073  0.0907
10059TIP3    H251669   0.401   0.415   3.912  0.2282 -2.1439  0.3036
10060TIP3   OH251670   2.948   2.649  14.309  0.1509 -0.1227 -0.2840
10060TIP3    H151671   3.043   2.654  14.322 -0.0317 -0.0842  1.1570
10060TIP3    H251672   2.934   2.564  14.266  0.6553 -1.2434  1.6331
10061TIP3   OH251673   2.044   1.375   4.551  0.2827 -1.1592  0.7296
10061TIP3    H151674   2.032   1.462   4.511  0.1695 -1.9613 -1.0803
10061TIP3    H251675   2.138   1.361   4.550  0.3445 -0.8480  1.5322
10062TIP3   OH251676   5.444   6.150   6.526  0.0427 -0.2576  0.8568
10062TIP3    H151677   5.364   6.202   6.526  0.5711  0.5662  1.1604
10062TIP3    H251678   5.513   6.211   6.553  0.8833 -0.7990 -0.0009
10063TIP3   OH251679   2.651   4.673  16.627 -0.5588  0.4466  0.2340
10063TIP3    H151680   2.672   4.710  16.713 -0.0259  0.6414  0.0219
10063TIP3    H251681   2.664   4.746  16.566 -0.9342  0.3079 -0.0152
10064TIP3   OH251682   3.391   1.427   2.961 -0.1352  0.0551 -0.1433
10064TIP3    H151683   3.334   1.399   3.033 -0.9016  1.0921 -0.3231
10064TIP3    H251684   3.407   1.346   2.911  1.1183 -0.8584  1.6197
10065TIP3   OH251685   2.190   0.158   1.515  0.3825 -0.2155 -0.3069
10065TIP3    H151686   2.267   0.119   1.475  1.1846  1.0806 -0.0959
10065TIP3    H251687   2.223   0.200   1.595 -0.8831 -1.2566  0.8124
10066TIP3   OH251688   6.402   3.825  13.324  0.4350 -0.3172 -0.0720
10066TIP3    H151689   6.497   3.832  13.315  0.4521 -0.3199  0.0879
10066TIP3    H251690   6.376   3.760  13.259  0.7833 -1.7511  1.1613
10067TIP3   OH251691   2.013   1.964  15.516  0.4198 -0.7492  0.0890
10067TIP3    H151692   1.956   1.951  15.592  3.0059 -0.2831  2.2460
10067TIP3    H251693   2.063   1.883  15.509  0.3790 -0.6968 -1.0004
10068TIP3   OH251694   6.258   2.984  10.511  0.4376  0.0544 -0.1445
10068TIP3    H151695   6.196   2.952  10.445  0.3246 -0.3647  0.1616
10068TIP3    H251696   6.217   3.063  10.545 -0.7497 -1.0909  1.2225
10069TIP3   OH251697   3.066   3.024  12.865 -0.6092 -0.0831 -0.4158
10069TIP3    H151698   3.085   3.033  12.958 -1.5126 -3.1962  0.1820
10069TIP3    H251699   2.999   2.956  12.860  0.6106 -1.2612 -3.4282
10070TIP3   OH251700   5.518   5.964   2.799  0.5235 -0.2688  0.6060
10070TIP3    H151701   5.453   6.033   2.788 -0.9608 -1.1013  3.2219
10070TIP3    H251702   5.478   5.887   2.759  0.5593 -0.4478  0.9146
10071TIP3   OH251703   2.521   5.135  12.009  0.5168 -0.4778  0.1589
10071TIP3    H151704   2.536   5.173  12.096  0.1182 -0.4142  0.2017
10071TIP3    H251705   2.515   5.210  11.951 -1.4567 -0.3800  0.4215
10072TIP3   OH251706   1.285   3.588  14.138  0.4656  0.2680 -0.2472
10072TIP3    H151707   1.305   3.516  14.077  0.3638  0.8093 -0.9273
10072TIP3    H251708   1.248   3.544  14.214  1.2833 -0.4867 -0.2646
10073TIP3   OH251709   5.857   4.265  12.382  0.4524  0.2388  0.1165
10073TIP3    H151710   5.927   4.233  12.438  0.5262  0.6791  0.2816
10073TIP3    H251711   5.898   4.334  12.330  0.3496 -0.0688 -0.3857
10074TIP3   OH251712   3.766   5.240  15.537  0.7337 -0.1612 -0.0287
10074TIP3    H151713   3.766   5.283  15.452  1.4289  2.0492  1.0235
10074TIP3    H251714   3.717   5.300  15.594 -0.9345 -2.2416  0.8626
10075TIP3   OH251715   5.928   3.693   3.687  0.4251  0.4337 -0.1866
10075TIP3    H151716   5.861   3.692   3.619  0.7836  0.3098 -0.5410
10075TIP3    H251717   5.918   3.778   3.729  0.2347  0.5323 -0.4286
10076TIP3   OH251718   2.644   6.765   5.046 -0.2744 -0.1883  0.0924
10076TIP3    H151719   2.697   6.757   5.126 -0.8484 -0.5076  0.4534
10076TIP3    H251720   2.554   6.769   5.078 -0.5121 -0.3579 -0.5468
10077TIP3   OH251721   0.731   2.027   2.521 -0.0347 -0.1785 -0.2828
10077TIP3    H151722   0.700   2.026   2.612  1.7781  0.6586  0.3883
10077TIP3    H251723   0.763   1.938   2.506 -1.2661 -0.6097 -0.4724
10078TIP3   OH251724   4.988   0.705  14.657 -0.0695 -0.1860  0.2100
10078TIP3    H151725   4.924   0.732  14.723  0.1627  0.9346 -0.0097
10078TIP3    H251726   4.999   0.782  14.602 -1.3816 -1.5234 -2.0773
10079TIP3   OH251727   4.050   4.273   4.978  0.2008 -0.3592  0.5480
10079TIP3    H151728   4.130   4.302   5.022  0.1847 -0.6402  0.7637
10079TIP3    H251729   4.051   4.320   4.894  0.9592 -0.8805  0.2395
10080TIP3   OH251730   0.970   5.088   0.539 -0.0357  0.1569 -0.0940
10080TIP3    H151731   0.877   5.099   0.561  0.1903  0.6148  0.6470
10080TIP3    H251732   0.969   5.036   0.458 -0.9024 -1.4779  0.9081
10081TIP3   OH251733   4.723   6.287   4.493 -0.2763 -0.7806 -0.3744
10081TIP3    H151734   4.661   6.300   4.565 -1.6285 -0.0119 -1.6248
10081TIP3    H251735   4.722   6.192   4.479  1.8491 -1.2899  2.1159
10082TIP3   OH251736   5.607   2.376   5.452  0.2188 -0.0489  0.0838
10082TIP3    H151737   5.532   2.359   5.510  0.6102  1.8809  1.2716
10082TIP3    H251738   5.654   2.293   5.449 -2.2655 -1.5481 -1.2593
10083TIP3   OH251739   0.278   1.817   5.657 -0.1563  0.0308 -0.2324
10083TIP3    H151740   0.296   1.911   5.665 -0.9103  0.2014 -0.4693
10083TIP3    H251741   0.221   1.796   5.730  1.1806 -0.5703  0.6799
10084TIP3   OH251742   0.100   4.905  16.243 -0.0023  0.1563 -1.0505
10084TIP3    H151743   0.017   4.858  16.257  0.2282 -0.4617 -1.6940
10084TIP3    H251744   0.149   4.849  16.183  0.3786  1.1266 -1.6630
10085TIP3   OH251745   2.408   1.470   3.867  0.6682  0.4050 -0.1136
10085TIP3    H151746   2.344   1.541   3.865  1.3987  1.0767 -1.0240
10085TIP3    H251747   2.438   1.463   3.776  0.5277 -1.1625 -0.0685
10086TIP3   OH251748   1.295   0.950  17.072 -0.0743  0.4294 -1.0331
10086TIP3    H151749   1.262   0.957  16.983  1.9367  2.1730 -1.7296
10086TIP3    H251750   1.391   0.947  17.062  0.1552 -0.4461  1.0132
10087TIP3   OH251751   2.069   0.831  16.860  0.4523 -0.2621 -0.2922
10087TIP3    H151752   2.158   0.812  16.888  0.7002  1.4157  0.1901
10087TIP3    H251753   2.046   0.912  16.906 -1.8996 -1.4608  0.8255
10088TIP3   OH251754   0.332   2.605  15.158  0.5250  0.0880 -0.0650
10088TIP3    H151755   0.317   2.560  15.240  1.4599 -1.3460 -0.6462
10088TIP3    H251756   0.258   2.581  15.102 -0.4024  1.5005  0.4847
10089TIP3   OH251757   5.063   1.824   5.789 -0.7217 -0.1671 -0.1215
10089TIP3    H151758   5.047   1.891   5.856 -0.5266  0.7257 -0.9369
10089TIP3    H251759   4.979   1.781   5.777 -1.2630  1.0082 -0.6967
10090TIP3   OH251760   3.641   1.566   6.716 -0.0381 -0.4299  0.0776
10090TIP3    H151761   3.681   1.511   6.783 -0.4251 -0.7749  0.0294
10090TIP3    H251762   3.690   1.648   6.720 -1.4281  0.4027  2.2955
10091TIP3   OH251763   6.257   6.757  17.165  0.1308  0.5973 -0.3028
10091TIP3    H151764   6.320   6.706  17.216 -1.1276  0.2682  0.9852
10091TIP3    H251765   6.270   6.727  17.075  1.4168  0.1421  0.0083
10092TIP3   OH251766   6.409   6.816   6.260 -0.3941  0.1527  0.0271
10092TIP3    H151767   6.473   6.759   6.217  0.8951  1.4012  0.2272
10092TIP3    H251768   6.461   6.889   6.294 -1.7115  0.3996  1.6164
10093TIP3   OH251769   6.362   0.386   4.113  0.1498  0.3417  0.0099
10093TIP3    H151770   6.453   0.416   4.110  0.7394 -1.3232 -0.2132
10093TIP3    H251771   6.355   0.325   4.039 -1.1331  0.3701  0.0818
10094TIP3   OH251772   0.708   4.845   0.827  0.7323 -0.4012  0.3243
10094TIP3    H151773   0.760   4.769   0.800  0.5412 -0.8078  1.0748
10094TIP3    H251774   0.770   4.900   0.876  0.9184  0.0314 -0.3753
10095TIP3   OH251775   4.064   4.682  13.190  0.0712  0.2307  0.3725
10095TIP3    H151776   4.074   4.766  13.234  1.1935  0.5320 -0.4135
10095TIP3    H251777   4.075   4.617  13.259 -0.0267  0.7137  0.8472
10096TIP3   OH251778   4.450   0.705   5.564 -0.5230 -0.1860  0.1745
10096TIP3    H151779   4.432   0.798   5.553 -0.4288 -0.2847 -0.8951
10096TIP3    H251780   4.366   0.668   5.592 -0.6122  0.1829  0.4031
10097TIP3   OH251781   0.507   1.614  13.983 -0.8359 -0.0076 -0.1794
10097TIP3    H151782   0.563   1.683  13.948  0.3860 -1.0261 -0.3271
10097TIP3    H251783   0.515   1.542  13.920 -0.8041 -0.8554  0.7551
10098TIP3   OH251784   1.689   3.732  15.732  0.3269  0.6242 -0.2829
10098TIP3    H151785   1.658   3.754  15.820 -0.8497 -0.5391 -0.3781
10098TIP3    H251786   1.699   3.636  15.734 -0.2708  0.5270 -1.5856
10099TIP3   OH251787   5.613   1.464   4.084 -0.1790  0.3732  0.5560
10099TIP3    H151788   5.702   1.456   4.118  0.0660  0.4927 -0.0433
10099TIP3    H251789   5.574   1.378   4.100 -0.2951  0.6270  1.7402
10100TIP3   OH251790   5.366   3.173  12.216  0.0335  0.0385 -0.4866
10100TIP3    H151791   5.358   3.226  12.295  0.7316 -1.2187  0.4578
10100TIP3    H251792   5.314   3.220  12.151 -0.3492  1.2370  0.6304
10101TIP3   OH251793   5.205   6.350   3.414 -0.1642 -0.2775  0.1165
10101TIP3    H151794   5.274   6.323   3.353 -0.9920 -0.0294 -0.9648
10101TIP3    H251795   5.224   6.302   3.494 -0.0822 -2.0771 -0.9176
10102TIP3   OH251796   5.310   0.566   4.522 -0.2498  0.0132 -0.2270
10102TIP3    H151797   5.270   0.484   4.492 -1.4926  0.0639  1.1809
10102TIP3    H251798   5.253   0.596   4.593  1.0283  1.3260  0.2919
10103TIP3   OH251799   2.328   3.920  14.398 -0.4731  0.3128  0.5075
10103TIP3    H151800   2.311   3.840  14.448 -2.5129 -2.2366 -3.7096
10103TIP3    H251801   2.242   3.961  14.389  0.0587  1.3764  0.1210
10104TIP3   OH251802   1.908   6.833   1.867 -0.3048 -0.2264  0.5911
10104TIP3    H151803   1.835   6.834   1.928  0.9193  1.5372  2.1178
10104TIP3    H251804   1.974   6.777   1.909  0.0688 -0.0074  0.3084
10105TIP3   OH251805   0.843   5.628   1.173  0.0958 -0.0911 -0.7371
10105TIP3    H151806   0.763   5.618   1.225 -0.1589 -0.0054 -1.1096
10105TIP3    H251807   0.862   5.540   1.142  0.2709 -0.1491 -0.4620
10106TIP3   OH251808   0.063   0.359   0.033 -0.2899  0.5821 -0.2227
10106TIP3    H151809   0.031   0.318   0.113  0.0950 -2.1363 -1.3639
10106TIP3    H251810   0.036   0.300  -0.037  1.1303  1.8138 -1.9052
10107TIP3   OH251811   5.160   4.760   4.019 -0.2772 -0.9681 -0.1818
10107TIP3    H151812   5.130   4.713   4.097  0.1242  0.3271  0.7750
10107TIP3    H251813   5.231   4.705   3.984 -0.6526 -1.7030  0.1802
10108TIP3   OH251814   0.531   3.799   4.717  0.1670  0.5215 -0.0334
10108TIP3    H151815   0.529   3.884   4.675  0.3271  0.6427  0.2040
10108TIP3    H251816   0.539   3.818   4.810  0.8573  0.2386 -0.0322
10109TIP3   OH251817   6.041   5.461   5.209 -0.5063  0.2270  0.4208
10109TIP3    H151818   5.965   5.476   5.152 -2.0639 -0.2152  2.2885
10109TIP3    H251819   6.049   5.542   5.260  1.3217  0.9026 -0.8178
10110TIP3   OH251820   5.339   2.950   3.102  0.1059 -0.4343  0.1938
10110TIP3    H151821   5.399   2.994   3.162 -1.0688  2.4600 -0.6029
10110TIP3    H251822   5.313   2.871   3.148 -0.5808  1.5335  3.4701
10111TIP3   OH251823   5.670   2.690   3.519 -0.8256  0.1109  0.6648
10111TIP3    H151824   5.721   2.770   3.536  0.0171  0.2152 -1.8549
10111TIP3    H251825   5.722   2.620   3.557 -0.3297  0.5362  0.7875
10112TIP3   OH251826   6.599   5.111  14.513 -0.4081 -0.0501 -0.8097
10112TIP3    H151827   6.517   5.141  14.475 -0.1479  2.3938  0.3573
10112TIP3    H251828   6.648   5.076  14.439 -0.1782  3.8951 -2.7696
10113TIP3   OH251829   0.904   4.854   5.083 -0.5760  0.2011  0.6335
10113TIP3    H151830   0.986   4.822   5.120  0.1544  0.9997 -0.2302
10113TIP3    H251831   0.838   4.835   5.149 -0.0112 -2.0748  0.6037
10114TIP3   OH251832   3.450   4.700   0.217  0.4171  0.5316  0.3139
10114TIP3    H151833   3.456   4.744   0.302 -0.3642 -0.5770  0.9697
10114TIP3    H251834   3.520   4.635   0.218 -0.1581 -0.1022  0.5060
10115TIP3   OH251835   2.611   5.880  15.797  0.2621  0.0913 -0.5951
10115TIP3    H151836   2.595   5.973  15.785  0.8936  0.4349  0.9345
10115TIP3    H251837   2.525   5.844  15.822  0.1810  0.4228 -0.3862
10116TIP3   OH251838   2.195   3.929   3.316 -0.5300  0.0137 -0.3131
10116TIP3    H151839   2.143   4.008   3.333  0.6521  1.0010 -1.1402
10116TIP3    H251840   2.158   3.863   3.376 -1.5816  1.1644  0.3556
10117TIP3   OH251841   4.039   2.842   3.598  0.1745  0.1446 -0.7262
10117TIP3    H151842   4.019   2.872   3.687  2.3070 -0.5779  0.0671
10117TIP3    H251843   3.963   2.790   3.572 -0.3860  0.1597  0.7924
10118TIP3   OH251844   1.788   4.941   2.865  0.6070 -0.4710 -0.0967
10118TIP3    H151845   1.792   4.854   2.905 -0.7942 -0.7194 -0.4208
10118TIP3    H251846   1.694   4.961   2.862  0.7622  0.1746 -1.8584
10119TIP3   OH251847   5.143   3.318  12.709  0.0446  0.1589 -0.5502
10119TIP3    H151848   5.108   3.407  12.705  0.4433  0.2784 -2.0116
10119TIP3    H251849   5.067   3.261  12.702 -0.1279  0.3982 -0.6243
10120TIP3   OH251850   3.112   5.779   3.003 -0.0818  0.3770  0.1564
10120TIP3    H151851   3.097   5.865   3.043 -3.0321  0.0306  0.0081
10120TIP3    H251852   3.050   5.776   2.930 -0.4798 -2.0871  0.5221
10121TIP3   OH251853   0.551   5.735   5.017 -0.0502  0.1442  0.0491
10121TIP3    H151854   0.475   5.766   4.969 -0.4268 -0.8868 -0.0579
10121TIP3    H251855   0.570   5.804   5.079 -1.4594  0.1700  0.4943
10122TIP3   OH251856   1.136   3.598  13.307  0.4808  0.1032  0.3859
10122TIP3    H151857   1.117   3.634  13.221 -0.9042 -0.8166  0.2643
10122TIP3    H251858   1.112   3.668  13.368  0.2332  0.3019  0.0641
10123TIP3   OH251859   0.167   4.667   3.194 -0.5542  0.4585  0.2283
10123TIP3    H151860   0.122   4.729   3.138 -0.6519  1.8561  1.7802
10123TIP3    H251861   0.224   4.721   3.250 -0.2129 -0.8855  1.2388
10124TIP3   OH251862   0.783   2.353   4.305 -0.2676  0.2980  0.3831
10124TIP3    H151863   0.829   2.416   4.361 -2.2966  1.6974  0.5735
10124TIP3    H251864   0.714   2.317   4.361  0.4961 -1.7270  0.0984
10125TIP3   OH251865   3.577   1.593  12.024 -0.8656 -0.4349  0.1589
10125TIP3    H151866   3.635   1.517  12.023  0.7283  0.7129 -0.9611
10125TIP3    H251867   3.526   1.584  11.943 -1.9334 -1.1836  0.8940
10126TIP3   OH251868   0.275   0.773   5.039  0.2294 -0.1707 -0.0962
10126TIP3    H151869   0.281   0.851   5.094  1.2130  1.5696 -2.5046
10126TIP3    H251870   0.308   0.702   5.094  1.7471  1.5705  1.3635
10127TIP3   OH251871   3.922   1.579   2.221 -0.4065  0.0207  0.1757
10127TIP3    H151872   3.983   1.541   2.158  0.3300  0.4810  0.5999
10127TIP3    H251873   3.936   1.529   2.301 -0.5577  0.1564  0.2861
10128TIP3   OH251874   6.773   0.628  10.864  0.4368 -0.1933  0.5484
10128TIP3    H151875   6.861   0.652  10.836  0.3560  1.0574  1.2843
10128TIP3    H251876   6.721   0.626  10.783  0.8837  0.2084  0.2519
10129TIP3   OH251877   6.033   5.725   5.878  0.1444 -0.6447 -0.1801
10129TIP3    H151878   6.001   5.770   5.957 -2.5116 -0.2119 -1.3899
10129TIP3    H251879   6.037   5.633   5.904  0.6984 -0.3538  0.8470
10130TIP3   OH251880   4.022   6.818   1.055 -0.1760  0.2389 -0.5177
10130TIP3    H151881   3.960   6.757   1.013 -2.0533  1.0727  0.9178
10130TIP3    H251882   4.053   6.770   1.132  1.7342 -0.5176 -1.6907
10131TIP3   OH251883   0.383   6.027  14.828 -0.1786  0.5885 -0.1394
10131TIP3    H151884   0.385   5.991  14.740  1.6197 -0.3804  0.2449
10131TIP3    H251885   0.397   6.121  14.816  3.4563  0.0945 -0.8129
10132TIP3   OH251886   0.286   1.733   3.851  0.1194  0.3916 -0.0090
10132TIP3    H151887   0.377   1.712   3.874  0.0583 -0.4666 -0.5049
10132TIP3    H251888   0.286   1.826   3.832  0.9993  0.2979 -0.4818
10133TIP3   OH251889   4.140   4.028   5.144 -0.6096  0.1881 -0.3910
10133TIP3    H151890   4.233   4.031   5.122 -0.7159  1.4804 -0.7260
10133TIP3    H251891   4.096   4.061   5.066 -1.3906 -0.7500 -0.3699
10134TIP3   OH251892   1.937   1.881   3.017  0.2452  0.1503 -0.3573
10134TIP3    H151893   1.872   1.846   3.079  0.1927  0.4122 -0.2632
10134TIP3    H251894   1.890   1.950   2.970  0.5574  0.5687 -0.0544
10135TIP3   OH251895   5.273   5.538  11.755 -0.0956  0.0428  0.2594
10135TIP3    H151896   5.185   5.545  11.791  0.2626 -0.5799  1.2984
10135TIP3    H251897   5.292   5.444  11.755  0.4982  0.1551 -0.1082
10136TIP3   OH251898   5.059   4.743  12.114  0.0395 -0.3590  0.2927
10136TIP3    H151899   5.038   4.834  12.137  0.7120 -0.5060  1.5650
10136TIP3    H251900   5.020   4.731  12.028 -2.0757  0.4273  1.0814
10137TIP3   OH251901   6.571   3.650  12.593  0.2720  0.6564  0.3460
10137TIP3    H151902   6.606   3.621  12.509 -2.2231 -2.6343  0.2750
10137TIP3    H251903   6.614   3.595  12.658 -0.2472  0.8642  0.8786
10138TIP3   OH251904   5.866   2.949  10.539  0.0062  0.1642  0.2888
10138TIP3    H151905   5.926   3.024  10.546  0.0739  0.0259  1.2432
10138TIP3    H251906   5.795   2.981  10.484  0.3923  0.6955  0.0834
10139TIP3   OH251907   4.635   3.796   6.031 -0.0849 -0.1310  0.4863
10139TIP3    H151908   4.547   3.759   6.038  0.6082 -1.5694  2.2032
10139TIP3    H251909   4.625   3.868   5.968 -2.4730 -0.2387  0.6402
10140TIP3   OH251910   0.414   2.781  13.735  0.1008  0.1833  0.2906
10140TIP3    H151911   0.380   2.859  13.691  0.3452  0.9928  1.4770
10140TIP3    H251912   0.337   2.726  13.750  0.0485 -0.2047 -1.2966
10141TIP3   OH251913   2.131   3.426  11.956  0.0978 -0.0652  0.2884
10141TIP3    H151914   2.037   3.442  11.966  0.0814 -0.6774  1.2490
10141TIP3    H251915   2.159   3.395  12.042  1.3326  0.8233  0.2253
10142TIP3   OH251916   0.785   2.378   1.497  0.0082  0.2239  0.0324
10142TIP3    H151917   0.786   2.462   1.452  0.3873 -0.2889 -0.9282
10142TIP3    H251918   0.857   2.328   1.458  0.7185 -0.0430  1.5858
10143TIP3   OH251919   1.648   5.831  11.255 -0.3291 -0.1320 -0.5870
10143TIP3    H151920   1.597   5.849  11.176 -0.0255 -0.3485 -0.8351
10143TIP3    H251921   1.634   5.738  11.271  1.2312 -0.5771 -1.5665
10144TIP3   OH251922   1.769   5.485   2.184  0.1638 -0.6315 -0.3273
10144TIP3    H151923   1.705   5.424   2.148 -0.7757  0.1839 -0.0825
10144TIP3    H251924   1.771   5.558   2.122  0.2219 -0.2611  0.1020
10145TIP3   OH251925   1.687   3.699  13.193 -0.5927  0.1418 -0.8605
10145TIP3    H151926   1.594   3.689  13.212 -0.0354 -0.3033  1.9730
10145TIP3    H251927   1.725   3.613  13.209  0.5281  0.6563 -0.6188
10146TIP3   OH251928   1.972   5.430   1.831  0.0327 -0.1479 -0.8087
10146TIP3    H151929   2.039   5.363   1.844 -0.3710 -0.1576  1.7972
10146TIP3    H251930   1.891   5.389   1.861 -0.5906  0.8583 -1.0643
10147TIP3   OH251931   5.831   0.724   4.019  0.1496 -0.1865  0.0555
10147TIP3    H151932   5.884   0.671   3.959 -0.5824  0.6968 -1.4121
10147TIP3    H251933   5.890   0.741   4.093  1.0875 -1.2851 -0.4045
10148TIP3   OH251934   6.728   1.863   0.558  0.0385 -0.4234  0.1389
10148TIP3    H151935   6.791   1.922   0.600 -1.7202  1.4745  0.2867
10148TIP3    H251936   6.679   1.919   0.499 -0.9170 -2.0241 -0.6472
10149TIP3   OH251937   2.897   1.798   0.824  0.3216 -0.2222 -0.1334
10149TIP3    H151938   2.846   1.871   0.789  0.5382  0.5493  1.1155
10149TIP3    H251939   2.959   1.777   0.753  1.0236  1.5787 -0.1117
10150TIP3   OH251940   3.158   3.977   0.811  0.2119 -0.2065 -0.3864
10150TIP3    H151941   3.186   3.906   0.868  1.3517  0.4807 -0.0609
10150TIP3    H251942   3.239   4.017   0.780 -0.4012  0.8198 -0.7331
10151TIP3   OH251943   0.866   6.709   0.236  0.3004  0.1149 -0.6609
10151TIP3    H151944   0.872   6.623   0.276 -0.2706  0.3522 -0.0499
10151TIP3    H251945   0.824   6.694   0.151 -3.0122  0.1658  0.8358
10152TIP3   OH251946   5.018   5.775  13.368  0.1616  0.0751 -0.1262
10152TIP3    H151947   4.973   5.844  13.415 -0.9916  0.1129 -1.2576
10152TIP3    H251948   5.074   5.820  13.306  1.8174  0.0292  1.2399
10153TIP3   OH251949   6.109   3.757  12.299 -0.1248 -0.0447 -0.0066
10153TIP3    H151950   6.069   3.822  12.241 -0.8960  0.1467  0.7237
10153TIP3    H251951   6.135   3.685  12.240 -0.0164  0.5550 -0.7072
10154TIP3   OH251952   2.820   1.989   1.393 -0.4964  0.7493 -0.6468
10154TIP3    H151953   2.764   2.035   1.455 -1.0541  1.3614 -1.5958
10154TIP3    H251954   2.874   2.057   1.354  0.3933  0.2605 -0.2848
10155TIP3   OH251955   1.404   2.639   4.110 -0.3724  0.2068 -0.3456
10155TIP3    H151956   1.414   2.655   4.016  0.2029  2.1326 -0.0188
10155TIP3    H251957   1.419   2.725   4.150  3.0631 -1.1443  1.7821
10156TIP3   OH251958   5.712   4.401   3.482 -0.1833 -0.2047  0.1270
10156TIP3    H151959   5.640   4.338   3.473 -1.0596  0.6431  0.9265
10156TIP3    H251960   5.673   4.474   3.530  1.1564  0.3885  0.3410
10157TIP3   OH251961   4.042   3.588   3.077 -0.1038  1.3995  0.3389
10157TIP3    H151962   3.952   3.559   3.061 -0.0684  0.9789  0.8978
10157TIP3    H251963   4.057   3.571   3.170  0.8555  0.6324  0.0533
10158TIP3   OH251964   5.576   3.711  16.840  0.1122  0.1828 -0.1936
10158TIP3    H151965   5.604   3.638  16.896  2.8321  0.2421 -1.2967
10158TIP3    H251966   5.606   3.789  16.886 -0.7184  0.4595 -0.1170
10159TIP3   OH251967   0.693   3.936  12.377 -0.5594 -0.1282 -0.0258
10159TIP3    H151968   0.617   3.923  12.434 -0.1202  3.0378  1.5070
10159TIP3    H251969   0.765   3.953  12.437  1.1384 -1.7905 -1.4866
10160TIP3   OH251970   4.147   6.460   1.074  0.0436  0.1600 -0.4679
10160TIP3    H151971   4.226   6.490   1.118  0.2784 -1.8231  0.5886
10160TIP3    H251972   4.147   6.506   0.990  0.1361  3.2571  1.0950
10161TIP3   OH251973   2.534   0.442  12.596 -0.5193 -0.9527 -0.2852
10161TIP3    H151974   2.488   0.487  12.524  3.5320 -0.1870 -2.7347
10161TIP3    H251975   2.490   0.358  12.603 -2.8203 -0.0003 -1.7324
10162TIP3   OH251976   5.021   6.799   1.961 -1.0940  0.4646 -0.3235
10162TIP3    H151977   5.073   6.719   1.951  1.7205  2.3098 -1.3361
10162TIP3    H251978   5.003   6.803   2.055  0.3649 -0.4058  0.0292
10163TIP3   OH251979   6.190   5.697   2.094 -0.2038 -0.9117  0.2355
10163TIP3    H151980   6.209   5.651   2.012  1.0731 -3.1890  1.7057
10163TIP3    H251981   6.106   5.741   2.077 -0.8216 -2.6541 -1.7464
10164TIP3   OH251982   2.774   5.691  16.049  0.2932 -0.4065 -0.2377
10164TIP3    H151983   2.726   5.618  16.011  0.9159 -1.6697  1.3234
10164TIP3    H251984   2.776   5.757  15.979 -0.9493 -1.5516 -1.4093
10165TIP3   OH251985   6.158   2.904   2.166  0.6468 -0.7001 -0.1123
10165TIP3    H151986   6.140   2.835   2.103  0.0988 -0.9594  0.3178
10165TIP3    H251987   6.141   2.864   2.251 -0.0244  0.0604  0.1262
10166TIP3   OH251988   4.066   3.070   3.294 -0.0649  0.0327 -0.1939
10166TIP3    H151989   4.138   3.037   3.240  0.7515 -0.1151  0.9369
10166TIP3    H251990   4.108   3.094   3.377 -1.2406  0.4523  0.2984
10167TIP3   OH251991   4.967   0.414   0.520  0.1003  0.2604 -0.1140
10167TIP3    H151992   5.036   0.373   0.572  0.4402  0.2835 -0.5421
10167TIP3    H251993   4.886   0.378   0.555  0.3264  0.2877  0.4416
10168TIP3   OH251994   6.590   6.271   2.061  0.5041  0.3332 -0.5791
10168TIP3    H151995   6.523   6.258   1.994 -0.3982 -1.6770  0.6147
10168TIP3    H251996   6.542   6.292   2.140  1.3593 -0.0084  0.0503
10169TIP3   OH251997   1.812   0.378  12.634  0.2639 -0.0629 -0.0740
10169TIP3    H151998   1.861   0.297  12.616 -1.1592 -1.2745  1.1746
10169TIP3    H251999   1.852   0.412  12.714 -0.3875 -0.6185  0.4985
10170TIP3   OH252000   5.831   2.992   4.847 -0.0254 -0.1857  0.5209
10170TIP3    H152001   5.920   2.975   4.878 -0.8395 -3.2644  1.4955
10170TIP3    H252002   5.783   3.018   4.926 -0.2780  0.2762  0.2212
10171TIP3   OH252003   1.816   6.033   0.110  0.3339  0.2943 -0.5491
10171TIP3    H152004   1.879   6.043   0.181  0.4649 -0.9253 -0.4833
10171TIP3    H252005   1.843   6.098   0.045  2.0183 -0.5810 -0.7692
10172TIP3   OH252006   6.679   0.346  11.914 -0.0968  0.0071  0.2135
10172TIP3    H152007   6.637   0.347  11.828 -0.6262  1.7599  0.4654
10172TIP3    H252008   6.609   0.371  11.974  0.4647 -0.4689  1.0777
10173TIP3   OH252009   6.817   4.876  13.741  0.2167  0.3610  0.2100
10173TIP3    H152010   6.837   4.783  13.756 -1.1045 -0.1345 -0.8366
10173TIP3    H252011   6.725   4.885  13.767 -0.0107  1.0936 -0.7834
10174TIP3   OH252012   6.037   3.654  14.693  0.1239 -0.1416 -0.1071
10174TIP3    H152013   6.126   3.620  14.704 -0.3360 -1.1877  0.6758
10174TIP3    H252014   5.997   3.595  14.629 -0.6841 -1.1310  1.2529
10175TIP3   OH252015   4.038   3.902   4.328  0.4923 -0.0110 -0.1486
10175TIP3    H152016   4.074   3.824   4.371 -0.3400 -1.1380 -1.4080
10175TIP3    H252017   3.950   3.911   4.365  0.5370  0.2428 -0.1051
10176TIP3   OH252018   0.432   4.387  16.915  0.4455 -0.2662  0.0068
10176TIP3    H152019   0.478   4.307  16.888  0.9013 -0.4336  1.2332
10176TIP3    H252020   0.365   4.399  16.848  0.3904 -1.6653 -0.2219
10177TIP3   OH252021   0.109   0.411  15.844 -0.3645  0.6173  0.5563
10177TIP3    H152022   0.180   0.427  15.782 -0.7090  1.2497  0.3152
10177TIP3    H252023   0.093   0.316  15.838  1.1911  0.2777  1.4453
10178TIP3   OH252024   5.416   4.040   3.010 -0.1914 -1.3708 -0.3333
10178TIP3    H152025   5.435   4.026   2.917 -0.9287  0.2861 -0.7677
10178TIP3    H252026   5.324   4.013   3.020 -0.6757  0.1355 -0.5111
10179TIP3   OH252027   1.448   1.430   3.790  0.7305 -0.2968 -0.1129
10179TIP3    H152028   1.365   1.437   3.742  0.5966 -1.4584 -0.0821
10179TIP3    H252029   1.441   1.347   3.837  1.4102  0.1888  0.8724
10180TIP3   OH252030   4.871   3.763  13.317 -0.3149 -0.8094 -0.1942
10180TIP3    H152031   4.782   3.793  13.299 -0.4430 -1.6575 -1.0754
10180TIP3    H252032   4.926   3.839  13.297 -0.5868 -1.2005 -2.8560
10181TIP3   OH252033   4.903   5.313   3.528 -0.2656  0.2041 -0.1884
10181TIP3    H152034   4.952   5.306   3.446  1.3219 -1.8409  0.8284
10181TIP3    H252035   4.820   5.352   3.503 -0.1684 -1.1221 -2.9344
10182TIP3   OH252036   3.890   4.690  10.767  0.3387  0.0429 -0.0628
10182TIP3    H152037   3.904   4.649  10.682  0.1501 -0.6433  0.2199
10182TIP3    H252038   3.800   4.720  10.765  1.0201  2.1637 -0.9545
10183TIP3   OH252039   4.996   6.585   0.843 -0.3539  0.3277  0.0729
10183TIP3    H152040   4.945   6.632   0.909  0.4268 -0.5112  1.3335
10183TIP3    H252041   4.932   6.560   0.777 -1.3537  0.3774  0.9830
10184TIP3   OH252042   1.205   1.683   0.358  0.1388 -0.1426 -0.1373
10184TIP3    H152043   1.131   1.686   0.420  0.8072 -1.9453  0.8042
10184TIP3    H252044   1.184   1.751   0.294 -1.2329  0.9244  1.3327
10185TIP3   OH252045   6.744   1.728  16.266  0.3560 -0.1154  0.2181
10185TIP3    H152046   6.695   1.802  16.301  1.5003  1.1001 -0.6448
10185TIP3    H252047   6.710   1.652  16.313 -0.1516  1.0767  1.8600
10186TIP3   OH252048   0.418   2.003  12.499 -0.6184 -0.1503 -0.0940
10186TIP3    H152049   0.404   1.996  12.404  2.9845  1.2421 -0.9199
10186TIP3    H252050   0.485   2.071  12.507  0.5837 -1.5686  3.3339
10187TIP3   OH252051   5.924   2.743   0.153  0.0872 -0.2756  0.8710
10187TIP3    H152052   5.926   2.689   0.074  0.0508  0.4422  0.3699
10187TIP3    H252053   5.841   2.721   0.195 -0.1451 -0.2636  0.4243
10188TIP3   OH252054   0.979   5.095  14.574  0.0012  0.2807  0.2826
10188TIP3    H152055   0.903   5.076  14.629 -1.3052  1.4153 -1.0390
10188TIP3    H252056   1.046   5.034  14.604 -0.9478  0.2236  2.4734
10189TIP3   OH252057   6.435   1.014  13.311  0.3878  0.0748  0.4474
10189TIP3    H152058   6.488   0.998  13.233 -0.6576  0.8403 -0.4462
10189TIP3    H252059   6.498   1.032  13.380  1.2953  1.6478 -0.7465
10190TIP3   OH252060   3.523   5.191   6.160 -0.0970 -0.0644 -0.2667
10190TIP3    H152061   3.553   5.278   6.188  0.3003  0.0187 -0.9235
10190TIP3    H252062   3.443   5.176   6.210 -0.0650  0.6014 -0.0033
10191TIP3   OH252063   1.556   1.317   2.037  0.1989 -0.1487 -0.6805
10191TIP3    H152064   1.491   1.250   2.015  0.5311 -0.5480 -0.4525
10191TIP3    H252065   1.505   1.386   2.081 -0.3371  0.2997 -1.9672
10192TIP3   OH252066   3.124   5.482  13.683  0.2908 -0.1713 -0.1697
10192TIP3    H152067   3.098   5.551  13.744 -0.1301  0.4701 -1.0539
10192TIP3    H252068   3.184   5.525  13.622  0.1923 -0.6321 -0.5994
10193TIP3   OH252069   2.403   6.074   0.818 -0.3042  0.1025  0.1480
10193TIP3    H152070   2.495   6.089   0.840 -0.2841  0.9595 -0.4535
10193TIP3    H252071   2.357   6.079   0.901 -0.3059  3.6947  0.0705
10194TIP3   OH252072   3.526   3.612  14.868 -0.0027  0.1521 -0.8566
10194TIP3    H152073   3.438   3.587  14.895  0.1819 -1.4289 -1.6259
10194TIP3    H252074   3.550   3.549  14.800  2.3592 -0.5562  0.4913
10195TIP3   OH252075   3.205   1.787  13.968  0.2386 -0.2438  0.5517
10195TIP3    H152076   3.291   1.803  14.008  0.5154 -2.0449  0.7572
10195TIP3    H252077   3.225   1.744  13.885 -0.4398  0.4605  0.0125
10196TIP3   OH252078   3.150   1.869  14.744  0.1180  0.9435  0.0252
10196TIP3    H152079   3.226   1.926  14.756 -0.0934  1.2869 -0.2526
10196TIP3    H252080   3.108   1.866  14.830  0.7078  0.3665  0.3053
10197TIP3   OH252081   1.334   1.162   5.439 -0.2514 -0.1509  0.1334
10197TIP3    H152082   1.241   1.185   5.445  0.2408  1.6925  1.5394
10197TIP3    H252083   1.374   1.238   5.396  0.7600 -0.5028  0.4462
10198TIP3   OH252084   1.565   0.056   2.866 -0.1103  0.0655  0.1321
10198TIP3    H152085   1.643   0.105   2.891  0.0231  0.1169 -0.3901
10198TIP3    H252086   1.494   0.097   2.916 -0.0616  1.0328 -0.5771
10199TIP3   OH252087   6.828   4.099  11.245  0.2700 -0.2085 -0.0247
10199TIP3    H152088   6.783   4.181  11.259 -0.6978 -0.7870  0.3404
10199TIP3    H252089   6.820   4.083  11.151 -0.3701 -0.3464  0.0484
10200TIP3   OH252090   5.365   0.989  12.412  0.0715  0.8148 -0.3664
10200TIP3    H152091   5.306   0.935  12.360  1.1596  1.0778 -1.9327
10200TIP3    H252092   5.403   1.051  12.349  3.7910 -0.8187 -0.0171
10201TIP3   OH252093   4.437   6.717  13.335  0.1252  0.0095  0.0994
10201TIP3    H152094   4.448   6.746  13.426 -0.1605 -1.0642  0.4866
10201TIP3    H252095   4.504   6.649  13.323  1.5368  1.5261 -1.1463
10202TIP3   OH252096   4.337   5.571   5.923  0.3546 -0.1069  0.0970
10202TIP3    H152097   4.250   5.551   5.957  0.0690  1.0344  0.1025
10202TIP3    H252098   4.360   5.654   5.965 -0.0426  1.4168 -2.4945
10203TIP3   OH252099   3.499   4.074  15.930 -0.8552 -0.1841 -0.0108
10203TIP3    H152100   3.471   4.056  15.840 -0.6198  1.2555 -0.4008
10203TIP3    H252101   3.427   4.125  15.967 -0.4527  0.2228  0.2270
10204TIP3   OH252102   0.882   2.688   3.771  0.0215 -0.0323 -0.0199
10204TIP3    H152103   0.963   2.645   3.799  0.6257  0.7310 -0.5577
10204TIP3    H252104   0.818   2.617   3.766  1.2064 -1.0669 -1.7235
10205TIP3   OH252105   1.616   5.749  15.569  0.2267  0.2764  0.0050
10205TIP3    H152106   1.551   5.803  15.525 -0.9523 -0.5202  0.7038
10205TIP3    H252107   1.587   5.659  15.555  1.8884 -0.1768 -0.7324
10206TIP3   OH252108   5.966   4.272  14.223  0.1949  0.3686 -0.4339
10206TIP3    H152109   6.058   4.248  14.235 -0.1439 -1.5174 -1.2174
10206TIP3    H252110   5.962   4.311  14.136  0.3275  0.8755 -0.2129
10207TIP3   OH252111   0.905   2.327  10.774  0.2999 -0.2399 -0.1023
10207TIP3    H152112   0.974   2.375  10.821 -3.3255  3.5948  1.9564
10207TIP3    H252113   0.844   2.395  10.745 -0.8962 -3.0041 -5.2280
10208TIP3   OH252114   4.872   2.461   2.083  0.0382  0.2696  0.0093
10208TIP3    H152115   4.962   2.437   2.058 -0.3419 -0.8006 -0.3757
10208TIP3    H252116   4.869   2.557   2.073  0.0804  0.0349 -3.6256
10209TIP3   OH252117   2.604   4.671  13.977  0.1965  0.1151 -0.4455
10209TIP3    H152118   2.603   4.652  13.883 -1.8086 -0.7996 -0.3053
10209TIP3    H252119   2.681   4.625  14.011 -0.5207 -1.7981 -1.2725
10210TIP3   OH252120   5.860   4.613  11.063  0.1002 -0.1417  0.4411
10210TIP3    H152121   5.892   4.585  10.977  1.8445 -0.5334  1.1790
10210TIP3    H252122   5.771   4.645  11.046  0.9523  1.3355 -1.8100
10211TIP3   OH252123   3.844   1.131  13.241 -0.6238  0.7850  0.8239
10211TIP3    H152124   3.755   1.113  13.210  0.2923 -2.5598 -0.2374
10211TIP3    H252125   3.897   1.136  13.162  0.5111  0.1969  1.5216
10212TIP3   OH252126   2.767   4.093  13.205  0.1099 -0.0186  0.0670
10212TIP3    H152127   2.747   4.005  13.236  0.7156 -0.0489  0.3928
10212TIP3    H252128   2.816   4.133  13.277  0.6551  0.2551 -0.4509
10213TIP3   OH252129   3.226   2.882  16.448 -0.5700  0.5711  0.2707
10213TIP3    H152130   3.231   2.787  16.454 -1.2472  0.6091  2.3779
10213TIP3    H252131   3.248   2.902  16.357  3.4115 -1.2998  0.6244
10214TIP3   OH252132   3.490   2.381   1.281  0.4601 -0.0828 -0.2732
10214TIP3    H152133   3.544   2.433   1.341 -0.4865  1.8562 -1.0171
10214TIP3    H252134   3.460   2.444   1.215  0.0538 -1.7980 -1.8080
10215TIP3   OH252135   0.605   3.939   5.330  0.4474 -0.6439 -0.0858
10215TIP3    H152136   0.657   3.873   5.283 -0.0379 -1.3264  0.3259
10215TIP3    H252137   0.556   3.889   5.395 -0.6211  0.0126 -0.3727
10216TIP3   OH252138   1.893   6.705  14.191 -0.5127 -0.4818 -0.4042
10216TIP3    H152139   1.888   6.761  14.269 -1.2307 -0.7252 -0.2694
10216TIP3    H252140   1.933   6.624  14.223 -0.1091 -0.3022 -0.4516
10217TIP3   OH252141   5.474   4.943   2.389 -1.1192  0.1451  0.0848
10217TIP3    H152142   5.503   4.853   2.405 -2.6693 -0.7177 -1.6182
10217TIP3    H252143   5.422   4.938   2.309  0.7789  2.9711 -1.5446
10218TIP3   OH252144   0.852   1.377   1.362  0.1446 -0.1565 -0.2673
10218TIP3    H152145   0.827   1.288   1.385  2.2218 -0.3690  1.4378
10218TIP3    H252146   0.943   1.370   1.335  0.4767  1.5210  0.3100
10219TIP3   OH252147   6.269   3.489  14.778 -0.3254 -0.1127  0.1477
10219TIP3    H152148   6.207   3.427  14.817 -1.9592  0.5783 -1.1947
10219TIP3    H252149   6.280   3.458  14.688 -1.0824  1.4344 -0.5141
10220TIP3   OH252150   1.320   3.245   1.673 -0.0253 -0.2678 -0.5655
10220TIP3    H152151   1.239   3.197   1.692  0.0932 -0.7051 -1.1329
10220TIP3    H252152   1.322   3.251   1.578 -0.1967  1.1543 -0.5052
10221TIP3   OH252153   4.304   5.682   6.259  0.3395 -0.0024  0.3667
10221TIP3    H152154   4.303   5.745   6.331  1.5363  1.5188 -0.8644
10221TIP3    H252155   4.341   5.731   6.185 -0.7366 -1.5306 -1.2685
10222TIP3   OH252156   3.489   4.681  13.290 -0.0900 -0.3972 -0.3578
10222TIP3    H152157   3.488   4.753  13.228 -0.3216 -0.2262 -0.1573
10222TIP3    H252158   3.463   4.604  13.239 -2.1861  0.0574 -0.0937
10223TIP3   OH252159   1.436   5.425  12.993 -0.0459 -0.0205 -0.0982
10223TIP3    H152160   1.494   5.476  13.050 -0.0525 -1.3709  1.1713
10223TIP3    H252161   1.494   5.389  12.927  0.4844 -0.8506  0.7967
10224TIP3   OH252162   2.414   4.156  15.231 -0.2219 -0.5116 -0.1579
10224TIP3    H152163   2.411   4.152  15.136  1.2525 -0.2157 -0.2392
10224TIP3    H252164   2.489   4.212  15.251 -1.2755  0.5079  1.1786
10225TIP3   OH252165   1.408   5.401  16.410 -0.7575 -0.3628  0.0604
10225TIP3    H152166   1.425   5.455  16.487 -1.3142  0.1805 -0.1952
10225TIP3    H252167   1.371   5.461  16.345  1.8977 -0.2717 -1.5262
10226TIP3   OH252168   6.049   3.164  15.392 -0.4941  0.1718 -0.4504
10226TIP3    H152169   6.058   3.069  15.407  1.5803  0.5142  0.8999
10226TIP3    H252170   5.963   3.185  15.428  0.0740 -0.8423  1.7108
10227TIP3   OH252171   4.539   0.238   2.447  0.7201 -0.4450 -0.5681
10227TIP3    H152172   4.577   0.225   2.360  0.0129  0.2273 -0.9910
10227TIP3    H252173   4.466   0.175   2.452  1.0247 -0.7817 -0.2893
10228TIP3   OH252174   3.949   4.959  11.852 -0.0590  0.4262  0.0498
10228TIP3    H152175   3.994   4.922  11.776 -0.3489  0.5292 -0.1713
10228TIP3    H252176   3.982   4.908  11.926  0.0087  0.1319 -0.1801
10229TIP3   OH252177   6.684   1.519  14.769  0.1107  0.3534  0.1987
10229TIP3    H152178   6.779   1.508  14.771  0.0733 -0.0220  0.0169
10229TIP3    H252179   6.649   1.432  14.785 -0.1977  0.2241 -1.0719
10230TIP3   OH252180   3.162   4.937   4.357 -0.2511 -0.1631 -0.5112
10230TIP3    H152181   3.154   5.021   4.311  1.3365 -0.0195 -0.6026
10230TIP3    H252182   3.131   4.872   4.295  1.6270  0.0543 -1.7429
10231TIP3   OH252183   2.556   1.618  12.161 -0.6802  0.0969 -0.6285
10231TIP3    H152184   2.603   1.572  12.092  0.9929  0.2646  0.3446
10231TIP3    H252185   2.534   1.703  12.123  1.7856  0.8941 -0.4768
10232TIP3   OH252186   3.262   1.012   6.144 -0.0647  0.1649 -0.8387
10232TIP3    H152187   3.278   0.947   6.213  0.2419 -0.0532 -1.1126
10232TIP3    H252188   3.295   1.094   6.181 -0.2916  0.1336 -0.5613
10233TIP3   OH252189   6.730   4.032  13.260  0.1229  0.0474 -0.0166
10233TIP3    H152190   6.777   4.080  13.327 -0.5739 -0.1739  0.6440
10233TIP3    H252191   6.719   3.944  13.296  3.1177 -1.3171 -1.9804
10234TIP3   OH252192   3.504   2.790   0.841  0.5130  0.0324 -0.7935
10234TIP3    H152193   3.541   2.758   0.923  2.4376 -1.0100 -1.9927
10234TIP3    H252194   3.447   2.719   0.811 -1.2755  0.9579  0.2274
10235TIP3   OH252195   3.730   0.628   3.165  0.3106  0.3477  0.4955
10235TIP3    H152196   3.672   0.648   3.091 -1.3500 -3.0939  0.6806
10235TIP3    H252197   3.674   0.583   3.228  2.8936 -2.3303  1.0947
10236TIP3   OH252198   1.796   2.410   1.544 -0.4270  0.3736 -0.4260
10236TIP3    H152199   1.891   2.399   1.553 -0.4530 -0.7654 -1.2320
10236TIP3    H252200   1.769   2.336   1.489 -1.5241  1.6695 -1.7348
10237TIP3   OH252201   2.298   3.827  11.788 -0.3202 -0.9533 -0.2866
10237TIP3    H152202   2.204   3.824  11.771 -0.2700 -0.6028 -0.6509
10237TIP3    H252203   2.329   3.739  11.768 -0.6372 -1.1943  0.2618
10238TIP3   OH252204   5.320   5.081  12.130  0.3414  0.9008  0.0315
10238TIP3    H152205   5.268   5.011  12.091  0.9372  0.6460 -0.3207
10238TIP3    H252206   5.271   5.161  12.110 -0.2938  0.5957  0.3580
10239TIP3   OH252207   6.209   3.968  16.252  0.1957 -0.1470  0.3728
10239TIP3    H152208   6.286   3.978  16.196 -0.6423 -1.7666 -1.1710
10239TIP3    H252209   6.219   3.881  16.291 -0.7132 -0.2599  0.3725
10240TIP3   OH252210   4.311   3.205  14.379 -0.8170 -0.1190  0.3710
10240TIP3    H152211   4.395   3.221  14.422 -0.5353 -0.1350 -0.1598
10240TIP3    H252212   4.246   3.238  14.440 -0.3870  0.5239  0.4894
10241TIP3   OH252213   0.735   0.250   0.900 -0.6629 -0.0231  0.7656
10241TIP3    H152214   0.665   0.224   0.840 -1.2447  0.0597  1.3995
10241TIP3    H252215   0.799   0.179   0.894  1.6098  1.9889 -3.4464
10242TIP3   OH252216   3.407   4.783  14.939 -0.2128 -0.3825 -0.0185
10242TIP3    H152217   3.330   4.765  14.993 -0.6041 -0.3270 -0.5440
10242TIP3    H252218   3.398   4.723  14.865 -0.1573  0.1449 -0.4643
10243TIP3   OH252219   1.032   4.217  12.672 -0.3883  0.1815  0.0998
10243TIP3    H152220   0.976   4.165  12.615  0.6815 -0.7188 -0.1451
10243TIP3    H252221   1.004   4.307  12.657 -0.3434 -0.0640 -1.5990
10244TIP3   OH252222   0.283   0.978   2.165 -0.2496 -0.5271  0.2128
10244TIP3    H152223   0.361   0.929   2.136  0.3417  1.2710 -1.4869
10244TIP3    H252224   0.220   0.967   2.094 -0.1573  0.9697 -0.1427
10245TIP3   OH252225   1.003   3.003  14.197 -0.2693 -0.8303  0.1084
10245TIP3    H152226   0.943   2.968  14.263 -1.3289  0.7467  0.0219
10245TIP3    H252227   1.056   2.927  14.171 -0.5400 -1.7152  1.9683
10246TIP3   OH252228   0.563   6.129   4.498  0.0566 -0.4470 -0.1088
10246TIP3    H152229   0.488   6.092   4.451 -1.2697  0.6358  1.0516
10246TIP3    H252230   0.591   6.058   4.556 -2.4732  0.1941  2.1100
10247TIP3   OH252231   0.414   1.031   5.999 -1.1132 -0.1583 -0.5635
10247TIP3    H152232   0.440   1.091   6.068 -2.6441 -1.2062  1.0046
10247TIP3    H252233   0.349   1.080   5.948 -0.2364  0.4945 -1.0693
10248TIP3   OH252234   4.296   0.280  12.204  0.1062 -0.4055  0.2980
10248TIP3    H152235   4.377   0.266  12.154 -0.1615 -1.8144  0.2220
10248TIP3    H252236   4.228   0.286  12.136  0.0636  0.1445  0.3896
10249TIP3   OH252237   5.856   4.378  14.925 -0.1198 -0.0900 -0.5332
10249TIP3    H152238   5.864   4.464  14.965 -0.6179  0.0054 -0.6454
10249TIP3    H252239   5.899   4.386  14.840 -0.7817  0.2362 -0.8373
10250TIP3   OH252240   0.097   3.014  10.984 -0.0847  0.7462 -0.0918
10250TIP3    H152241   0.143   3.057  11.055  1.6325 -0.1990 -0.5667
10250TIP3    H252242   0.157   3.021  10.909 -1.2286  0.4871 -1.0678
10251TIP3   OH252243   2.284   5.283  16.428  0.1455  0.2860 -0.4080
10251TIP3    H152244   2.258   5.226  16.357 -1.6119  0.8339 -0.2546
10251TIP3    H252245   2.226   5.359  16.421 -0.2626  0.2440  1.7327
10252TIP3   OH252246   2.328   3.172  12.597 -0.6400  0.0731  0.7070
10252TIP3    H152247   2.317   3.078  12.579  1.6933  0.1672 -1.8393
10252TIP3    H252248   2.252   3.213  12.555 -0.3474 -0.5150 -0.4382
10253TIP3   OH252249   6.451   1.840  11.208  0.1421  0.2008  0.2025
10253TIP3    H152250   6.365   1.810  11.238  0.0583 -0.4241 -0.6465
10253TIP3    H252251   6.433   1.890  11.128  0.3532  2.0063  1.2203
10254TIP3   OH252252   1.651   6.004   3.920  0.7519  0.0419 -0.0142
10254TIP3    H152253   1.581   5.981   3.981  0.7052  0.7042  0.1956
10254TIP3    H252254   1.690   6.083   3.957  2.2188 -0.8305  0.3605
10255TIP3   OH252255   1.631   6.161   2.974 -0.1677  0.4196  0.0583
10255TIP3    H152256   1.667   6.117   2.897  0.5425  0.2514  0.4808
10255TIP3    H252257   1.638   6.097   3.044  1.9456  1.5532  0.9597
10256TIP3   OH252258   2.466   5.433   3.994  0.2470 -0.1019 -0.2222
10256TIP3    H152259   2.483   5.359   3.935  0.0441 -0.0853 -0.3003
10256TIP3    H252260   2.538   5.430   4.056 -0.2057 -0.8612  0.2772
10257TIP3   OH252261   4.842   3.961   1.355 -0.8583 -0.4630  0.0245
10257TIP3    H152262   4.810   3.946   1.444  1.1765  0.1256  0.9167
10257TIP3    H252263   4.876   4.051   1.357 -0.0782 -0.7141 -1.0995
10258TIP3   OH252264   2.731   4.231  11.952 -0.0354  0.1317  0.0357
10258TIP3    H152265   2.798   4.224  12.020  0.3458  1.3658 -0.2003
10258TIP3    H252266   2.652   4.194  11.992  0.5365 -0.4603  0.6405
10259TIP3   OH252267   1.998   4.386  13.303 -0.6118  0.7514 -0.3743
10259TIP3    H152268   1.972   4.478  13.310 -0.9907  0.6661 -0.6362
10259TIP3    H252269   1.967   4.347  13.384  2.3042  1.4939  1.2251
10260TIP3   OH252270   4.632   3.918  14.408  0.2369  0.3814  0.1672
10260TIP3    H152271   4.544   3.954  14.413 -0.0761 -0.3643  0.0933
10260TIP3    H252272   4.629   3.856  14.335  1.1904  1.3432 -0.7190
10261TIP3   OH252273   3.591   2.676   5.165 -0.5719  0.0598 -0.1343
10261TIP3    H152274   3.593   2.770   5.183  0.1578  0.3794 -1.7252
10261TIP3    H252275   3.498   2.653   5.167 -1.0565  1.4771 -2.7237
10262TIP3   OH252276   1.243   4.051   3.726 -0.0659 -0.4796  0.2149
10262TIP3    H152277   1.150   4.065   3.743 -0.3234  0.1999 -1.6138
10262TIP3    H252278   1.250   4.039   3.631  1.4238 -2.8686  0.5148
10263TIP3   OH252279   3.020   2.253  16.987 -0.3091 -0.7021 -0.6307
10263TIP3    H152280   3.039   2.315  16.917  1.7193 -0.7822 -0.2143
10263TIP3    H252281   2.944   2.204  16.955 -0.5427  0.4605 -1.9588
10264TIP3   OH252282   6.423   6.327   3.428  0.1623 -0.4492  0.4950
10264TIP3    H152283   6.383   6.270   3.492 -2.4249  0.7315  0.0693
10264TIP3    H252284   6.386   6.414   3.446  1.2494  0.4004 -1.0516
10265TIP3   OH252285   1.530   3.410   6.178 -0.1615 -0.4674 -0.5044
10265TIP3    H152286   1.443   3.372   6.166 -0.0218 -0.8369 -0.3534
10265TIP3    H252287   1.513   3.497   6.215 -0.4464 -0.8110  0.1884
10266TIP3   OH252288   5.607   3.928   1.541  0.3125  0.0886 -0.7449
10266TIP3    H152289   5.520   3.938   1.502 -0.3703  2.5742  1.1781
10266TIP3    H252290   5.592   3.873   1.617  0.7420 -0.7336 -1.2422
10267TIP3   OH252291   6.739   1.738   3.873  0.2269 -0.2935 -0.1848
10267TIP3    H152292   6.645   1.735   3.852  0.0545 -3.5389  0.4989
10267TIP3    H252293   6.782   1.742   3.788 -0.4983  0.7865 -0.5243
10268TIP3   OH252294   4.571   3.774   4.031 -0.8336  0.0225  0.0681
10268TIP3    H152295   4.572   3.685   4.067  1.3618  0.6435  1.8476
10268TIP3    H252296   4.494   3.777   3.975 -0.1132 -3.4849 -1.3679
10269TIP3   OH252297   3.679   4.787   1.495  0.4877 -0.3196  0.9458
10269TIP3    H152298   3.694   4.785   1.590 -0.0936 -1.1828  1.0337
10269TIP3    H252299   3.766   4.800   1.457  0.8730 -1.0045  1.5694
10270TIP3   OH252300   1.962   3.574  14.175  0.2084 -0.4593 -0.0112
10270TIP3    H152301   1.947   3.656  14.221  2.8256  0.7180 -1.0660
10270TIP3    H252302   2.018   3.523  14.234  1.1294 -0.1702 -0.6144
10271TIP3   OH252303   2.716   5.895  15.175 -0.2281  0.0489 -0.0246
10271TIP3    H152304   2.746   5.854  15.094  0.6364  0.0372  0.2938
10271TIP3    H252305   2.645   5.838  15.205 -0.3629 -0.1065 -0.6206
10272TIP3   OH252306   0.951   6.063  15.572 -0.5915 -0.3877 -0.1808
10272TIP3    H152307   0.944   6.027  15.661 -1.3954 -1.3100 -0.5976
10272TIP3    H252308   1.040   6.038  15.544  0.5454  1.8675  1.1501
10273TIP3   OH252309   0.036   6.344   2.398  0.2734 -0.4341  0.0773
10273TIP3    H152310   0.033   6.408   2.326  2.7802  0.6129  0.8040
10273TIP3    H252311   0.089   6.272   2.365  3.1653  0.9280  1.3745
10274TIP3   OH252312   2.147   0.938   3.143 -0.1072 -0.1987 -0.5630
10274TIP3    H152313   2.069   0.947   3.088 -0.3490 -1.4893 -0.4597
10274TIP3    H252314   2.210   0.891   3.088 -0.6938 -2.4026  0.5168
10275TIP3   OH252315   1.412   4.319   0.964 -0.2002 -0.4530 -1.0042
10275TIP3    H152316   1.477   4.262   1.005  0.0167 -0.4581 -1.3484
10275TIP3    H252317   1.415   4.400   1.014  1.0166  0.0339 -1.8122
10276TIP3   OH252318   1.779   6.498   0.799 -0.5175  0.0672 -0.0632
10276TIP3    H152319   1.770   6.521   0.891 -0.9067 -0.9175  0.1635
10276TIP3    H252320   1.706   6.437   0.783 -0.7103  0.5535 -1.1278
10277TIP3   OH252321   3.751   0.257   5.078 -0.0315 -0.3915  0.0119
10277TIP3    H152322   3.771   0.167   5.050 -0.3598 -0.7388  0.8860
10277TIP3    H252323   3.837   0.297   5.091  0.1125 -0.7459  0.1624
10278TIP3   OH252324   1.825   1.921  11.959 -0.2383 -0.1935  0.7140
10278TIP3    H152325   1.744   1.913  11.909 -0.7458  0.5446  1.3820
10278TIP3    H252326   1.812   1.863  12.035  0.4119 -1.0933  0.1583
10279TIP3   OH252327   1.993   1.179  10.355  0.7758  0.4124 -0.2939
10279TIP3    H152328   2.054   1.110  10.331  1.2693  0.2320  1.3133
10279TIP3    H252329   2.048   1.252  10.385  0.2348  0.6507  0.1570
10280TIP3   OH252330   3.677   3.100  13.649  0.0416 -0.6642  0.0075
10280TIP3    H152331   3.724   3.121  13.730  0.7880 -1.8022 -0.1163
10280TIP3    H252332   3.627   3.180  13.630  1.0213  0.1669  0.7728
10281TIP3   OH252333   2.606   5.252  13.270  0.6904  0.0703  0.4972
10281TIP3    H152334   2.587   5.220  13.358 -1.6491 -0.4243 -0.0998
10281TIP3    H252335   2.547   5.201  13.214  0.0155  2.3682 -1.0148
10282TIP3   OH252336   6.434   2.593  15.720  0.5898  0.2252 -0.2004
10282TIP3    H152337   6.460   2.524  15.659 -0.9955 -0.8918  0.3296
10282TIP3    H252338   6.440   2.674  15.669  0.8595 -0.4856 -1.3349
10283TIP3   OH252339   3.734   6.654   5.900 -0.4066 -0.1195 -0.1973
10283TIP3    H152340   3.672   6.711   5.946  0.5323 -0.7966  2.0857
10283TIP3    H252341   3.761   6.590   5.967 -0.2439 -2.2903 -2.2052
10284TIP3   OH252342   5.037   1.114   1.962  0.0409  0.4971 -0.1161
10284TIP3    H152343   5.067   1.052   2.028 -0.8317  0.6698  0.4513
10284TIP3    H252344   5.103   1.184   1.963  0.0207  0.5093  0.5861
10285TIP3   OH252345   1.307   2.920  16.103 -0.2493  0.1016  0.1875
10285TIP3    H152346   1.221   2.897  16.138  0.3923 -1.7146  0.6439
10285TIP3    H252347   1.350   2.968  16.174 -1.3721  2.3981 -0.5651
10286TIP3   OH252348   3.172   6.091   4.077 -0.2633  0.1197 -0.4185
10286TIP3    H152349   3.095   6.068   4.130 -0.0141  0.7521  0.2456
10286TIP3    H252350   3.177   6.187   4.084  0.9138  0.0371  0.0236
10287TIP3   OH252351   3.290   4.756   2.299 -0.0313  0.2287  0.3964
10287TIP3    H152352   3.359   4.805   2.254  0.5228 -1.0233 -0.1645
10287TIP3    H252353   3.234   4.724   2.228 -1.4493  1.5744  0.8721
10288TIP3   OH252354   3.972   3.857   5.283  0.4463  0.4449 -0.5652
10288TIP3    H152355   4.008   3.939   5.249 -0.3341  1.0008 -0.1038
10288TIP3    H252356   4.048   3.806   5.309  0.9205  1.3356 -0.1584
10289TIP3   OH252357   3.969   3.421  15.968 -0.4052 -0.1734 -0.3276
10289TIP3    H152358   3.893   3.480  15.965  0.5774  1.1838  0.4624
10289TIP3    H252359   3.993   3.417  16.060  0.4357 -0.6673 -0.5578
10290TIP3   OH252360   4.109   4.988  14.461 -0.1982 -0.2669 -0.2434
10290TIP3    H152361   4.043   4.919  14.446 -1.5203  1.2376 -1.7690
10290TIP3    H252362   4.090   5.021  14.548  0.1031 -1.4311  0.2875
10291TIP3   OH252363   0.492   3.953  11.609  0.1510  0.4505 -0.0922
10291TIP3    H152364   0.401   3.974  11.626 -0.4724 -0.6403 -1.8399
10291TIP3    H252365   0.513   3.881  11.669 -0.3656  0.2423 -0.1598
10292TIP3   OH252366   2.175   3.040  16.868  0.1198 -0.5164  0.2826
10292TIP3    H152367   2.194   2.955  16.909  0.9090 -0.7254 -0.5054
10292TIP3    H252368   2.200   3.029  16.777 -0.9754  0.1721 -0.1218
10293TIP3   OH252369   0.923   3.350  16.282  0.1945 -0.3927 -0.1583
10293TIP3    H152370   0.827   3.344  16.284  0.1672 -0.4086 -1.0295
10293TIP3    H252371   0.949   3.351  16.374 -0.7204  0.8617  0.1129
10294TIP3   OH252372   4.899   5.502  14.406  0.3577 -0.0506 -0.2108
10294TIP3    H152373   4.917   5.469  14.494  1.4210  1.6004  0.2207
10294TIP3    H252374   4.983   5.534  14.374 -0.3421  0.9256 -1.1602
10295TIP3   OH252375   4.742   3.413  14.441 -0.2436 -0.3898  0.0060
10295TIP3    H152376   4.784   3.367  14.514 -0.0358 -1.0866 -0.5429
10295TIP3    H252377   4.815   3.443  14.386 -0.4265 -0.9128 -0.5340
10296TIP3   OH252378   6.012   3.256  13.940 -0.2479 -0.0765  0.5491
10296TIP3    H152379   6.089   3.221  13.986  0.7645 -0.3160 -1.2624
10296TIP3    H252380   5.984   3.331  13.994  2.5958  1.4056  0.1248
10297TIP3   OH252381   0.816   5.614  12.121 -0.0292  0.3381 -0.5714
10297TIP3    H152382   0.896   5.594  12.074 -0.1400  1.0850 -1.0975
10297TIP3    H252383   0.780   5.528  12.146  1.9007  0.0265  1.3857
10298TIP3   OH252384   2.727   0.012  12.138 -0.5036  0.5206  0.0754
10298TIP3    H152385   2.800   0.038  12.083 -1.4635  2.4152 -0.3850
10298TIP3    H252386   2.721   0.080  12.205 -0.7673 -0.5368  1.1584
10299TIP3   OH252387   5.463   5.492  13.385 -0.7636 -0.0842  0.1899
10299TIP3    H152388   5.448   5.406  13.423 -0.3279  0.0908  0.7900
10299TIP3    H252389   5.518   5.476  13.309  0.3451 -0.2417  0.9983
10300TIP3   OH252390   1.539   2.386  17.043 -0.0633  0.0963  0.8108
10300TIP3    H152391   1.578   2.470  17.018  0.6004 -0.8500 -1.5829
10300TIP3    H252392   1.606   2.345  17.098  0.1238  0.5898  0.9651
10301TIP3   OH252393   0.949   6.328   3.197  0.4229  0.3936  0.6518
10301TIP3    H152394   0.983   6.353   3.282  0.6336  2.9719 -0.1029
10301TIP3    H252395   0.890   6.399   3.172 -1.9684 -1.7041 -0.1131
10302TIP3   OH252396   5.961   2.176  13.866 -0.3489  0.1245  0.1789
10302TIP3    H152397   5.982   2.115  13.936  0.0904  0.6889  0.5510
10302TIP3    H252398   6.038   2.232  13.859 -1.0645  1.1902  0.4545
10303TIP3   OH252399   4.063   0.346  14.520 -0.3821  0.2639  0.0047
10303TIP3    H152400   4.155   0.340  14.492 -0.5846 -0.8776 -0.4443
10303TIP3    H252401   4.060   0.426  14.573  0.9083  0.2330  0.1656
10304TIP3   OH252402   3.291   0.007  17.026  0.2415  0.2676  0.9082
10304TIP3    H152403   3.218  -0.049  17.050 -0.9603  0.9852 -0.9044
10304TIP3    H252404   3.296   0.002  16.931  0.7686  2.3764  0.7677
10305TIP3   OH252405   0.022   5.398  14.612  0.1403 -0.0536  0.6286
10305TIP3    H152406   0.050   5.490  14.609  1.5698 -0.4891 -1.2647
10305TIP3    H252407  -0.054   5.395  14.553  0.5270 -0.2044  0.1325
10306TIP3   OH252408   5.762   2.664  12.628 -0.1580  0.7859 -0.0173
10306TIP3    H152409   5.773   2.671  12.533  1.1808 -1.4488 -0.0809
10306TIP3    H252410   5.684   2.610  12.639  0.4201 -0.0287  0.1247
10307TIP3   OH252411   6.606   6.303  16.315 -0.4646  0.4072  0.3167
10307TIP3    H152412   6.649   6.355  16.383  1.7365 -0.7452 -0.1138
10307TIP3    H252413   6.602   6.362  16.239 -1.6262  1.2155  0.9692
10308TIP3   OH252414   3.931   0.086  12.926  0.0867  0.5220  0.4441
10308TIP3    H152415   3.936  -0.006  12.952  1.4688  1.1595  2.6936
10308TIP3    H252416   3.953   0.086  12.833  0.1421 -1.4092  0.4263
10309TIP3   OH252417   6.478   5.217   2.606 -0.2022  0.3848 -0.2802
10309TIP3    H152418   6.568   5.248   2.607 -0.0229 -0.0639  1.6731
10309TIP3    H252419   6.425   5.297   2.602  0.2839  0.8296  1.4136
10310TIP3   OH252420   6.423   5.482   2.976  0.6268 -0.3920  0.3246
10310TIP3    H152421   6.507   5.529   2.979  0.7698 -0.3755 -2.0582
10310TIP3    H252422   6.445   5.392   2.998  1.1315 -0.2329  0.4904
10311TIP3   OH252423   6.576   0.287  11.661 -0.1345  0.3591 -0.0456
10311TIP3    H152424   6.618   0.368  11.631  0.8218  0.6822  2.0367
10311TIP3    H252425   6.641   0.219  11.643  0.3433  0.5196  1.0301
10312TIP3   OH252426   1.250   6.091   1.453  0.5739 -0.7152 -0.0656
10312TIP3    H152427   1.285   6.156   1.392 -0.0601 -0.4069 -0.1019
10312TIP3    H252428   1.156   6.091   1.437  0.6125 -2.0284 -0.4423
10313TIP3   OH252429   2.106   4.282   1.535 -0.2302 -0.1123 -0.6127
10313TIP3    H152430   2.192   4.290   1.576 -1.2284  0.1999  1.5617
10313TIP3    H252431   2.106   4.350   1.467  1.1686 -0.0337 -0.5680
10314TIP3   OH252432   3.537   4.586   2.096 -0.1503  0.3651 -0.4497
10314TIP3    H152433   3.494   4.670   2.112 -1.1978 -0.3124  0.4056
10314TIP3    H252434   3.622   4.610   2.060 -0.2197  1.8179  0.2561
10315TIP3   OH252435   4.652   5.210   4.643 -0.7718 -0.0205 -0.1877
10315TIP3    H152436   4.620   5.121   4.628  1.0866 -0.9057  0.6805
10315TIP3    H252437   4.582   5.267   4.611 -1.6744 -1.7778 -1.5283
10316TIP3   OH252438   0.533   3.266   1.247  0.1070 -0.9247 -0.4898
10316TIP3    H152439   0.526   3.201   1.317  0.8966 -0.4492  0.0393
10316TIP3    H252440   0.518   3.217   1.167 -2.0663 -1.2665  0.0635
10317TIP3   OH252441   4.205   2.416   2.656 -0.0316  0.3028 -0.4121
10317TIP3    H152442   4.184   2.490   2.714  0.4930  2.1552 -2.4411
10317TIP3    H252443   4.298   2.400   2.671 -0.5252 -1.2234  1.3341
10318TIP3   OH252444   2.197   3.370  12.233  0.6116 -0.3705 -0.1257
10318TIP3    H152445   2.172   3.460  12.212 -0.8294 -0.5437  0.6956
10318TIP3    H252446   2.242   3.378  12.317 -1.1585 -0.5697  0.8961
10319TIP3   OH252447   6.515   3.449   0.937 -0.2818  0.6298  0.2132
10319TIP3    H152448   6.540   3.360   0.958  0.9991  0.8261 -0.4353
10319TIP3    H252449   6.521   3.496   1.020 -0.6895  0.1873  0.4975
10320TIP3   OH252450   3.387   3.404  12.035 -0.7788 -0.0772  0.2727
10320TIP3    H152451   3.407   3.312  12.052  1.5451 -0.1764 -2.2829
10320TIP3    H252452   3.428   3.452  12.106 -1.5698 -0.9488  1.3509
10321TIP3   OH252453   2.404   2.067  14.556  0.4272  0.3185 -0.2982
10321TIP3    H152454   2.482   2.036  14.602 -0.8456 -1.3130  0.8686
10321TIP3    H252455   2.341   1.996  14.565 -1.4627  1.8849 -0.5777
10322TIP3   OH252456   4.555   3.967   6.701 -0.2410 -0.8219  0.2869
10322TIP3    H152457   4.577   4.060   6.706 -0.3454 -0.7775 -0.0636
10322TIP3    H252458   4.634   3.922   6.734 -0.4456 -0.5916  1.1187
10323TIP3   OH252459   2.619   1.506  16.005  0.1429 -0.6006 -0.6155
10323TIP3    H152460   2.590   1.418  16.027 -0.8360 -0.8148 -2.5692
10323TIP3    H252461   2.708   1.495  15.971  0.5353 -0.6329  0.3846
10324TIP3   OH252462   3.292   5.006   4.584 -0.5902 -0.2190  0.3721
10324TIP3    H152463   3.236   4.977   4.511 -0.9065 -1.2690  1.0055
10324TIP3    H252464   3.233   5.055   4.641 -0.5428 -0.1347  0.3484
10325TIP3   OH252465   0.471   3.794  13.686  0.4759  0.2358 -0.0330
10325TIP3    H152466   0.422   3.846  13.623 -0.2213  0.4312  0.6534
10325TIP3    H252467   0.501   3.717  13.637  1.3863  1.1920 -1.0168
10326TIP3   OH252468   0.919   1.035   2.607  0.4749 -0.0627 -0.3825
10326TIP3    H152469   0.839   1.014   2.655 -0.7397 -2.4990 -3.1421
10326TIP3    H252470   0.985   0.976   2.643  0.1431 -0.3519 -0.2430
10327TIP3   OH252471   1.155   5.269   2.229 -0.6032  1.0661 -0.2401
10327TIP3    H152472   1.118   5.272   2.317 -0.9031  0.9808 -0.3616
10327TIP3    H252473   1.244   5.236   2.242 -0.0610  2.6045  0.2079
10328TIP3   OH252474   6.269   3.547   4.586 -0.5769 -0.1170  0.5464
10328TIP3    H152475   6.338   3.536   4.521  0.0637 -1.2005  1.3636
10328TIP3    H252476   6.312   3.593   4.658 -0.9957  0.1551  0.6240
10329TIP3   OH252477   1.921   4.477  11.642 -0.0450  0.0535  0.5472
10329TIP3    H152478   1.920   4.549  11.580 -0.6901  0.8733  1.4727
10329TIP3    H252479   1.829   4.464  11.666 -0.1142 -1.9426 -0.5496
10330TIP3   OH252480   5.841   5.762   1.766 -0.4718 -0.5182  0.1556
10330TIP3    H152481   5.841   5.698   1.695 -0.1906 -3.6100  2.6994
10330TIP3    H252482   5.892   5.835   1.732 -0.6920 -1.6356 -2.9111
10331TIP3   OH252483   4.855   1.522  16.461  0.0632  0.3161 -0.0275
10331TIP3    H152484   4.874   1.432  16.436 -1.5709  0.0835 -0.5576
10331TIP3    H252485   4.840   1.518  16.556 -0.0525  0.0265 -0.0587
10332TIP3   OH252486   6.496   3.831  10.547  0.3979 -1.1530 -0.3183
10332TIP3    H152487   6.541   3.823  10.631 -0.9990  0.0090  0.5959
10332TIP3    H252488   6.425   3.766  10.553 -1.5595  0.9435  0.7375
10333TIP3   OH252489   0.769   0.005  13.893 -0.1632  0.4677 -0.1494
10333TIP3    H152490   0.761   0.077  13.831  0.7590 -0.6455 -1.6368
10333TIP3    H252491   0.779  -0.073  13.838  0.3123 -0.6159  1.4003
10334TIP3   OH252492   0.756   0.648   4.118 -0.5396 -0.0228  0.4566
10334TIP3    H152493   0.676   0.677   4.074  0.5440  1.2141 -0.8068
10334TIP3    H252494   0.807   0.728   4.130  1.5591 -1.0285 -1.0320
10335TIP3   OH252495   3.234   3.124  11.706  0.2297  0.1225 -0.1722
10335TIP3    H152496   3.291   3.139  11.630  1.3845  0.9145  0.8155
10335TIP3    H252497   3.284   3.159  11.780 -0.6161 -1.1571  1.0419
10336TIP3   OH252498   6.460   6.580  12.829 -0.0847  0.3778 -1.1751
10336TIP3    H152499   6.550   6.569  12.798  0.3958  0.6975  0.0344
10336TIP3    H252500   6.429   6.491  12.846  1.2484  0.3302  1.6677
10337TIP3   OH252501   3.423   0.468   1.704 -0.5759 -0.3192  0.0786
10337TIP3    H152502   3.448   0.519   1.627  0.7923  0.5060  1.0240
10337TIP3    H252503   3.448   0.378   1.683 -0.1945 -0.0943 -0.4441
10338TIP3   OH252504   1.229   3.158   5.664 -0.4569  0.1180 -0.1466
10338TIP3    H152505   1.279   3.230   5.624 -1.4336  1.3250  0.7195
10338TIP3    H252506   1.251   3.161   5.757 -0.9880 -0.3008 -0.0003
10339TIP3   OH252507   6.705   4.458   5.253  0.3041 -0.1777  0.4630
10339TIP3    H152508   6.657   4.463   5.336  1.0525 -1.1959  0.9706
10339TIP3    H252509   6.669   4.382   5.208  0.0703  0.2298 -0.0581
10340TIP3   OH252510   5.747   0.956   5.761  0.7701  0.5487 -0.1811
10340TIP3    H152511   5.736   1.027   5.825  1.5541  0.3056  0.2346
10340TIP3    H252512   5.834   0.920   5.780  0.0067 -1.1670  0.2771
10341TIP3   OH252513   0.597   1.789  10.245  0.1324  0.3698 -0.2116
10341TIP3    H152514   0.627   1.728  10.177 -1.1814  0.1263 -0.6049
10341TIP3    H252515   0.524   1.743  10.288  0.7846  0.6260  1.2162
10342TIP3   OH252516   1.176   5.845  16.460  0.2564 -0.1752  0.1552
10342TIP3    H152517   1.098   5.857  16.515  1.1610  0.0921  1.4229
10342TIP3    H252518   1.236   5.795  16.516  1.8329  1.4970  0.0360
10343TIP3   OH252519   4.263   5.612   3.594  0.6323  0.3025  0.2675
10343TIP3    H152520   4.200   5.609   3.665  0.1375  2.7384  0.0217
10343TIP3    H252521   4.332   5.670   3.626  0.6560  1.0243 -1.0168
10344TIP3   OH252522   1.824   2.135   0.721 -0.2350  1.0015  0.0466
10344TIP3    H152523   1.742   2.107   0.680 -1.4682  3.9233  0.2305
10344TIP3    H252524   1.798   2.208   0.778  2.3252  1.1004  1.2193
10345TIP3   OH252525   2.438   0.474  13.473  0.2001 -0.2059 -0.3730
10345TIP3    H152526   2.447   0.416  13.548  0.7643 -0.1276 -0.3720
10345TIP3    H252527   2.361   0.443  13.426 -0.0051 -0.4116  0.1002
10346TIP3   OH252528   2.079   5.456  15.231 -0.2591  0.2311 -0.2254
10346TIP3    H152529   2.118   5.431  15.147 -0.4018  0.4208 -0.3484
10346TIP3    H252530   1.991   5.420  15.228 -0.4638  0.7423 -0.4005
10347TIP3   OH252531   2.846   1.777   1.544 -0.2689  0.2257  0.1073
10347TIP3    H152532   2.849   1.852   1.485  1.7738  0.8671  0.9730
10347TIP3    H252533   2.882   1.705   1.492  0.8989  0.6365  0.3220
10348TIP3   OH252534   1.874   3.514   6.362  0.0410  0.0762 -0.4203
10348TIP3    H152535   1.856   3.580   6.429 -0.4324  0.2623 -0.7216
10348TIP3    H252536   1.915   3.441   6.410  0.5916  0.5945 -0.0932
10349TIP3   OH252537   0.724   2.587   5.718  0.0073  0.1136 -0.4757
10349TIP3    H152538   0.696   2.573   5.627 -0.4048 -3.1815  0.0559
10349TIP3    H252539   0.818   2.604   5.711 -0.3626  2.0709 -1.5986
10350TIP3   OH252540   1.147   5.203   3.154 -0.1364 -0.4088 -0.3724
10350TIP3    H152541   1.061   5.167   3.176  0.6115 -1.8934  0.2812
10350TIP3    H252542   1.163   5.176   3.064 -0.7015  0.6126 -0.7932
10351TIP3   OH252543   3.820   0.011   4.452  0.1028 -0.4577 -0.3823
10351TIP3    H152544   3.767  -0.051   4.402  0.2908 -1.3346  0.4772
10351TIP3    H252545   3.886  -0.043   4.495 -0.8024  0.0594  1.8114
10352TIP3   OH252546   4.768   6.766  16.386  0.1831  0.1644 -0.4490
10352TIP3    H152547   4.849   6.770  16.437  0.4267 -0.1510 -0.8140
10352TIP3    H252548   4.733   6.679  16.403 -0.3318  0.4735  0.0924
10353TIP3   OH252549   5.966   6.464  14.698  0.0830  0.4438  0.1944
10353TIP3    H152550   6.053   6.435  14.670  0.1230  0.8952 -0.1676
10353TIP3    H252551   5.972   6.559  14.700  0.0091  0.4300  1.5479
10354TIP3   OH252552   3.413   6.599   2.640  0.3568 -0.7410  0.0816
10354TIP3    H152553   3.468   6.585   2.716  1.6967 -0.0936 -0.7327
10354TIP3    H252554   3.473   6.629   2.572 -1.3095  2.9785 -0.0040
10355TIP3   OH252555   0.954   1.944  15.737  0.7267 -0.7322 -0.4043
10355TIP3    H152556   0.944   2.036  15.713 -1.5298 -0.9025 -0.3087
10355TIP3    H252557   0.876   1.901  15.702  1.5907 -2.5933 -0.2180
10356TIP3   OH252558   2.427   3.164  16.369  0.0731 -0.5683 -0.2725
10356TIP3    H152559   2.334   3.143  16.369  0.0856 -0.6448  0.2849
10356TIP3    H252560   2.431   3.257  16.391  0.1713 -0.8320  0.8875
10357TIP3   OH252561   0.581   5.664  12.791 -0.4942  0.2888 -0.5128
10357TIP3    H152562   0.594   5.719  12.714  0.6986  0.4876 -0.1846
10357TIP3    H252563   0.601   5.576  12.761  0.6419  0.4507 -0.2896
10358TIP3   OH252564   2.301   0.184   1.164  0.1054  0.1150  0.3352
10358TIP3    H152565   2.215   0.220   1.143  0.7779  0.1339 -2.9547
10358TIP3    H252566   2.357   0.261   1.173  0.1329  0.0576  0.6638
10359TIP3   OH252567   6.338   6.668  12.590  0.1455 -0.1471 -0.3035
10359TIP3    H152568   6.323   6.647  12.682  2.5582  0.1498  0.2261
10359TIP3    H252569   6.314   6.760  12.582 -0.0467 -0.1647  0.0388
10360TIP3   OH252570   3.450   6.615   2.104 -0.8399  0.0991  0.3641
10360TIP3    H152571   3.409   6.647   2.184  0.5551  0.8069  0.8265
10360TIP3    H252572   3.485   6.529   2.128  0.2444  0.6337  0.7683
10361TIP3   OH252573   2.741   3.829  15.160 -0.0795 -1.1006 -0.1296
10361TIP3    H152574   2.801   3.893  15.122 -0.2341 -0.3761  0.8157
10361TIP3    H252575   2.664   3.831  15.103  0.1300 -0.8214 -0.4021
10362TIP3   OH252576   0.203   1.438  14.289 -0.4352  0.2641  0.2467
10362TIP3    H152577   0.110   1.444  14.309 -0.2310 -0.8178  1.7153
10362TIP3    H252578   0.207   1.385  14.209 -1.0279 -1.0638  1.0681
10363TIP3   OH252579   6.446   4.807  11.315 -0.1775 -0.2842  0.1071
10363TIP3    H152580   6.370   4.860  11.290  2.2340  2.8314 -1.2653
10363TIP3    H252581   6.461   4.830  11.407 -0.8394 -0.8986  0.3795
10364TIP3   OH252582   4.208   0.590  15.217 -0.2427 -0.7418 -0.5414
10364TIP3    H152583   4.139   0.534  15.252  1.2241 -1.7979  0.7362
10364TIP3    H252584   4.189   0.595  15.123 -1.7269 -1.4509 -0.3031
10365TIP3   OH252585   6.620   2.442   5.443  0.0872 -0.1543  0.4251
10365TIP3    H152586   6.669   2.384   5.501 -1.3230 -1.5053  0.3128
10365TIP3    H252587   6.555   2.483   5.499  0.0690  0.1264  0.2007
10366TIP3   OH252588   4.650   3.146   5.679  0.2685  0.1431 -0.7655
10366TIP3    H152589   4.597   3.202   5.736  0.6360  0.4160 -0.6886
10366TIP3    H252590   4.721   3.203   5.648  0.9712 -0.4282 -0.2366
10367TIP3   OH252591   2.495   4.253   4.380  0.0639 -0.3530  0.0782
10367TIP3    H152592   2.539   4.197   4.444  0.8973  2.1390  1.8135
10367TIP3    H252593   2.421   4.290   4.427 -0.9799 -0.5850 -1.3017
10368TIP3   OH252594   3.890   4.072  13.958  0.5198  0.3812 -0.0856
10368TIP3    H152595   3.843   4.044  13.879 -1.0980  0.5145  0.8029
10368TIP3    H252596   3.907   4.165  13.944 -0.9371  0.7173  0.2659
10369TIP3   OH252597   4.172   1.615   1.824 -0.2613 -0.0119 -0.1867
10369TIP3    H152598   4.105   1.680   1.806 -1.1084 -0.8678 -0.1954
10369TIP3    H252599   4.226   1.654   1.893  1.1195  1.9741 -2.2460
10370TIP3   OH252600   5.761   5.098  15.090  0.2395  0.4844 -0.1209
10370TIP3    H152601   5.801   5.176  15.130  1.7693  1.0594 -2.5801
10370TIP3    H252602   5.806   5.025  15.131  1.4314  1.0369 -0.3956
10371TIP3   OH252603   5.221   2.453   0.418  0.4031  0.3088  0.1080
10371TIP3    H152604   5.224   2.357   0.413 -1.3383  0.1952  0.6454
10371TIP3    H252605   5.269   2.474   0.498  0.2676 -0.1765  0.3214
10372TIP3   OH252606   6.667   3.511  15.689  0.1733 -0.5651 -0.4878
10372TIP3    H152607   6.684   3.434  15.743 -2.8493 -0.1366  1.3003
10372TIP3    H252608   6.604   3.480  15.623  0.3799 -0.0468 -0.9353
10373TIP3   OH252609   1.905   4.726  17.100 -0.3379 -0.4017 -0.1409
10373TIP3    H152610   1.926   4.731  17.194  1.7139  0.0160 -0.5670
10373TIP3    H252611   1.940   4.807  17.064 -0.6174 -0.8010 -1.3430
10374TIP3   OH252612   6.042   3.912  14.584  0.3823 -0.1346  0.5241
10374TIP3    H152613   6.044   3.828  14.539 -1.2770 -1.0181  1.9834
10374TIP3    H252614   6.051   3.890  14.677 -0.6083  1.2347  0.9845
10375TIP3   OH252615   0.181   1.260   2.470 -0.1145  0.1369 -0.2066
10375TIP3    H152616   0.100   1.247   2.519  1.3699 -1.4320  2.0445
10375TIP3    H252617   0.154   1.264   2.379 -2.9893  2.5900  0.6132
10376TIP3   OH252618   1.334   1.837  13.590  0.4362 -0.6413  0.0111
10376TIP3    H152619   1.376   1.794  13.516 -0.5651  0.9153 -1.5271
10376TIP3    H252620   1.244   1.852  13.561  0.9798  3.4531 -0.0740
10377TIP3   OH252621   0.765   5.628  13.931 -0.2729 -0.2868  0.0921
10377TIP3    H152622   0.689   5.686  13.921 -0.9465 -1.1278  0.2176
10377TIP3    H252623   0.779   5.623  14.026  1.6752  2.0270  0.0224
10378TIP3   OH252624   2.146   6.385  12.376  0.0682 -0.4793 -0.1130
10378TIP3    H152625   2.145   6.308  12.319 -1.3566 -0.6167  0.0495
10378TIP3    H252626   2.063   6.429  12.357  0.3280  0.3611  0.6589
10379TIP3   OH252627   5.211   5.220   3.964 -0.2333 -0.0515  0.0768
10379TIP3    H152628   5.249   5.283   3.903  0.3772  2.1335  2.4907
10379TIP3    H252629   5.282   5.160   3.984  0.0581  0.2145 -0.1455
10380TIP3   OH252630   6.456   2.507  14.022  0.6085 -0.1720 -0.3283
10380TIP3    H152631   6.534   2.563  14.027  1.3532 -1.2838  2.3206
10380TIP3    H252632   6.479   2.440  13.957  0.9982  0.6844 -1.1034
10381TIP3   OH252633   4.498   0.819  17.147  0.2309 -0.8125 -0.4039
10381TIP3    H152634   4.571   0.793  17.090  0.2175 -2.2044  0.1975
10381TIP3    H252635   4.431   0.753  17.133 -0.2312 -0.5192  0.3586
10382TIP3   OH252636   0.249   2.339   1.574  0.3416  0.2701  0.6026
10382TIP3    H152637   0.211   2.426   1.564  0.5325  0.3298  0.3818
10382TIP3    H252638   0.195   2.283   1.519  0.5698  0.3557  0.2853
10383TIP3   OH252639   5.891   1.051   3.976  0.0147 -0.2407 -0.1603
10383TIP3    H152640   5.811   1.058   3.922 -0.6692 -0.5094  0.7968
10383TIP3    H252641   5.949   0.995   3.925 -0.9765 -1.2587 -0.2265
10384TIP3   OH252642   5.360   2.951   1.232  0.0468 -0.4848 -0.4285
10384TIP3    H152643   5.274   2.991   1.241  0.7696  0.9573  0.5757
10384TIP3    H252644   5.415   2.999   1.294  1.5437 -1.4705 -0.9322
10385TIP3   OH252645   3.346   1.120  16.710  0.4883  0.7217  0.1821
10385TIP3    H152646   3.389   1.051  16.760  1.9866  1.0456 -0.5962
10385TIP3    H252647   3.294   1.167  16.775 -1.4405 -1.7210  0.5622
10386TIP3   OH252648   0.968   6.802  10.310 -0.7070 -0.3241 -0.3142
10386TIP3    H152649   0.972   6.711  10.339 -2.1227  0.0515  1.2048
10386TIP3    H252650   0.888   6.808  10.259  0.3214 -0.3105 -1.9974
10387TIP3   OH252651   3.599   0.543   3.410 -0.0021  0.0473 -0.1141
10387TIP3    H152652   3.615   0.471   3.472  0.6546  1.3759  1.3603
10387TIP3    H252653   3.509   0.570   3.428 -0.5942 -0.9972 -1.3638
10388TIP3   OH252654   5.962   2.987   4.555 -0.3435 -0.4344  0.4934
10388TIP3    H152655   6.031   2.974   4.490 -1.0337  0.2439 -0.3980
10388TIP3    H252656   5.971   2.913   4.615  1.0996 -0.4058  0.3516
10389TIP3   OH252657   6.191   4.948   1.260 -0.5168  0.1022 -0.0840
10389TIP3    H152658   6.112   4.965   1.210 -0.6066  1.4499  0.4566
10389TIP3    H252659   6.162   4.951   1.352  0.0467  0.0236  0.1003
10390TIP3   OH252660   3.410   3.900  14.997  0.1102 -0.3568 -0.5339
10390TIP3    H152661   3.317   3.887  14.980  0.4154 -0.8851 -1.9407
10390TIP3    H252662   3.451   3.892  14.911  1.3444  0.9430 -0.0990
10391TIP3   OH252663   2.691   1.624   1.975 -0.8091  0.2347 -0.3625
10391TIP3    H152664   2.781   1.655   1.985 -0.6337 -0.8735  2.5094
10391TIP3    H252665   2.682   1.605   1.881  1.9125  0.4153 -0.7342
10392TIP3   OH252666   4.425   2.258  16.850  0.2287 -0.2176  0.7680
10392TIP3    H152667   4.463   2.311  16.921  0.0322  0.6491  0.2387
10392TIP3    H252668   4.456   2.300  16.770 -2.8900  1.3975  0.2706
10393TIP3   OH252669   2.900   5.087  15.186 -0.0823  0.3221 -0.2590
10393TIP3    H152670   2.913   5.164  15.130 -0.5418 -0.0987 -0.9595
10393TIP3    H252671   2.805   5.081  15.197 -0.1703 -1.0757 -1.5558
10394TIP3   OH252672   3.490   0.027  13.068  0.1795  0.7087 -0.4876
10394TIP3    H152673   3.466   0.093  13.133 -0.1497  0.6267 -0.5206
10394TIP3    H252674   3.410   0.015  13.017  0.4190  0.7305 -0.8727
10395TIP3   OH252675   3.369   5.488  16.923  0.1344  0.2335 -0.1229
10395TIP3    H152676   3.374   5.492  16.828  0.1574  3.5005 -0.1133
10395TIP3    H252677   3.422   5.412  16.947  0.9289 -0.1146 -2.6780
10396TIP3   OH252678   5.017   0.248  16.412  0.3072 -0.1261 -0.1895
10396TIP3    H152679   4.947   0.308  16.385  0.8857 -0.0162 -1.5149
10396TIP3    H252680   4.980   0.201  16.487 -1.3264 -0.3074 -1.0510
10397TIP3   OH252681   6.554   0.909   1.047  0.5173  0.3637 -0.3876
10397TIP3    H152682   6.582   0.840   0.987  0.8221  0.8989 -0.8764
10397TIP3    H252683   6.492   0.961   0.995  0.0199  0.2580  0.0904
10398TIP3   OH252684   2.355   1.311  11.848 -0.2399  0.1753  0.3471
10398TIP3    H152685   2.437   1.300  11.800 -0.3340 -1.8216  0.5330
10398TIP3    H252686   2.377   1.291  11.939 -0.9170 -0.4549  0.3847
10399TIP3   OH252687   0.479   4.296  12.335  0.5733 -0.1975 -0.1078
10399TIP3    H152688   0.478   4.365  12.268 -0.2572  0.5516  0.6498
10399TIP3    H252689   0.534   4.227  12.298 -1.5280 -0.7235 -2.4950
10400TIP3   OH252690   4.786   4.296   3.848  0.0795  0.3526 -0.0355
10400TIP3    H152691   4.782   4.292   3.752 -1.1927  1.1770 -0.0489
10400TIP3    H252692   4.773   4.206   3.877 -0.1281  0.1900 -0.6226
10401TIP3   OH252693   0.625   5.515   1.298 -0.5817 -0.3477  0.3219
10401TIP3    H152694   0.662   5.474   1.376 -1.3852  0.5529  1.2136
10401TIP3    H252695   0.531   5.498   1.306 -0.5094 -1.8396 -1.4350
10402TIP3   OH252696   3.967   2.893   4.042 -0.3117  0.6061  0.2460
10402TIP3    H152697   3.909   2.965   4.067 -0.5197  0.4011  0.3623
10402TIP3    H252698   3.942   2.871   3.953 -1.1205 -0.1569  0.6416
10403TIP3   OH252699   2.356   3.041   4.714  0.2958 -0.6342  0.0616
10403TIP3    H152700   2.434   3.091   4.737  0.1939 -0.6498  0.4597
10403TIP3    H252701   2.315   3.090   4.642  0.5758 -0.5318 -0.0270
10404TIP3   OH252702   0.849   2.022   4.491  0.8710  1.0747  0.1040
10404TIP3    H152703   0.893   1.944   4.527 -0.2002  0.1527 -0.5173
10404TIP3    H252704   0.759   1.994   4.475 -0.5788  3.4316  3.0683
10405TIP3   OH252705   4.860   2.639  15.202  0.0740 -0.0155 -0.2083
10405TIP3    H152706   4.908   2.557  15.204 -0.8830 -0.6872  3.7600
10405TIP3    H252707   4.923   2.705  15.232  0.0014  0.0991 -0.3067
10406TIP3   OH252708   5.658   6.447  12.113 -0.0411 -0.5239  0.2520
10406TIP3    H152709   5.690   6.378  12.055  0.0233  0.0029 -0.3493
10406TIP3    H252710   5.732   6.505  12.126 -0.1460 -0.4655  0.6103
10407TIP3   OH252711   5.814   0.296   2.772 -0.5936  0.3013  0.1443
10407TIP3    H152712   5.733   0.294   2.822 -0.2222 -0.9737  0.7400
10407TIP3    H252713   5.793   0.346   2.693 -2.0413 -0.2560  0.1496
10408TIP3   OH252714   0.893   3.404   0.702  0.3704 -0.0744 -0.6350
10408TIP3    H152715   0.937   3.384   0.619  0.8970  1.9028 -0.8884
10408TIP3    H252716   0.923   3.493   0.723  0.2905 -0.5551  1.7128
10409TIP3   OH252717   4.314   5.381   1.435 -0.3801 -0.3405 -0.1832
10409TIP3    H152718   4.378   5.374   1.506 -0.9329  0.5472  0.4258
10409TIP3    H252719   4.229   5.386   1.479 -0.9128 -1.7379 -0.9911
10410TIP3   OH252720   3.705   5.387  11.353 -0.2628 -0.5116  0.1759
10410TIP3    H152721   3.746   5.317  11.301 -1.0674  0.0256 -1.2481
10410TIP3    H252722   3.776   5.448  11.372 -0.2136  0.1132 -1.7590
10411TIP3   OH252723   0.737   5.260  15.056 -0.4071  0.7992 -0.5878
10411TIP3    H152724   0.666   5.196  15.044 -0.7623  0.7017  1.6257
10411TIP3    H252725   0.692   5.339  15.088  0.1866  1.7558 -1.9986
10412TIP3   OH252726   3.813   3.110  11.958 -0.1197 -0.2334  0.1438
10412TIP3    H152727   3.820   3.015  11.949  0.3352 -0.0507 -1.6365
10412TIP3    H252728   3.866   3.146  11.887 -0.1556  1.3664  0.8791
10413TIP3   OH252729   6.418   4.609  11.955  0.0359  0.1107  0.6051
10413TIP3    H152730   6.478   4.559  11.900  0.0322  0.5583  0.1845
10413TIP3    H252731   6.339   4.556  11.959  0.0008  0.1189  0.0937
10414TIP3   OH252732   3.572   6.099  15.432 -0.2359 -0.1180  0.0545
10414TIP3    H152733   3.562   6.009  15.398  0.5795  0.0349 -0.6280
10414TIP3    H252734   3.522   6.153  15.371 -1.7419 -0.2200  1.1513
10415TIP3   OH252735   3.732   4.851  15.431 -0.1303 -0.0754  0.4648
10415TIP3    H152736   3.719   4.758  15.452 -0.2737  0.2306  1.7944
10415TIP3    H252737   3.645   4.883  15.408 -0.2247 -0.0765  0.8181
10416TIP3   OH252738   2.321   2.713   2.965  0.3740 -0.3002 -0.2583
10416TIP3    H152739   2.414   2.698   2.980  1.1535  2.8774 -1.1939
10416TIP3    H252740   2.306   2.683   2.876  1.0475  0.9806 -0.8351
10417TIP3   OH252741   5.106   1.602  15.073  0.3410  0.1237 -0.7641
10417TIP3    H152742   5.044   1.565  15.010  1.4954 -1.2836 -1.1429
10417TIP3    H252743   5.085   1.559  15.156 -1.4175  2.2468 -0.0320
10418TIP3   OH252744   5.994   6.130  15.954  0.5130  0.2420 -0.6695
10418TIP3    H152745   5.998   6.044  15.995  1.5696  0.6599  0.1686
10418TIP3    H252746   6.054   6.124  15.879  1.0457  0.4124 -0.2632
10419TIP3   OH252747   5.355   4.810  16.148 -0.0978  0.1800 -0.4707
10419TIP3    H152748   5.417   4.855  16.206  0.2927  0.7506 -1.3069
10419TIP3    H252749   5.360   4.718  16.173 -0.9126  0.5640  1.2873
10420TIP3   OH252750   6.698   3.893  12.457  0.1079  0.6492  0.5658
10420TIP3    H152751   6.758   3.849  12.519  0.1626  2.2810  1.7525
10420TIP3    H252752   6.623   3.918  12.511  0.4651  2.7375  0.1797
10421TIP3   OH252753   2.568   6.165  15.705 -0.2247  0.3266  0.7318
10421TIP3    H152754   2.518   6.111  15.645  0.2649 -0.3472  0.9156
10421TIP3    H252755   2.532   6.253  15.695  0.4991  0.4266 -1.2547
10422TIP3   OH252756   1.169   0.389  15.041 -0.0957  0.1903  0.1022
10422TIP3    H152757   1.087   0.387  14.992 -0.3167  0.5950  0.4452
10422TIP3    H252758   1.161   0.316  15.103 -0.3751  0.4721  0.4055
10423TIP3   OH252759   3.630   0.339  13.996  0.3559  0.3724  0.1690
10423TIP3    H152760   3.651   0.257  14.040 -1.2322  0.9038  2.0157
10423TIP3    H252761   3.543   0.325  13.959  0.1600  1.1659  0.3192
10424TIP3   OH252762   5.078   6.040   2.028 -0.2482 -0.4971 -0.3323
10424TIP3    H152763   4.998   5.991   2.044 -0.2557 -1.1199 -2.0994
10424TIP3    H252764   5.079   6.056   1.934  1.5968 -0.3309 -0.3316
10425TIP3   OH252765   1.094   4.839   3.981 -0.2164  0.5634  0.3519
10425TIP3    H152766   1.188   4.829   3.967 -0.2363  0.9157 -0.0574
10425TIP3    H252767   1.087   4.886   4.064 -0.0656 -0.5459  1.0099
10426TIP3   OH252768   1.753   4.944   1.541  0.1223  0.3547  0.7301
10426TIP3    H152769   1.674   4.896   1.517  0.5265 -0.2679  0.6431
10426TIP3    H252770   1.732   5.036   1.522  0.0479  0.0120 -0.9871
10427TIP3   OH252771   2.564   1.756   6.513  0.5136  0.2657  0.5517
10427TIP3    H152772   2.593   1.845   6.531  0.9025  0.1093  0.7003
10427TIP3    H252773   2.476   1.751   6.550  0.5624  0.5295  0.7030
10428TIP3   OH252774   0.334   4.674   4.540 -0.4076  0.2471  0.6671
10428TIP3    H152775   0.315   4.768   4.540 -1.6262  0.0331 -0.7262
10428TIP3    H252776   0.317   4.645   4.451  2.1548 -0.9118  0.4489
10429TIP3   OH252777   4.247   3.373   0.706 -0.2445  0.1166 -0.3711
10429TIP3    H152778   4.171   3.432   0.710  0.5070  1.2421 -1.6975
10429TIP3    H252779   4.237   3.326   0.624  0.0527 -0.3601 -0.1394
10430TIP3   OH252780   0.165   2.424  14.842  0.8727 -0.2811  0.3016
10430TIP3    H152781   0.257   2.434  14.817  0.8782 -0.0285  0.4146
10430TIP3    H252782   0.116   2.469  14.774  0.7813 -1.0897 -0.1798
10431TIP3   OH252783   1.105   2.994   3.297  0.3218  0.0071 -0.0275
10431TIP3    H152784   1.137   3.047   3.370 -0.6883 -0.0499  0.4823
10431TIP3    H252785   1.152   3.027   3.220  0.2989  1.0958  0.4079
10432TIP3   OH252786   2.907   5.668   6.049 -0.8002 -0.2445  0.0629
10432TIP3    H152787   2.966   5.683   5.975 -0.1738  0.0978  0.6170
10432TIP3    H252788   2.907   5.750   6.097  0.0867 -0.9413  1.3293
10433TIP3   OH252789   3.538   0.379   3.607  0.0382 -0.0090  0.4341
10433TIP3    H152790   3.479   0.304   3.618  0.3739 -0.3607 -0.1327
10433TIP3    H252791   3.606   0.365   3.673  0.1928 -0.2935  0.2141
10434TIP3   OH252792   4.038   6.023   0.219 -0.2416  0.2592 -0.0760
10434TIP3    H152793   3.972   5.972   0.266  0.8907 -0.4359  0.8401
10434TIP3    H252794   3.998   6.109   0.207 -1.0365  0.0868  1.1115
10435TIP3   OH252795   2.407   6.231   0.606  0.1422 -0.5712  0.4215
10435TIP3    H152796   2.392   6.188   0.690 -1.7723 -1.7744 -0.4436
10435TIP3    H252797   2.391   6.323   0.622 -0.0642 -0.7724  1.4141
10436TIP3   OH252798   1.878   1.049  16.911 -0.0135  0.6268 -0.5590
10436TIP3    H152799   1.818   1.059  16.837 -0.9123  0.5810  0.1486
10436TIP3    H252800   1.927   1.131  16.913  2.1884 -0.4638 -3.0192
10437TIP3   OH252801   1.689   4.435  16.783 -0.2133  0.0177 -0.2925
10437TIP3    H152802   1.670   4.499  16.714  0.2798  0.3079 -0.1695
10437TIP3    H252803   1.685   4.350  16.739 -2.4486 -0.0179 -0.1209
10438TIP3   OH252804   1.112   2.507  14.324  0.1656  0.1791  0.7000
10438TIP3    H152805   1.111   2.575  14.392 -0.3916 -0.4132  1.3032
10438TIP3    H252806   1.196   2.520  14.279 -0.2747  1.7583  0.2720
10439TIP3   OH252807   0.130   4.600   5.940  0.5174 -0.2437  0.5636
10439TIP3    H152808   0.069   4.586   5.868  0.0147  0.6603  0.8025
10439TIP3    H252809   0.129   4.694   5.955  0.3271 -0.4536  2.0064
10440TIP3   OH252810   5.745   3.830  13.214  0.4055 -0.4812  0.2242
10440TIP3    H152811   5.757   3.739  13.186  0.2438  0.0562 -1.6923
10440TIP3    H252812   5.748   3.826  13.310  2.4080 -2.2225  0.1547
10441TIP3   OH252813   6.461   4.023  12.580 -0.5580 -0.3904 -0.1987
10441TIP3    H152814   6.473   4.068  12.664 -1.3364  1.6712 -1.1055
10441TIP3    H252815   6.505   4.080  12.516  1.0079 -2.4769 -1.1074
10442TIP3   OH252816   5.021   0.092   5.414 -0.1701 -0.7840 -0.8631
10442TIP3    H152817   5.078   0.160   5.449  0.2285 -0.2569 -2.4713
10442TIP3    H252818   5.078   0.037   5.361 -0.7774 -1.5070 -0.7993
10443TIP3   OH252819   5.296   2.400   4.876  0.0082  0.7529  0.6233
10443TIP3    H152820   5.265   2.326   4.824  1.8899 -0.0873  0.5946
10443TIP3    H252821   5.221   2.427   4.929 -1.6383  0.9106 -1.6658
10444TIP3   OH252822   5.175   1.274   2.667 -0.1166  0.1034  0.8145
10444TIP3    H152823   5.120   1.352   2.676 -0.1682  0.1099  0.4434
10444TIP3    H252824   5.115   1.201   2.687 -0.8990 -0.0693 -1.8085
10445TIP3   OH252825   6.145   0.740  15.644 -0.0452 -0.8313 -0.1006
10445TIP3    H152826   6.233   0.762  15.613 -1.1111 -0.6485 -3.3197
10445TIP3    H252827   6.126   0.805  15.711  2.3786 -1.1469  0.9963
10446TIP3   OH252828   5.654   5.553  12.693 -0.0747 -0.1264  0.5262
10446TIP3    H152829   5.594   5.598  12.635 -0.8260  1.7459  2.6088
10446TIP3    H252830   5.737   5.599  12.682 -0.7172  1.6345  2.2809
10447TIP3   OH252831   3.551   2.866  14.350 -0.3549  0.3438  0.0210
10447TIP3    H152832   3.588   2.953  14.364 -0.9906  0.2855  2.4385
10447TIP3    H252833   3.561   2.822  14.434 -1.2532 -1.4700 -0.7713
10448TIP3   OH252834   2.810   6.633  13.329 -0.0975 -0.6988 -0.2382
10448TIP3    H152835   2.867   6.610  13.255 -1.1971 -0.3024 -1.2275
10448TIP3    H252836   2.740   6.685  13.290 -1.5652 -1.8138  0.8165
10449TIP3   OH252837   5.564   5.734  11.133  0.1217  0.0936 -0.6295
10449TIP3    H152838   5.574   5.828  11.144 -0.9357  0.0702  0.7279
10449TIP3    H252839   5.615   5.714  11.054  0.9379  1.6760 -0.5504
10450TIP3   OH252840   2.280   3.063   0.031 -0.1316  0.2586  0.0079
10450TIP3    H152841   2.325   2.995   0.081  0.3840  1.2524  0.9412
10450TIP3    H252842   2.321   3.145   0.059 -0.9691  0.9958 -0.8336
10451TIP3   OH252843   4.387   5.341   2.360 -0.0189 -0.1843 -0.1436
10451TIP3    H152844   4.390   5.273   2.293  2.2012 -1.1502  0.8130
10451TIP3    H252845   4.390   5.293   2.443 -1.4726  1.0191  0.6517
10452TIP3   OH252846   1.230   5.757  14.197  0.4732  0.3503  0.2395
10452TIP3    H152847   1.188   5.714  14.122  0.9291  0.8137 -0.2882
10452TIP3    H252848   1.306   5.801  14.160  1.0096  0.1490  1.0673
10453TIP3   OH252849   3.825   3.156  14.799 -0.1094  0.3162  0.0769
10453TIP3    H152850   3.862   3.069  14.785 -0.8835 -0.1261  0.6749
10453TIP3    H252851   3.867   3.188  14.879  0.4367  0.6546 -0.3342
10454TIP3   OH252852   3.280   4.960   5.222  0.0300 -0.3142  0.6195
10454TIP3    H152853   3.252   4.879   5.263 -0.7436 -0.9517 -1.0963
10454TIP3    H252854   3.305   4.935   5.133  1.2545  1.0853  0.5237
10455TIP3   OH252855   6.497   4.200  12.181 -0.0532  0.1907 -0.3569
10455TIP3    H152856   6.449   4.131  12.136 -0.5823 -0.7409  1.5121
10455TIP3    H252857   6.436   4.232  12.247  0.9207  0.9833  0.1828
10456TIP3   OH252858   1.116   1.365   1.324  0.5434  0.3637  0.3260
10456TIP3    H152859   1.159   1.441   1.286 -1.1229  0.8191 -0.7583
10456TIP3    H252860   1.179   1.293   1.315  1.6626  1.3394  0.2596
10457TIP3   OH252861   4.154   1.635   6.183  0.4168 -1.0539 -0.0603
10457TIP3    H152862   4.171   1.727   6.202  0.9946 -1.1591 -0.0380
10457TIP3    H252863   4.070   1.616   6.225  0.2775 -0.5287 -0.0976
10458TIP3   OH252864   4.155   6.663   5.486  0.2642 -0.0716 -0.0483
10458TIP3    H152865   4.115   6.576   5.493 -0.0773 -0.0243 -1.1319
10458TIP3    H252866   4.131   6.708   5.567 -1.3735 -0.2629 -0.3905
10459TIP3   OH252867   2.316   1.052   1.644  0.7236  0.3410  0.0185
10459TIP3    H152868   2.277   1.107   1.712 -0.8815 -0.9672  0.2371
10459TIP3    H252869   2.315   0.964   1.682  0.9209 -0.2171 -1.2437
10460TIP3   OH252870   4.775   2.185   2.435 -0.0369  0.2091 -0.7962
10460TIP3    H152871   4.839   2.202   2.366 -0.7105 -0.7557 -1.6798
10460TIP3    H252872   4.746   2.095   2.421  0.9976 -0.6208  1.7442
10461TIP3   OH252873   1.659   0.228   4.196 -0.0879 -0.3294 -0.5285
10461TIP3    H152874   1.730   0.164   4.192 -0.9708 -1.3885  0.1731
10461TIP3    H252875   1.632   0.228   4.288 -0.3535  0.7972 -0.5868
10462TIP3   OH252876   6.122   4.653  12.116 -0.1326  0.5531 -0.0663
10462TIP3    H152877   6.066   4.728  12.137 -0.6758 -0.5330  2.9337
10462TIP3    H252878   6.182   4.647  12.190 -0.4557 -2.2429  0.0904
10463TIP3   OH252879   1.214   0.637  11.462  0.2378 -0.2059 -0.0529
10463TIP3    H152880   1.214   0.613  11.554 -0.5959  1.4772  0.4178
10463TIP3    H252881   1.227   0.554  11.416  2.1096 -0.8916  1.5870
10464TIP3   OH252882   4.991   3.216  14.918 -0.4694  0.2675 -0.4019
10464TIP3    H152883   4.997   3.311  14.918 -0.7800  0.2902  0.0510
10464TIP3    H252884   5.068   3.187  14.966 -1.9287  0.4282  2.2851
10465TIP3   OH252885   3.714   3.164   5.207 -0.2166  0.5323  0.5405
10465TIP3    H152886   3.758   3.112   5.140  0.0325 -0.6683  1.6068
10465TIP3    H252887   3.624   3.172   5.176 -0.0193  0.3088 -0.1104
10466TIP3   OH252888   1.758   4.976   3.821  0.3380 -0.0480  0.0201
10466TIP3    H152889   1.710   5.016   3.893  1.8748  0.0914  1.0215
10466TIP3    H252890   1.692   4.960   3.753 -1.0118  0.4933  1.1637
10467TIP3   OH252891   5.315   4.431   4.636  0.0331  0.3029  0.1289
10467TIP3    H152892   5.373   4.365   4.597  1.9447  1.4878  0.8413
10467TIP3    H252893   5.327   4.509   4.582 -0.9363  0.5621  0.2753
10468TIP3   OH252894   3.444   4.940   1.447  0.0418  0.7122 -0.1745
10468TIP3    H152895   3.508   5.009   1.426 -1.7234  1.9164 -1.9938
10468TIP3    H252896   3.493   4.859   1.435  1.6018  1.6024 -0.1857
10469TIP3   OH252897   3.941   2.442   0.555 -0.1014 -0.2183  0.2771
10469TIP3    H152898   4.032   2.451   0.582 -0.1087  0.1341  0.1879
10469TIP3    H252899   3.941   2.460   0.461 -0.4789  1.2961  0.5407
10470TIP3   OH252900   3.659   1.631  14.616  0.3479  0.3661 -0.1155
10470TIP3    H152901   3.642   1.669  14.702 -1.1021  0.7191 -0.5395
10470TIP3    H252902   3.701   1.547  14.635  0.4520  0.6293  0.9092
10471TIP3   OH252903   1.484   1.917  14.964  0.1855 -0.3052  0.2021
10471TIP3    H152904   1.443   1.925  14.878 -0.8064  1.8152  0.7999
10471TIP3    H252905   1.558   1.978  14.960 -0.9103  1.1764  1.3646
10472TIP3   OH252906   5.537   4.548  12.948 -0.2531  0.2249  0.1305
10472TIP3    H152907   5.516   4.626  13.000 -2.6043  0.0343 -0.4202
10472TIP3    H252908   5.571   4.582  12.866 -2.6151  0.7911 -0.6743
10473TIP3   OH252909   6.043   3.300   3.558  0.4065 -0.1421  0.0886
10473TIP3    H152910   6.125   3.291   3.606 -0.0605 -1.9466  0.6432
10473TIP3    H252911   6.068   3.290   3.466  1.1785  2.4123 -0.0426
10474TIP3   OH252912   3.091   0.877  15.141  0.1517 -0.0164 -0.4755
10474TIP3    H152913   3.026   0.828  15.191  0.3781  0.6666  0.5020
10474TIP3    H252914   3.078   0.848  15.050 -1.5836  0.1926 -0.3116
10475TIP3   OH252915   4.372   2.333  11.832  0.3774  0.1937 -0.1626
10475TIP3    H152916   4.278   2.349  11.819  0.3125  0.4558  0.5745
10475TIP3    H252917   4.377   2.242  11.861  0.2684  0.4188  0.5846
10476TIP3   OH252918   2.586   4.678  16.288  0.4655  0.4382 -0.0376
10476TIP3    H152919   2.612   4.602  16.340  2.1645  0.4560 -0.8070
10476TIP3    H252920   2.540   4.641  16.213  0.3118  0.2482  0.1487
10477TIP3   OH252921   3.299   2.159   1.240  0.0494 -0.2746 -0.4913
10477TIP3    H152922   3.343   2.117   1.166  0.2136 -1.2791  0.1513
10477TIP3    H252923   3.354   2.235   1.261  0.1124 -0.0994 -1.2577
10478TIP3   OH252924   1.324   6.135   5.769  0.2406  0.1054  0.4836
10478TIP3    H152925   1.341   6.052   5.724 -0.3205  0.4130 -0.3238
10478TIP3    H252926   1.293   6.109   5.856  0.8801 -0.5105  0.5424
10479TIP3   OH252927   1.664   3.780   1.445  0.3302 -0.3830 -0.3999
10479TIP3    H152928   1.742   3.827   1.415 -0.1393  1.1918  0.7556
10479TIP3    H252929   1.659   3.798   1.539 -1.5699 -0.2111 -0.4971
10480TIP3   OH252930   1.449   6.183   4.660  0.5270  0.5360  0.0176
10480TIP3    H152931   1.371   6.186   4.604  0.6087 -0.0188 -0.1286
10480TIP3    H252932   1.447   6.267   4.708 -1.2654 -0.2651  1.4789
10481TIP3   OH252933   0.986   2.472   0.414 -0.0889  0.4893  0.2314
10481TIP3    H152934   0.891   2.470   0.418 -0.0942 -0.2257 -0.0996
10481TIP3    H252935   1.009   2.410   0.345  0.5829  1.3264 -0.3302
10482TIP3   OH252936   3.266   3.400  16.813 -0.1612  0.4212 -0.1848
10482TIP3    H152937   3.215   3.396  16.894  1.0489 -0.2799  0.5754
10482TIP3    H252938   3.319   3.480  16.821  0.2565  0.1403 -0.0839
10483TIP3   OH252939   1.341   0.151  17.123  0.2432  0.3933 -0.4390
10483TIP3    H152940   1.435   0.149  17.104  0.5661 -0.2088  1.1273
10483TIP3    H252941   1.333   0.117  17.212 -1.1968  2.8337  0.4777
10484TIP3   OH252942   0.120   0.579   3.096  0.2052 -0.0917  0.2109
10484TIP3    H152943   0.198   0.631   3.115  0.4106 -0.9436  1.7996
10484TIP3    H252944   0.069   0.635   3.037  1.2020  1.1959  0.5098
10485TIP3   OH252945   1.340   5.666   3.130 -0.6824 -0.4470 -0.2427
10485TIP3    H152946   1.288   5.734   3.172 -1.1576 -0.7141 -0.3902
10485TIP3    H252947   1.430   5.698   3.136 -0.8723  0.0792 -0.0935
10486TIP3   OH252948   0.535   5.748  11.451  0.1577 -0.6346 -0.2927
10486TIP3    H152949   0.597   5.772  11.520 -0.3427 -1.7668  0.5750
10486TIP3    H252950   0.545   5.654  11.441 -1.3799 -0.8344 -0.1770
10487TIP3   OH252951   3.987   1.715  10.867 -0.2339 -0.2335  0.0609
10487TIP3    H152952   4.067   1.766  10.855 -0.5955  0.4472  0.4585
10487TIP3    H252953   3.919   1.768  10.827 -0.5178 -0.7267 -0.1129
10488TIP3   OH252954   2.164   4.976   0.890 -0.3524  0.6183 -0.3272
10488TIP3    H152955   2.133   4.987   0.801 -1.8880 -3.2850 -0.4640
10488TIP3    H252956   2.257   4.956   0.880 -0.6410 -0.3789 -1.1239
10489TIP3   OH252957   3.318   5.860   0.491 -0.3285  0.5894 -0.7594
10489TIP3    H152958   3.251   5.864   0.559  0.3918  0.9232 -0.0496
10489TIP3    H252959   3.318   5.769   0.462 -1.2657  0.6472 -0.9593
10490TIP3   OH252960   5.609   3.515  17.065  0.3643 -0.0665  0.0346
10490TIP3    H152961   5.645   3.430  17.090  0.7603  0.2593  0.5823
10490TIP3    H252962   5.533   3.527  17.122  0.4793  0.0756  0.1583
10491TIP3   OH252963   1.510   6.160  11.100 -0.1398  0.7778  0.1620
10491TIP3    H152964   1.519   6.237  11.044  1.2683  1.0308  0.7076
10491TIP3    H252965   1.548   6.088  11.049 -1.0254  0.5200 -0.1540
10492TIP3   OH252966   6.366   6.379  12.587 -0.7001  0.3470  0.5980
10492TIP3    H152967   6.374   6.474  12.577 -1.5547  0.5208  1.3689
10492TIP3    H252968   6.455   6.349  12.605 -0.2599  0.8646 -0.5733
10493TIP3   OH252969   3.528   2.525  12.168  0.0490  0.0457  0.2011
10493TIP3    H152970   3.521   2.440  12.212 -0.4330 -0.1604 -0.2579
10493TIP3    H252971   3.511   2.589  12.237  1.8317 -0.1539  0.8718
10494TIP3   OH252972   0.245   6.121  11.924  0.3918 -0.2338  0.0352
10494TIP3    H152973   0.319   6.148  11.979  0.1866  0.5073 -0.0479
10494TIP3    H252974   0.230   6.030  11.948  1.0573 -0.2638  0.3662
10495TIP3   OH252975   4.818   4.904   3.529 -0.3810  0.4546  0.3172
10495TIP3    H152976   4.831   4.969   3.598 -1.5609  3.1411 -1.7416
10495TIP3    H252977   4.730   4.868   3.545 -0.6444  1.0574  0.2658
10496TIP3   OH252978   2.644   0.055  13.628 -0.3083 -0.3091  0.9141
10496TIP3    H152979   2.566   0.091  13.585 -0.3136 -1.9674 -0.5661
10496TIP3    H252980   2.628  -0.039  13.631  2.2052 -0.8778 -0.7229
10497TIP3   OH252981   4.658   6.114   4.185  0.5353 -0.3367 -0.0841
10497TIP3    H152982   4.735   6.155   4.145 -0.1923  1.9903  0.7957
10497TIP3    H252983   4.693   6.033   4.224  1.9630 -0.7573 -2.0429
10498TIP3   OH252984   4.856   4.954  13.425  0.5362  0.4741  0.0463
10498TIP3    H152985   4.941   4.993  13.405  0.3461  0.1296 -1.5330
10498TIP3    H252986   4.859   4.939  13.520  3.2014 -1.7454 -0.2731
10499TIP3   OH252987   6.747   5.574   3.719  0.0927 -0.2994  0.5220
10499TIP3    H152988   6.718   5.487   3.691  1.5844 -0.9780  1.0106
10499TIP3    H252989   6.699   5.634   3.663  1.9481 -1.5501 -2.6851
10500TIP3   OH252990   3.251   2.510  10.840 -0.0206 -0.0852  0.4004
10500TIP3    H152991   3.228   2.547  10.755 -0.8862  1.8729  1.4037
10500TIP3    H252992   3.168   2.506  10.887  0.4528 -1.0915  1.1735
10501TIP3   OH252993   5.180   5.999  16.394  0.0427  0.5853 -0.5404
10501TIP3    H152994   5.199   5.905  16.403 -0.7474  0.5556  1.6115
10501TIP3    H252995   5.130   6.006  16.313  0.0790 -0.8643 -0.7193
10502TIP3   OH252996   1.951   1.824   2.292  0.7846 -0.0198 -0.0143
10502TIP3    H152997   1.942   1.917   2.314  1.4792  0.0660 -0.0882
10502TIP3    H252998   1.944   1.821   2.196  1.1196 -0.0037 -0.0386
10503TIP3   OH252999   1.718   2.611  14.559 -0.2682  0.1201  0.2071
10503TIP3    H153000   1.713   2.543  14.492 -1.9801  0.2629  0.1292
10503TIP3    H253001   1.767   2.570  14.631  1.0009 -0.2626 -0.8414
10504TIP3   OH253002   3.763   5.066   6.620 -0.2536  0.2255 -0.8166
10504TIP3    H153003   3.791   5.006   6.550  0.3077  0.0654 -0.4620
10504TIP3    H253004   3.695   5.120   6.579 -0.1692 -0.0908 -1.3902
10505TIP3   OH253005   0.189   0.433  12.520  0.6912 -0.4474  0.3639
10505TIP3    H153006   0.160   0.513  12.476  1.3971 -0.5331 -0.2666
10505TIP3    H253007   0.283   0.429  12.505  0.6902 -1.3127  0.5323
10506TIP3   OH253008   3.135   1.687  12.962  0.5538 -0.3100 -0.1169
10506TIP3    H153009   3.176   1.636  12.893  2.8540 -1.3512  1.8533
10506TIP3    H253010   3.042   1.667  12.956  0.7191 -0.6428 -2.5962
10507TIP3   OH253011   3.926   4.571  11.015 -0.8608 -0.7430  0.2101
10507TIP3    H153012   3.912   4.597  10.924  0.4295 -1.7791 -0.3070
10507TIP3    H253013   3.902   4.649  11.066  2.0458  1.2631 -1.2135
10508TIP3   OH253014   3.244   6.012   5.733 -0.2263  0.4771 -0.2230
10508TIP3    H153015   3.321   5.956   5.741 -1.1683 -0.6839  1.5937
10508TIP3    H253016   3.277   6.101   5.749  1.0891  0.3379 -1.9021
10509TIP3   OH253017   2.392   2.461  14.284 -0.0160  0.5477 -0.8847
10509TIP3    H153018   2.299   2.464  14.304  0.3165  2.1508  0.6528
10509TIP3    H253019   2.431   2.410  14.355  0.1863 -1.1775 -2.1621
10510TIP3   OH253020   2.888   5.902  16.759  0.0112  0.3063 -0.1829
10510TIP3    H153021   2.885   5.967  16.830 -2.5964  2.2621 -1.8604
10510TIP3    H253022   2.861   5.820  16.800  0.5803  0.8941  1.4505
10511TIP3   OH253023   3.448   5.146  15.976 -0.6809  0.3258 -0.4800
10511TIP3    H153024   3.414   5.184  15.895 -1.7284  0.9235  0.2109
10511TIP3    H253025   3.543   5.146  15.966 -0.8047  0.2757 -1.7470
10512TIP3   OH253026   2.073   4.959  14.902 -0.2339  0.0190  0.0372
10512TIP3    H153027   2.153   4.909  14.920 -0.3627 -0.1223  0.2206
10512TIP3    H253028   2.104   5.041  14.862 -0.1180 -0.8755 -1.7918
10513TIP3   OH253029   6.473   0.821   6.045 -0.2112  0.3388 -1.1303
10513TIP3    H153030   6.503   0.783   6.127 -0.2555  0.2292 -1.1654
10513TIP3    H253031   6.472   0.915   6.061  0.0934  0.3386 -1.1078
10514TIP3   OH253032   2.749   2.769   1.106  0.5876  0.1074  0.0458
10514TIP3    H153033   2.671   2.714   1.094  0.0902  0.7364  0.3461
10514TIP3    H253034   2.726   2.829   1.177  0.2705  2.1746 -1.6953
10515TIP3   OH253035   5.323   6.356   1.431 -0.5175 -0.3501  0.2138
10515TIP3    H153036   5.374   6.369   1.510 -1.2334 -0.9683  0.7916
10515TIP3    H253037   5.389   6.347   1.361  0.1341 -0.4032  0.8264
10516TIP3   OH253038   4.395   1.179  14.810 -0.1200  0.0393 -0.2354
10516TIP3    H153039   4.306   1.164  14.841  0.3507 -0.9356  0.7436
10516TIP3    H253040   4.388   1.185  14.715 -1.2664  0.3828 -0.1433
10517TIP3   OH253041   0.467   2.294   5.426  0.0814 -0.1447 -0.1173
10517TIP3    H153042   0.434   2.342   5.502 -1.3210 -0.2898 -0.6037
10517TIP3    H253043   0.469   2.359   5.356 -1.9153 -0.7550 -0.8049
10518TIP3   OH253044   2.062   4.717  13.024  1.1080  0.3544 -0.0832
10518TIP3    H153045   2.067   4.762  13.109  0.5738 -1.5683  1.0446
10518TIP3    H253046   2.005   4.772  12.971 -0.5235  0.4527  1.6395
10519TIP3   OH253047   4.529   4.795   0.133 -0.3672  0.2513 -0.3319
10519TIP3    H153048   4.608   4.842   0.109 -0.0035  0.1054  0.5388
10519TIP3    H253049   4.555   4.703   0.134 -0.3276  0.2562  0.7024
10520TIP3   OH253050   4.994   6.758   4.253 -0.4066 -0.0057  0.2002
10520TIP3    H153051   4.995   6.794   4.342  0.9122  1.9559 -0.5582
10520TIP3    H253052   4.920   6.697   4.253 -4.0174  3.9225  1.1220
10521TIP3   OH253053   5.578   4.986  12.622 -0.2248  0.2838 -0.2612
10521TIP3    H153054   5.498   4.936  12.602 -0.9595  0.8826  1.0420
10521TIP3    H253055   5.649   4.933  12.587 -0.9488 -1.8255  1.2904
10522TIP3   OH253056   5.253   4.908   0.039 -0.0093  0.1590 -0.3427
10522TIP3    H153057   5.161   4.903   0.065 -0.0238  0.4541 -0.3271
10522TIP3    H253058   5.280   4.817   0.027 -0.0410  0.0140  0.5906
10523TIP3   OH253059   6.304   1.793  16.570 -0.0615 -0.1187 -0.4978
10523TIP3    H153060   6.327   1.807  16.662 -3.0745  4.6573 -0.1158
10523TIP3    H253061   6.239   1.723  16.571 -1.0437  0.7607  1.2587
10524TIP3   OH253062   0.008   1.397  12.438  0.3659 -0.1549  0.1724
10524TIP3    H153063  -0.051   1.399  12.514  0.5509 -2.5967  0.4646
10524TIP3    H253064   0.090   1.435  12.470 -0.6134  2.1005  0.1220
10525TIP3   OH253065   4.656   6.015   5.118 -0.3083 -0.1153 -0.0567
10525TIP3    H153066   4.610   6.098   5.127 -2.3130 -0.7699 -2.8008
10525TIP3    H253067   4.601   5.952   5.165 -0.7439 -0.4353 -0.9695
10526TIP3   OH253068   2.415   1.354   4.880  0.0382  0.8540 -0.2763
10526TIP3    H153069   2.402   1.379   4.788  0.0878  2.9382  0.2305
10526TIP3    H253070   2.333   1.312   4.904 -0.0014  0.3351 -1.2556
10527TIP3   OH253071   3.640   1.154  13.908 -0.5669  0.6938  0.7638
10527TIP3    H153072   3.675   1.210  13.839 -0.4317  0.6713  0.8142
10527TIP3    H253073   3.558   1.196  13.934 -0.3754  0.9661  0.9266
10528TIP3   OH253074   4.046   4.890   0.917  0.0519  0.6135 -0.1398
10528TIP3    H153075   4.056   4.959   0.983 -1.0107  0.9845 -0.3521
10528TIP3    H253076   4.019   4.936   0.838  2.5583  0.3389 -1.2454
10529TIP3   OH253077   4.628   6.135  12.282 -0.2613  0.2868 -0.5991
10529TIP3    H153078   4.554   6.186  12.315  1.4398  1.6477  1.4387
10529TIP3    H253079   4.588   6.060  12.238 -2.8928 -0.5049  2.7144
10530TIP3   OH253080   0.509   3.532  16.801 -0.2544 -0.3519 -0.2544
10530TIP3    H153081   0.492   3.587  16.725  1.4176 -0.6683 -0.9082
10530TIP3    H253082   0.557   3.457  16.766  0.8897 -0.3282  1.1413
10531TIP3   OH253083   5.271   6.001   6.200 -0.7593  0.8040 -0.4815
10531TIP3    H153084   5.181   5.976   6.220 -0.3375 -1.4545 -1.1486
10531TIP3    H253085   5.266   6.042   6.113 -1.2153  1.3157 -0.2193
10532TIP3   OH253086   0.666   3.362  16.175  0.1868  0.1060  0.3664
10532TIP3    H153087   0.697   3.365  16.084  1.4334  0.3968  0.7867
10532TIP3    H253088   0.589   3.419  16.175 -0.8078 -1.1520 -0.8522
10533TIP3   OH253089   2.553   1.203   4.586  0.3221 -0.1534  0.0323
10533TIP3    H153090   2.619   1.175   4.522  0.4793  1.2056 -0.4208
10533TIP3    H253091   2.598   1.266   4.641 -0.5758  0.7589 -0.2576
10534TIP3   OH253092   5.255   3.249   0.845 -0.3910  0.4535 -0.3807
10534TIP3    H153093   5.194   3.304   0.895  0.2259 -0.0204  0.9081
10534TIP3    H253094   5.234   3.160   0.871  1.9062  0.3487  1.3633
10535TIP3   OH253095   0.820   6.054   5.748 -0.6419  1.0139  0.4998
10535TIP3    H153096   0.875   5.979   5.771  1.7461  2.4055 -0.2449
10535TIP3    H253097   0.731   6.026   5.766  0.0656 -2.3071 -0.5482
10536TIP3   OH253098   6.734   5.263   2.641  0.1763  0.1492  1.2938
10536TIP3    H153099   6.776   5.314   2.710  0.8447 -0.2619  1.1936
10536TIP3    H253100   6.800   5.200   2.613 -0.0180  0.4263  0.1571
10537TIP3   OH253101   3.502   3.965   4.529 -0.4158 -0.1630  0.0920
10537TIP3    H153102   3.517   3.966   4.623  0.2413  1.6699  0.0057
10537TIP3    H253103   3.471   3.877   4.510  1.4931 -1.2453  1.6965
10538TIP3   OH253104   3.165   1.007   2.011  0.6150  0.2406 -0.0143
10538TIP3    H153105   3.137   0.964   1.930  1.2927  0.3715 -0.3229
10538TIP3    H253106   3.252   1.041   1.991  1.0172 -0.2020  0.9564
10539TIP3   OH253107   6.603   2.979   3.723 -0.2421  0.2311  0.0806
10539TIP3    H153108   6.568   3.035   3.793 -1.5078  0.9436 -1.0817
10539TIP3    H253109   6.526   2.951   3.674  0.4834 -1.5438 -0.1238
10540TIP3   OH253110   1.712   3.106   0.921  0.2600  0.3096  0.1060
10540TIP3    H153111   1.799   3.094   0.958  0.5257 -0.7072 -0.7863
10540TIP3    H253112   1.728   3.119   0.827 -0.5840 -1.0521 -0.2614
10541TIP3   OH253113   5.128   6.737   3.998 -0.1206 -0.2416  0.0319
10541TIP3    H153114   5.087   6.751   4.083  1.2805  0.8379  0.5659
10541TIP3    H253115   5.071   6.674   3.954 -1.7638  0.4240  1.1209
10542TIP3   OH253116   6.364   3.272   1.405 -0.1342 -0.1378  0.6646
10542TIP3    H153117   6.308   3.313   1.471 -3.0913 -0.4804 -1.4502
10542TIP3    H253118   6.389   3.343   1.347  0.4014 -0.2343  0.7763
10543TIP3   OH253119   6.391   6.254   4.064  0.5129  0.3010 -0.9031
10543TIP3    H153120   6.304   6.293   4.060 -0.0529 -0.9407 -1.5328
10543TIP3    H253121   6.426   6.265   3.975  0.0955 -1.1186 -1.2636
10544TIP3   OH253122   0.029   2.271   4.052  0.0368  0.2298  0.5782
10544TIP3    H153123  -0.038   2.203   4.060  3.0073 -2.8107  2.8897
10544TIP3    H253124   0.062   2.261   3.962  1.8144 -3.1139  1.4386
10545TIP3   OH253125   0.867   1.869   3.479  0.8846 -0.4632  0.2435
10545TIP3    H153126   0.946   1.837   3.436  1.0354 -0.3969  0.4686
10545TIP3    H253127   0.796   1.852   3.417  1.3341  1.2261 -0.7820
10546TIP3   OH253128   6.237   0.345  15.969 -0.0874  0.2358  0.3097
10546TIP3    H153129   6.284   0.300  16.038 -0.0893 -1.9005 -1.0159
10546TIP3    H253130   6.305   0.372  15.907 -0.4209 -2.1183 -1.1888
10547TIP3   OH253131   2.396   0.910   2.522 -0.4681 -0.0163  0.5440
10547TIP3    H153132   2.441   0.833   2.487  1.8130  0.7156  1.6597
10547TIP3    H253133   2.379   0.965   2.446 -1.1431 -1.1290 -0.1298
10548TIP3   OH253134   1.172   0.591   0.489  0.2829 -0.3739  0.1778
10548TIP3    H153135   1.267   0.596   0.501  0.2454  0.5834  0.1386
10548TIP3    H253136   1.138   0.569   0.575  0.5120 -0.4404  0.2540
10549TIP3   OH253137   3.537   3.786  12.054  0.1022  0.1194 -0.0044
10549TIP3    H153138   3.543   3.854  12.121  0.7719  2.3650 -2.2185
10549TIP3    H253139   3.601   3.720  12.082 -0.8509  0.1149  2.4140
10550TIP3   OH253140   0.372   1.309   4.320  0.0132  0.4645 -0.4627
10550TIP3    H153141   0.387   1.292   4.413 -0.0057 -0.6741 -0.6534
10550TIP3    H253142   0.280   1.334   4.315 -0.4869 -1.2879 -0.3928
10551TIP3   OH253143   3.788   5.818  14.986 -0.2917  0.2513 -0.4641
10551TIP3    H153144   3.851   5.854  15.049 -0.8181  0.6707 -0.1640
10551TIP3    H253145   3.792   5.724  14.999 -0.2341  0.3185  0.0553
10552TIP3   OH253146   1.675   1.498  12.091 -0.6662  0.1871  0.6008
10552TIP3    H153147   1.760   1.541  12.099  0.7117 -2.2443  0.2772
10552TIP3    H253148   1.614   1.556  12.136  0.9356  2.5367 -0.0529
10553TIP3   OH253149   6.217   2.376   4.772  0.2766  0.0533  0.8824
10553TIP3    H153150   6.177   2.313   4.713 -0.1952  0.0842  1.1632
10553TIP3    H253151   6.155   2.449   4.775  1.0616  0.7620  0.1581
10554TIP3   OH253152   3.036   3.344   5.191 -0.0812  0.0459 -0.4937
10554TIP3    H153153   3.005   3.328   5.102 -2.0773  0.8787 -0.0007
10554TIP3    H253154   2.959   3.330   5.246  0.1874  2.8627  0.7620
10555TIP3   OH253155   3.246   4.355  12.106 -0.1659 -0.2372 -0.3143
10555TIP3    H153156   3.279   4.348  12.196  0.7031 -1.4810 -0.6997
10555TIP3    H253157   3.320   4.331  12.051 -0.5597  0.9336 -1.4036
10556TIP3   OH253158   3.857   2.805  15.072 -0.5056  0.2265 -0.0969
10556TIP3    H153159   3.930   2.866  15.087 -0.9264  0.5400  0.7337
10556TIP3    H253160   3.814   2.798  15.157 -2.5233  1.4241 -0.9401
10557TIP3   OH253161   0.190   2.720   4.608 -0.2865  0.3962  0.1154
10557TIP3    H153162   0.199   2.814   4.624  1.1745  0.0033  2.0155
10557TIP3    H253163   0.116   2.694   4.662  1.8014 -0.1440  2.9383
10558TIP3   OH253164   5.964   6.268   0.261  0.1332 -0.1872 -0.3981
10558TIP3    H153165   5.947   6.185   0.306 -0.1829  0.0048 -0.1674
10558TIP3    H253166   6.038   6.248   0.203  0.9667 -0.2642  0.6674
10559TIP3   OH253167   0.287   6.413   1.371  0.2514  0.2657 -0.1953
10559TIP3    H153168   0.250   6.327   1.389  1.9062 -0.3795  0.3740
10559TIP3    H253169   0.232   6.474   1.420  0.5714 -0.7545  1.4948
10560TIP3   OH253170   2.058   1.113  16.627 -0.8055  0.3545  0.3376
10560TIP3    H153171   2.044   1.079  16.715  0.0261 -1.6509 -0.2333
10560TIP3    H253172   2.015   1.198  16.626 -0.1327  0.7892  2.9139
10561TIP3   OH253173   4.183   4.195   5.367  0.0974 -0.5193 -0.1866
10561TIP3    H153174   4.235   4.167   5.442  1.9359 -1.5259 -1.7525
10561TIP3    H253175   4.155   4.114   5.326  0.7435 -0.0330 -1.6460
10562TIP3   OH253176   3.211   1.105   3.821  0.7026  0.1305 -0.6370
10562TIP3    H153177   3.254   1.044   3.880 -1.3579 -0.6748  0.1180
10562TIP3    H253178   3.250   1.190   3.842  1.2457 -0.4151  0.6468
10563TIP3   OH253179   6.134   6.673  15.713  0.7923 -0.7506 -0.1285
10563TIP3    H153180   6.165   6.760  15.685 -0.3118  0.8573  3.2139
10563TIP3    H253181   6.047   6.665  15.673  1.5271 -1.1178 -1.7619
10564TIP3   OH253182   6.803   6.635  16.099 -0.0741 -0.3553 -0.1759
10564TIP3    H153183   6.858   6.559  16.118 -0.7270 -0.8307 -0.1266
10564TIP3    H253184   6.825   6.658  16.009  1.8574  0.9028  0.5681
10565TIP3   OH253185   6.255   2.877   0.937 -0.1853  0.0245  0.2159
10565TIP3    H153186   6.223   2.938   0.871  1.0624 -0.3975 -0.8047
10565TIP3    H253187   6.265   2.794   0.891 -0.4085 -0.5850  1.2255
10566TIP3   OH253188   1.695   5.904  13.019  0.5014 -0.2569 -0.2665
10566TIP3    H153189   1.765   5.955  13.058  0.4554 -0.6298  0.3208
10566TIP3    H253190   1.628   5.968  12.996  0.3534 -0.0655  0.6556
10567TIP3   OH253191   5.870   1.533   1.669  0.1764 -0.3827  0.4167
10567TIP3    H153192   5.935   1.572   1.728 -0.5435 -0.6703  1.4217
10567TIP3    H253193   5.856   1.600   1.601  1.0394 -0.0592  0.5432
10568TIP3   OH253194   5.000   1.933  15.437 -0.5792  0.2568 -0.4104
10568TIP3    H153195   5.029   1.990  15.365  0.2102 -1.6667 -1.6966
10568TIP3    H253196   5.074   1.873  15.450 -2.2327 -1.9668 -0.7382
10569TIP3   OH253197   0.971   2.534   5.585 -0.2345 -0.2553 -0.2835
10569TIP3    H153198   0.989   2.577   5.502 -0.5752  0.7384  0.1443
10569TIP3    H253199   1.056   2.501   5.614 -0.0005 -0.0279 -0.7002
10570TIP3   OH253200   0.609   1.557  15.142 -0.3421  0.3546  0.9947
10570TIP3    H153201   0.660   1.611  15.202  0.1784  0.0496  0.8329
10570TIP3    H253202   0.653   1.473  15.142  0.0250  0.5252 -0.2702
10571TIP3   OH253203   2.708   5.532   0.179 -0.6787  0.0119  0.1192
10571TIP3    H153204   2.775   5.521   0.110  0.0399  0.0274  0.8015
10571TIP3    H253205   2.752   5.503   0.259 -1.3685  0.4104  0.6456
10572TIP3   OH253206   0.082   2.994  13.461 -0.3023  0.0999  0.2306
10572TIP3    H153207   0.165   3.030  13.493 -0.7892 -0.2091  1.8952
10572TIP3    H253208   0.045   3.064  13.407  0.2408  0.9001  0.8750
10573TIP3   OH253209   2.199   6.494   2.556  0.1201  0.5422  0.0645
10573TIP3    H153210   2.250   6.433   2.502  0.1262  1.9952 -1.6904
10573TIP3    H253211   2.248   6.500   2.638  0.6890 -0.9608 -0.1194
10574TIP3   OH253212   4.832   1.879   1.394  0.1594 -0.2216 -0.1259
10574TIP3    H153213   4.783   1.865   1.475 -0.8651 -0.7112 -0.8057
10574TIP3    H253214   4.885   1.957   1.411  0.7170 -0.8924  1.3514
10575TIP3   OH253215   5.401   4.609   3.440 -0.3931  0.0882  0.1071
10575TIP3    H153216   5.447   4.525   3.445  0.4179  0.4877 -0.4127
10575TIP3    H253217   5.345   4.610   3.517 -0.5084 -0.9836  0.0579
10576TIP3   OH253218   1.876   2.065   2.403  0.4722 -0.4419 -0.1780
10576TIP3    H153219   1.869   2.116   2.322 -1.2934 -0.0118  0.2043
10576TIP3    H253220   1.915   2.126   2.466 -3.9870  1.5624  1.0176
10577TIP3   OH253221   0.951   2.489  16.450 -0.4812  0.2286  0.4469
10577TIP3    H153222   0.940   2.410  16.397  0.1677  0.0615  0.5569
10577TIP3    H253223   0.894   2.554  16.409 -2.2003 -0.7183  1.2261
10578TIP3   OH253224   5.997   1.903   5.162  0.1009  0.2323 -0.1007
10578TIP3    H153225   5.914   1.945   5.186 -0.6583 -0.0778 -2.0544
10578TIP3    H253226   5.987   1.812   5.190 -0.8903 -0.1972 -1.7601
10579TIP3   OH253227   5.950   0.555   4.640  0.1248  0.1269  0.0376
10579TIP3    H153228   5.922   0.532   4.552  1.8264 -0.2250 -0.4415
10579TIP3    H253229   6.043   0.535   4.642  0.2001  0.4716  1.8095
10580TIP3   OH253230   1.608   3.492   6.533 -0.2632  0.0178 -0.6384
10580TIP3    H153231   1.539   3.425   6.532 -2.1459  1.8062  0.2217
10580TIP3    H253232   1.689   3.443   6.543 -1.6496 -2.0974  1.3765
10581TIP3   OH253233   2.407   3.290   4.269 -0.0784 -0.0106  0.1040
10581TIP3    H153234   2.452   3.373   4.257 -0.1380 -0.0496 -0.4044
10581TIP3    H253235   2.396   3.282   4.364  0.1264  0.4521  0.1682
10582TIP3   OH253236   1.198   0.141   2.621 -0.6149  0.2601 -0.5538
10582TIP3    H153237   1.260   0.075   2.589  0.2577  0.2950  0.9726
10582TIP3    H253238   1.253   0.207   2.662 -1.6715 -0.2934  1.8845
10583TIP3   OH253239   3.122   1.621  13.510  0.0814 -0.3423 -0.3621
10583TIP3    H153240   3.185   1.637  13.580 -0.2274  1.8144 -0.5276
10583TIP3    H253241   3.176   1.609  13.432  0.3348  0.2833 -0.2885
10584TIP3   OH253242   1.409   6.006  13.566 -0.3375 -1.0870 -0.1964
10584TIP3    H153243   1.458   5.985  13.645 -2.1901 -1.5484  0.8788
10584TIP3    H253244   1.386   5.920  13.529 -0.9471 -0.8986 -0.2707
10585TIP3   OH253245   5.870   6.253   4.921 -0.5928  0.1998  0.6114
10585TIP3    H153246   5.900   6.235   4.832  0.6769  1.0892  0.8423
10585TIP3    H253247   5.774   6.244   4.916 -0.4267 -1.4169 -0.4362
10586TIP3   OH253248   6.333   4.990   2.972 -0.3593 -0.4502 -0.4004
10586TIP3    H153249   6.298   4.907   2.939 -1.0205 -0.1602 -0.4552
10586TIP3    H253250   6.263   5.053   2.955 -0.3468 -0.1182  0.7463
10587TIP3   OH253251   1.031   0.327  12.729 -0.0156 -0.4353 -0.1312
10587TIP3    H153252   1.055   0.356  12.642  0.3380 -1.3955 -0.3673
10587TIP3    H253253   1.025   0.231  12.722  1.3317 -0.6555  1.2091
10588TIP3   OH253254   0.099   4.834  14.836 -0.5781  0.1502  0.2935
10588TIP3    H153255   0.042   4.887  14.781  1.5708  1.4541 -0.8311
10588TIP3    H253256   0.131   4.765  14.777  1.4819  1.3602 -0.0962
10589TIP3   OH253257   5.414   3.352   5.694  0.0972 -0.0192 -0.1828
10589TIP3    H153258   5.474   3.415   5.652 -0.0615 -1.3217 -2.5704
10589TIP3    H253259   5.327   3.379   5.664 -0.0386 -0.8608 -0.5794
10590TIP3   OH253260   6.519   2.654   3.846 -0.3264 -0.7424  0.3200
10590TIP3    H153261   6.579   2.582   3.867  0.8551  0.7162  2.2693
10590TIP3    H253262   6.526   2.714   3.920  0.1077  2.2563 -1.9562
10591TIP3   OH253263   6.780   2.640   3.003 -0.6282 -0.2953  0.4081
10591TIP3    H153264   6.767   2.683   2.919 -2.8471 -0.9488  0.3572
10591TIP3    H253265   6.870   2.607   3.000 -0.0285  1.3345 -0.9025
10592TIP3   OH253266   5.722   2.356  13.342  0.0527 -0.2188  0.3247
10592TIP3    H153267   5.799   2.299  13.347  0.1082 -0.0856  1.2571
10592TIP3    H253268   5.758   2.443  13.326  0.0434 -0.2802 -0.0253
10593TIP3   OH253269   2.448   3.355  12.068 -1.0457 -0.0994  1.0698
10593TIP3    H153270   2.461   3.308  11.986  3.3937  3.0716 -0.4510
10593TIP3    H253271   2.375   3.415  12.051  0.6345  1.4408 -1.2494
10594TIP3   OH253272   2.195   2.450  14.698  0.5042 -0.5661  0.0937
10594TIP3    H153273   2.203   2.478  14.789  0.9549  0.9086 -0.3683
10594TIP3    H253274   2.236   2.520  14.648 -0.3964 -0.9980 -1.3058
10595TIP3   OH253275   0.812   6.269   5.148 -0.1501  0.2082  0.2472
10595TIP3    H153276   0.779   6.182   5.168 -3.1613  1.0554 -0.5405
10595TIP3    H253277   0.786   6.322   5.223 -1.0034  0.9866 -0.5711
10596TIP3   OH253278   3.348   1.037   1.666 -0.0327 -0.2058  0.0936
10596TIP3    H153279   3.432   1.030   1.620 -0.3120  0.2296 -0.4991
10596TIP3    H253280   3.346   1.128   1.697  0.2262 -0.5418  1.1227
10597TIP3   OH253281   0.846   4.896  16.728  0.0500 -0.1163  0.1546
10597TIP3    H153282   0.850   4.801  16.723 -1.5285 -0.2257  0.3613
10597TIP3    H253283   0.781   4.921  16.662 -0.2633  0.7297  0.7566
10598TIP3   OH253284   0.905   1.240  12.166 -0.4673  0.6815  0.4493
10598TIP3    H153285   0.915   1.164  12.223  1.6178  0.1381 -0.5184
10598TIP3    H253286   0.822   1.226  12.120 -1.0727  0.0171  1.7100
10599TIP3   OH253287   3.636   2.863  13.530  0.1779  0.0387 -0.1484
10599TIP3    H153288   3.640   2.951  13.568 -1.0167 -0.0374  0.1957
10599TIP3    H253289   3.636   2.804  13.605  2.0447 -0.3465 -0.3892
10600TIP3   OH253290   2.154   5.249  10.618  0.6488 -0.3135  0.1183
10600TIP3    H153291   2.156   5.339  10.649  1.6901 -0.6167  0.9758
10600TIP3    H253292   2.082   5.208  10.667  0.4148 -0.0554 -0.0055
10601TIP3   OH253293   2.210   4.668   1.200 -0.0628 -0.2010 -0.2420
10601TIP3    H153294   2.147   4.739   1.216 -1.4392 -0.9924 -1.8423
10601TIP3    H253295   2.278   4.682   1.265 -0.1894  2.6925 -0.5830
10602TIP3   OH253296   5.779   0.058   2.515 -0.1052  0.3775  0.2138
10602TIP3    H153297   5.810   0.109   2.590  1.5425 -0.1118 -0.0979
10602TIP3    H253298   5.704   0.009   2.548  2.3010 -2.1192  2.5010
10603TIP3   OH253299   6.007   5.344   5.677  0.5355  0.1767  0.0222
10603TIP3    H153300   6.023   5.380   5.765 -1.1701 -1.9146  1.2825
10603TIP3    H253301   6.092   5.310   5.649  1.3838  1.9292  0.2708
10604TIP3   OH253302   2.113   2.667   2.114 -0.1788  0.2106 -0.4892
10604TIP3    H153303   2.176   2.719   2.063  0.4061  0.1009  0.1088
10604TIP3    H253304   2.033   2.718   2.114 -0.0423  0.4333 -1.1241
10605TIP3   OH253305   2.983   1.738   4.826 -0.0855 -0.5190 -0.2623
10605TIP3    H153306   3.002   1.712   4.736 -2.6526  3.5240 -2.2772
10605TIP3    H253307   2.903   1.690   4.847  0.9243 -2.0521  0.2845
10606TIP3   OH253308   6.828   4.942  14.352 -0.0907  0.2532  0.2295
10606TIP3    H153309   6.802   4.850  14.351  1.3369 -0.1867  0.7156
10606TIP3    H253310   6.829   4.968  14.260  0.9883 -0.6845 -0.0407
10607TIP3   OH253311   0.068   5.323   1.824  0.4837  0.5991  0.0228
10607TIP3    H153312   0.125   5.260   1.779 -1.6715  0.0233 -2.1207
10607TIP3    H253313   0.041   5.278   1.904 -2.1221 -1.9917 -2.0862
10608TIP3   OH253314   5.831   4.516  14.377 -0.6209 -0.1378 -0.2686
10608TIP3    H153315   5.857   4.560  14.458 -0.7385 -0.5653  0.0054
10608TIP3    H253316   5.886   4.439  14.373 -1.5551 -0.8454  0.1140
10609TIP3   OH253317   3.376   1.427  11.051  0.0368  0.3580 -0.2236
10609TIP3    H153318   3.352   1.494  11.115 -0.9346 -0.5387  0.3894
10609TIP3    H253319   3.296   1.377  11.038  1.2284 -2.0388  0.9983
10610TIP3   OH253320   2.423   3.160   3.194 -0.2029 -0.4705 -0.5905
10610TIP3    H153321   2.423   3.107   3.274 -1.4293 -0.7461 -0.7565
10610TIP3    H253322   2.467   3.105   3.129  0.0162 -0.6031 -0.3313
10611TIP3   OH253323   2.131   1.302   3.386 -0.2389 -1.0071 -0.1038
10611TIP3    H153324   2.207   1.348   3.351 -0.9517  1.4534  1.3201
10611TIP3    H253325   2.127   1.327   3.478 -3.4208  0.0334 -0.3703
10612TIP3   OH253326   2.597   4.293   5.496  0.3208 -0.5212 -0.4214
10612TIP3    H153327   2.619   4.240   5.572 -0.8676 -1.6179 -0.8033
10612TIP3    H253328   2.581   4.381   5.531 -0.4924 -1.0767  0.6406
10613TIP3   OH253329   2.784   4.385   2.423  0.3588  0.1320 -0.2322
10613TIP3    H153330   2.793   4.319   2.492 -0.2197  1.1307  0.8431
10613TIP3    H253331   2.691   4.384   2.401  0.3817  0.4587 -0.3503
10614TIP3   OH253332   0.359   0.224  11.407 -0.8635  0.3570  0.6340
10614TIP3    H153333   0.327   0.310  11.437  0.7907  1.7984 -1.4175
10614TIP3    H253334   0.349   0.228  11.312  0.3381 -1.2728  0.4130
10615TIP3   OH253335   0.310   3.784  14.698  0.0270  0.0647 -0.5754
10615TIP3    H153336   0.300   3.867  14.653  0.5993  0.9879  0.9224
10615TIP3    H253337   0.297   3.718  14.630 -0.6895  1.3595 -1.7435
10616TIP3   OH253338   5.914   1.723   2.454  0.0070  0.5496  0.5737
10616TIP3    H153339   5.927   1.628   2.452 -0.0033  0.5502  0.4611
10616TIP3    H253340   5.874   1.743   2.369  0.6818  0.7560  0.3060
10617TIP3   OH253341   0.811   0.572  16.446  0.6851 -0.2527 -0.0069
10617TIP3    H153342   0.752   0.627  16.394 -0.1722 -2.6259 -1.7609
10617TIP3    H253343   0.752   0.509  16.488  1.7166 -0.6276  0.9113
10618TIP3   OH253344   1.465   0.077   0.500 -0.7794 -0.1853 -0.8689
10618TIP3    H153345   1.455  -0.014   0.526 -0.2997  0.2042  0.8119
10618TIP3    H253346   1.376   0.110   0.490 -0.9847 -0.4467  0.0345
10619TIP3   OH253347   1.033   6.770  12.983  0.4986 -0.3479  0.2503
10619TIP3    H153348   0.968   6.703  13.003  1.5868 -1.5032  0.0383
10619TIP3    H253349   1.117   6.731  13.009  1.4198  0.0636 -1.9165
10620TIP3   OH253350   6.804   3.566   4.360  0.1837  0.5254 -0.2086
10620TIP3    H153351   6.782   3.633   4.296  1.0152  0.3186 -0.7223
10620TIP3    H253352   6.829   3.490   4.308 -1.1519 -0.3507  0.3596
10621TIP3   OH253353   4.710   5.286   3.108  0.7270  0.2270  0.7390
10621TIP3    H153354   4.787   5.229   3.110  0.8229  0.3785  1.7869
10621TIP3    H253355   4.744   5.373   3.127  0.2479  0.2349  1.5847
10622TIP3   OH253356   3.368   1.974  11.347  0.4618 -0.4238  0.4672
10622TIP3    H153357   3.328   2.057  11.372  1.1776 -0.3806  1.5419
10622TIP3    H253358   3.327   1.951  11.264  1.6016  1.9453 -0.8464
10623TIP3   OH253359   1.620   1.459  14.010 -0.2636 -0.0889  0.2238
10623TIP3    H153360   1.714   1.474  14.014 -0.2694 -0.2243  1.0034
10623TIP3    H253361   1.592   1.455  14.102 -0.9691 -0.4321  0.0021
10624TIP3   OH253362   6.036   6.766  16.869  0.9366  0.5936  0.4641
10624TIP3    H153363   6.008   6.691  16.922 -0.5142  1.8164  1.5097
10624TIP3    H253364   5.971   6.771  16.799 -0.1862  2.0362  1.5542
10625TIP3   OH253365   3.085   1.157   5.362  0.8033 -0.1481 -0.1132
10625TIP3    H153366   3.092   1.250   5.383 -1.3596 -0.3640  2.0354
10625TIP3    H253367   3.002   1.150   5.314  0.9490 -0.9439 -0.2523
10626TIP3   OH253368   3.102   3.972  16.464  0.2644  0.0101 -0.3134
10626TIP3    H153369   3.054   4.003  16.387  0.8785 -0.5957 -0.9526
10626TIP3    H253370   3.194   3.973  16.438  0.8686  2.9099  1.4845
10627TIP3   OH253371   2.318   1.677   4.811 -0.3286 -0.4421 -0.4565
10627TIP3    H153372   2.403   1.648   4.845  0.0976  0.4177 -0.7572
10627TIP3    H253373   2.323   1.659   4.717 -1.2189 -2.1189 -0.2375
10628TIP3   OH253374   5.472   1.692   2.161 -0.3004  0.2536  0.8671
10628TIP3    H153375   5.500   1.693   2.069 -0.6551  1.6550  0.7594
10628TIP3    H253376   5.389   1.741   2.162  0.0805  0.9127  2.0551
10629TIP3   OH253377   3.019   0.362  13.597  0.5089 -0.4226  0.1081
10629TIP3    H153378   2.968   0.285  13.572  0.1687 -0.4796  0.9416
10629TIP3    H253379   2.964   0.436  13.572 -0.5701 -0.4882  2.0879
10630TIP3   OH253380   0.631   4.726  14.687 -0.0095 -0.3371 -0.0670
10630TIP3    H153381   0.716   4.709  14.647  0.1142  2.6874 -1.3929
10630TIP3    H253382   0.579   4.767  14.618 -2.3938 -1.5375  0.8885
10631TIP3   OH253383   0.777   5.852   1.030 -0.0938 -0.4062 -0.4524
10631TIP3    H153384   0.789   5.778   1.089 -0.3847 -1.1362 -1.2875
10631TIP3    H253385   0.807   5.928   1.080 -1.5385 -0.8079  1.1086
10632TIP3   OH253386   2.999   3.444  14.937  0.5492  0.0126 -0.5257
10632TIP3    H153387   2.922   3.500  14.946 -0.3771 -1.5533  2.6241
10632TIP3    H253388   2.967   3.366  14.891  0.1865 -0.6785  0.8660
10633TIP3   OH253389   4.228   5.163  12.086  0.2078  0.2984 -0.2121
10633TIP3    H153390   4.303   5.154  12.027  1.1341  0.5392  0.8932
10633TIP3    H253391   4.258   5.126  12.169 -0.4628  1.5261  0.6081
10634TIP3   OH253392   3.891   4.569  13.678 -0.3364  0.0294  1.0319
10634TIP3    H153393   3.970   4.515  13.686  0.4628  1.1125  0.6773
10634TIP3    H253394   3.923   4.653  13.645 -1.8823 -0.1298 -1.0549
10635TIP3   OH253395   2.607   0.649  10.660  0.5134 -0.0354  0.3938
10635TIP3    H153396   2.581   0.562  10.631  1.2540 -0.9029  2.2173
10635TIP3    H253397   2.525   0.691  10.686 -0.3906  1.2414 -3.8141
10636TIP3   OH253398   6.548   5.394  14.547  0.9191  0.5808  0.3699
10636TIP3    H153399   6.543   5.298  14.547 -0.5612  0.6301  1.3891
10636TIP3    H253400   6.527   5.419  14.457 -0.7594  0.0014  0.5760
10637TIP3   OH253401   0.575   2.975   4.815 -0.2891  0.0944 -0.7607
10637TIP3    H153402   0.588   3.069   4.822  0.9665  0.0081 -1.4467
10637TIP3    H253403   0.651   2.937   4.859 -1.1027 -0.6143  0.0582
10638TIP3   OH253404   2.025   5.032  11.065  0.5956 -0.2773  0.5687
10638TIP3    H153405   2.030   4.981  10.984 -1.1996 -1.2781  1.0413
10638TIP3    H253406   1.951   4.995  11.112  0.8127  1.1366  2.1012
10639TIP3   OH253407   4.436   4.731  15.845  0.9785 -0.4271  0.2927
10639TIP3    H153408   4.355   4.691  15.876 -1.2351  3.9061  0.8737
10639TIP3    H253409   4.421   4.745  15.751  0.1400  1.9677  0.7178
10640TIP3   OH253410   2.695   2.203  13.990 -0.2784 -0.2569  0.2893
10640TIP3    H153411   2.728   2.268  13.928  0.5848 -0.2354  0.7506
10640TIP3    H253412   2.623   2.247  14.035 -0.7648 -0.1992 -0.5315
10641TIP3   OH253413   4.464   1.133  13.347  0.6175 -0.1849 -0.3744
10641TIP3    H153414   4.547   1.133  13.395 -0.5485 -0.8617  1.7696
10641TIP3    H253415   4.443   1.041  13.336 -0.9130 -0.0597  1.1453
10642TIP3   OH253416   2.737   5.276   0.305 -0.0779 -0.4524  0.2582
10642TIP3    H153417   2.776   5.198   0.346  1.1098  0.0427  0.1078
10642TIP3    H253418   2.664   5.241   0.253  1.3573 -1.7077 -1.0553
10643TIP3   OH253419   1.798   1.819   1.197  0.4947 -0.2470  0.0653
10643TIP3    H153420   1.798   1.820   1.101  2.9751 -0.1127 -0.0004
10643TIP3    H253421   1.869   1.879   1.222  1.7456 -2.3123  1.8837
10644TIP3   OH253422   3.496   1.060   3.248  0.2349 -0.5627  0.0040
10644TIP3    H153423   3.530   0.986   3.298 -0.4070 -0.8963 -0.0430
10644TIP3    H253424   3.428   1.022   3.193  0.3618 -0.0531 -0.5192
10645TIP3   OH253425   2.622   4.015   1.241  0.1582  0.2378  0.1230
10645TIP3    H153426   2.546   4.070   1.226 -0.2460 -0.3176  0.1029
10645TIP3    H253427   2.666   4.054   1.316  1.3854  2.1811 -1.5319
10646TIP3   OH253428   2.823   0.015  16.420 -0.5482 -0.3264  0.7145
10646TIP3    H153429   2.796   0.103  16.445  1.2543  0.5070 -0.1248
10646TIP3    H253430   2.756  -0.013  16.357  0.0113  1.3701 -0.7236
10647TIP3   OH253431   0.565   6.455   1.374  0.1702  0.5727  0.0190
10647TIP3    H153432   0.559   6.543   1.337  0.4727  0.4095 -0.4382
10647TIP3    H253433   0.476   6.420   1.368 -0.3502  1.4543  1.8054
10648TIP3   OH253434   0.721   4.078   2.973 -0.3473 -0.5545  0.2105
10648TIP3    H153435   0.715   4.173   2.977  0.0797 -0.4312 -1.4048
10648TIP3    H253436   0.652   4.047   3.032 -0.4987  0.7443  0.7460
10649TIP3   OH253437   6.834   6.807  12.192  0.2763  0.1628 -0.2884
10649TIP3    H153438   6.836   6.760  12.109  1.0434  1.5873 -1.1102
10649TIP3    H253439   6.759   6.866  12.184  1.2193  1.3585 -0.5998
10650TIP3   OH253440   2.066   3.056   2.555  0.2195 -0.1868  0.2082
10650TIP3    H153441   2.066   3.127   2.491  1.9690  0.2903  0.7017
10650TIP3    H253442   2.021   3.092   2.631 -2.3856 -0.9389 -0.8536
10651TIP3   OH253443   4.950   2.396  12.964 -0.3398 -0.8054 -0.4106
10651TIP3    H153444   5.032   2.415  12.918  0.5974 -1.0117  1.0860
10651TIP3    H253445   4.954   2.451  13.043 -1.1489 -1.5827  0.1915
10652TIP3   OH253446   4.581   5.361  11.284 -0.0445 -0.2682 -0.0710
10652TIP3    H153447   4.650   5.302  11.253  1.3822  0.7207  1.0921
10652TIP3    H253448   4.560   5.415  11.207 -1.6624 -2.4149 -1.2788
10653TIP3   OH253449   6.098   3.662   4.922 -0.2199 -0.1825 -0.3786
10653TIP3    H153450   6.052   3.720   4.861  1.2993  0.6736 -0.7743
10653TIP3    H253451   6.185   3.701   4.930 -0.5024  0.0491  2.7764
10654TIP3   OH253452   4.888   0.405   2.290  0.3297  0.2137  0.4895
10654TIP3    H153453   4.936   0.450   2.220 -0.9128  1.5258  0.4249
10654TIP3    H253454   4.814   0.364   2.245  0.6559 -0.6887  0.7631
10655TIP3   OH253455   0.529   2.713   3.953 -0.4619  0.1447  0.1718
10655TIP3    H153456   0.483   2.651   3.897 -1.2097  1.1256 -0.3278
10655TIP3    H253457   0.577   2.658   4.015 -0.7617 -0.9317 -0.5226
10656TIP3   OH253458   1.492   0.779   2.172 -0.5064  0.1198  0.0167
10656TIP3    H153459   1.400   0.779   2.146 -0.7852  0.3682  0.9652
10656TIP3    H253460   1.506   0.694   2.215  0.2044 -0.6988 -1.7504
10657TIP3   OH253461   6.731   6.083  13.158 -0.1683 -0.2784 -0.2907
10657TIP3    H153462   6.671   6.156  13.143 -0.2586  0.3028  2.4119
10657TIP3    H253463   6.818   6.119  13.141 -0.2778  0.2480  0.2329
10658TIP3   OH253464   6.323   5.755  15.380 -0.1830  0.1305 -0.2453
10658TIP3    H153465   6.373   5.778  15.458  0.1305  1.1539 -0.7291
10658TIP3    H253466   6.232   5.771  15.403 -0.3118 -1.5509  0.5767
10659TIP3   OH253467   1.566   6.351   0.170 -0.2323  0.0728  0.3217
10659TIP3    H153468   1.493   6.291   0.154  0.6534 -0.5095 -1.8399
10659TIP3    H253469   1.559   6.416   0.100  0.4412  0.9048  1.0079
10660TIP3   OH253470   6.037   2.684  14.822  0.0704 -0.0883 -0.1908
10660TIP3    H153471   5.965   2.746  14.836  0.1014  0.6800 -2.8637
10660TIP3    H253472   6.115   2.731  14.849 -0.1771 -0.0602  0.5064
10661TIP3   OH253473   6.067   5.886   1.047  0.0364 -0.5662 -0.7253
10661TIP3    H153474   5.992   5.830   1.067 -0.8959 -0.0043 -2.4508
10661TIP3    H253475   6.132   5.826   1.009  0.9557 -1.2395  1.6791
10662TIP3   OH253476   1.168   1.738   5.930 -0.0338 -0.2721 -0.3710
10662TIP3    H153477   1.171   1.684   6.009 -1.0536  1.5047  0.9751
10662TIP3    H253478   1.181   1.827   5.962 -1.9860  0.6765 -1.9869
10663TIP3   OH253479   6.692   6.626  13.076  0.2025  0.2090 -1.0439
10663TIP3    H153480   6.785   6.649  13.073  0.0514  0.9317 -0.4586
10663TIP3    H253481   6.686   6.555  13.140  0.0711  1.7215  0.7227
10664TIP3   OH253482   5.344   4.971  15.678 -0.2696 -0.1457  0.4430
10664TIP3    H153483   5.270   4.978  15.739 -1.0497 -0.0034 -0.4813
10664TIP3    H253484   5.307   4.996  15.593  1.1172  0.9815  0.1346
10665TIP3   OH253485   5.213   4.846  15.911  0.5053  0.1517  0.2523
10665TIP3    H153486   5.231   4.763  15.868  0.6321  0.6165 -0.6132
10665TIP3    H253487   5.252   4.837  15.998  0.8143 -0.5642  0.0490
10666TIP3   OH253488   4.491   6.783   3.547  0.0978  0.4006 -0.1514
10666TIP3    H153489   4.454   6.868   3.572  0.7346 -0.0510  2.5664
10666TIP3    H253490   4.415   6.728   3.530 -0.3841  1.8997 -4.0065
10667TIP3   OH253491   6.590   1.960   0.180 -0.1391  0.5765 -0.1492
10667TIP3    H153492   6.651   1.985   0.110  2.4181 -2.5818  0.6953
10667TIP3    H253493   6.604   2.026   0.248  0.7194  1.1412 -0.8420
10668TIP3   OH253494   2.340   0.857   3.960  0.6899 -0.3392  0.1836
10668TIP3    H153495   2.405   0.824   3.898  1.8513  1.0058  0.6498
10668TIP3    H253496   2.310   0.779   4.007 -2.0158 -1.8812 -3.5752
10669TIP3   OH253497   6.257   1.757  11.607  0.3617 -0.0925  0.1231
10669TIP3    H153498   6.181   1.725  11.656 -0.4741 -1.3073 -1.8623
10669TIP3    H253499   6.331   1.736  11.663 -0.2829 -3.9663 -0.1487
10670TIP3   OH253500   0.475   4.519  16.248  0.3434  0.2878  0.0372
10670TIP3    H153501   0.444   4.429  16.259 -0.2705  0.5049  0.1155
10670TIP3    H253502   0.509   4.522  16.158  1.9957 -0.4924  0.5932
10671TIP3   OH253503   3.562   2.533  16.857  0.1402 -0.1151  0.6711
10671TIP3    H153504   3.490   2.492  16.809  0.6938 -0.2251 -0.0820
10671TIP3    H253505   3.600   2.595  16.795  0.4674  0.2058  1.1847
10672TIP3   OH253506   4.925   5.160  14.845 -0.3075  0.4146  0.3441
10672TIP3    H153507   4.907   5.160  14.939  2.3087  3.0397  0.9776
10672TIP3    H253508   4.875   5.234  14.810 -1.2618 -0.5395 -0.3916
10673TIP3   OH253509   6.574   0.143  11.261 -0.2091 -0.4382 -0.3989
10673TIP3    H153510   6.540   0.222  11.303  0.8391 -0.5916  0.8039
10673TIP3    H253511   6.669   0.155  11.259 -0.2272  0.1949 -4.1513
10674TIP3   OH253512   4.359   4.107   3.208  0.3205 -0.2255 -0.2688
10674TIP3    H153513   4.272   4.144   3.226 -0.1721 -0.7564 -1.4545
10674TIP3    H253514   4.356   4.019   3.244  0.3165 -0.2925 -0.4321
10675TIP3   OH253515   6.733   2.375  12.810  0.6478  0.9479 -0.4518
10675TIP3    H153516   6.644   2.350  12.835  0.3310  1.5706 -0.9458
10675TIP3    H253517   6.746   2.336  12.724  0.8686  0.8260 -0.3640
10676TIP3   OH253518   3.438   1.859  16.998 -0.2404 -0.0977 -0.1954
10676TIP3    H153519   3.357   1.821  17.032 -0.6717  2.2222  1.5958
10676TIP3    H253520   3.409   1.927  16.938  0.2697  1.5207  1.3149
10677TIP3   OH253521   5.954   3.609  13.449  0.1444 -0.3891 -0.0795
10677TIP3    H153522   5.995   3.640  13.368 -0.7406  0.3906 -0.2504
10677TIP3    H253523   5.915   3.525  13.426  1.6303 -1.1650  0.0962
10678TIP3   OH253524   4.851   3.153  16.458 -0.1505  0.1631  0.0195
10678TIP3    H153525   4.907   3.077  16.478 -3.0006 -1.8763  0.9242
10678TIP3    H253526   4.827   3.141  16.366  1.6317  1.6721 -0.7229
10679TIP3   OH253527   5.625   2.083   2.891  0.3262  0.4061 -0.0503
10679TIP3    H153528   5.569   2.005   2.885 -0.3476  0.9852 -1.6320
10679TIP3    H253529   5.644   2.091   2.985 -2.0388  0.0474  0.5174
10680TIP3   OH253530   2.571   4.842   2.964  0.2462 -0.0248  0.1554
10680TIP3    H153531   2.509   4.792   2.912  0.8901 -0.7613  0.0849
10680TIP3    H253532   2.529   4.928   2.974 -0.9661 -0.6280  0.4757
10681TIP3   OH253533   3.100   4.443  11.909  0.6647 -0.2632 -0.6377
10681TIP3    H153534   3.066   4.530  11.929 -1.7134 -1.1720 -0.4088
10681TIP3    H253535   3.129   4.408  11.993  0.2512 -0.2507 -0.4915
10682TIP3   OH253536   6.143   3.996  14.012 -0.1202  0.3502 -0.1696
10682TIP3    H153537   6.219   4.052  13.998  0.4642 -0.0499  1.2088
10682TIP3    H253538   6.134   3.992  14.107 -2.5234  1.2501 -0.2901
10683TIP3   OH253539   2.221   4.393   5.934  0.1220 -0.3455 -0.2757
10683TIP3    H153540   2.149   4.339   5.903 -0.6188  0.4091  0.0928
10683TIP3    H253541   2.218   4.385   6.029  0.3674 -0.1095 -0.2468
10684TIP3   OH253542   0.372   4.202  11.940 -0.3901  1.2483  0.5356
10684TIP3    H153543   0.459   4.241  11.934  0.0770  0.0387 -3.2086
10684TIP3    H253544   0.385   4.120  11.987  0.9306  0.3071 -1.3361
10685TIP3   OH253545   5.109   6.805   1.516  0.0088  0.1547  0.0420
10685TIP3    H153546   5.197   6.805   1.555  0.3510 -2.2164 -0.5803
10685TIP3    H253547   5.093   6.896   1.493  2.0597  0.7387  0.7101
10686TIP3   OH253548   3.289   3.294  13.520 -0.1936  0.0997  0.1529
10686TIP3    H153549   3.299   3.213  13.570  2.0752  0.7601  0.8910
10686TIP3    H253550   3.197   3.294  13.493 -0.5592 -2.1079  1.1498
10687TIP3   OH253551   4.225   2.931  11.536 -0.2992  0.1217 -0.3209
10687TIP3    H153552   4.282   2.889  11.471 -0.7462  0.6856 -1.1086
10687TIP3    H253553   4.246   2.888  11.618  1.6516  0.6868 -0.4710
10688TIP3   OH253554   1.807   0.451   5.531  0.1049  0.1177  0.1718
10688TIP3    H153555   1.796   0.377   5.471 -0.4321  0.7655 -0.5388
10688TIP3    H253556   1.902   0.457   5.543  0.1561 -0.6860  0.2363
10689TIP3   OH253557   4.684   5.753  15.830  0.4842  0.4269  0.0917
10689TIP3    H153558   4.638   5.837  15.828  1.2613  0.8935  0.8439
10689TIP3    H253559   4.689   5.726  15.738 -1.2293  0.3760 -0.0161
10690TIP3   OH253560   5.966   5.019  15.334 -0.2830 -0.2678  0.4933
10690TIP3    H153561   6.050   5.063  15.346 -0.5675  0.2128  0.7267
10690TIP3    H253562   5.929   5.012  15.422 -1.3007  1.1308  0.2040
10691TIP3   OH253563   4.038   5.864   5.289  0.0668 -0.1096 -0.3998
10691TIP3    H153564   4.027   5.934   5.225  0.7071  0.4638  0.1054
10691TIP3    H253565   4.123   5.825   5.268  0.5897  0.5135  0.4912
10692TIP3   OH253566   0.432   6.805  13.619  0.3256  0.2070 -0.0255
10692TIP3    H153567   0.475   6.813  13.534 -0.5561  2.6230 -0.3271
10692TIP3    H253568   0.473   6.872  13.673  1.9577 -2.2869  2.0444
10693TIP3   OH253569   6.274   5.276  15.819 -0.3176 -0.2532  0.2228
10693TIP3    H153570   6.285   5.209  15.887  1.1162 -0.4502 -0.1723
10693TIP3    H253571   6.301   5.232  15.738 -1.9107  0.0126 -0.4858
10694TIP3   OH253572   0.597   0.100   3.149 -0.0427  0.1614 -0.5607
10694TIP3    H153573   0.505   0.104   3.120  0.0897 -0.5277 -1.1061
10694TIP3    H253574   0.628   0.015   3.118  0.1923 -0.5147  1.3807
10695TIP3   OH253575   6.577   3.716  15.889  0.2763  0.6711 -0.0033
10695TIP3    H153576   6.495   3.674  15.917 -0.1259  1.3250 -0.1863
10695TIP3    H253577   6.609   3.660  15.818 -1.0598  1.4963 -1.3015
10696TIP3   OH253578   4.355   6.760   0.111  0.4198  0.8574 -0.2066
10696TIP3    H153579   4.384   6.800   0.193 -1.2989 -1.1963  1.5190
10696TIP3    H253580   4.435   6.749   0.060  1.4837  2.5193  1.0250
10697TIP3   OH253581   4.204   3.259  13.644  0.0682  0.5166 -0.1272
10697TIP3    H153582   4.125   3.211  13.618  1.0137 -0.1505 -2.0002
10697TIP3    H253583   4.176   3.350  13.651 -0.7770  0.3678 -1.2977
10698TIP3   OH253584   3.745   5.969  11.977 -0.2471 -0.1347  0.7992
10698TIP3    H153585   3.654   5.940  11.968 -1.0707  2.0009  1.6996
10698TIP3    H253586   3.779   5.917  12.050 -0.0568 -2.3659 -0.7626
10699TIP3   OH253587   6.298   6.591   2.447  0.2244  0.5058 -0.3408
10699TIP3    H153588   6.238   6.517   2.459  1.0357 -0.1391 -0.1619
10699TIP3    H253589   6.241   6.668   2.440 -0.7033 -0.2637 -1.7299
10700TIP3   OH253590   4.996   4.677  15.831  0.5687 -0.0701  0.0752
10700TIP3    H153591   5.077   4.645  15.792  0.2426 -0.5213 -0.2498
10700TIP3    H253592   4.945   4.709  15.757  0.6357  0.6460  0.3299
10701TIP3   OH253593   3.515   1.258   2.783  0.9001  0.1978  0.5435
10701TIP3    H153594   3.577   1.235   2.853 -0.3162 -1.6322  1.1121
10701TIP3    H253595   3.551   1.216   2.705  0.4151 -0.8811  0.8773
10702TIP3   OH253596   2.956   0.021  17.037  0.4762 -0.2031  0.1229
10702TIP3    H153597   2.874  -0.007  16.998  1.3640  0.1311 -2.1130
10702TIP3    H253598   2.949   0.116  17.043  1.1133 -0.0625 -1.1418
10703TIP3   OH253599   0.978   0.527  10.828 -0.0357 -0.1707  0.6134
10703TIP3    H153600   0.962   0.460  10.761  0.9802 -0.7470  0.9359
10703TIP3    H253601   1.029   0.594  10.783  2.1646 -1.3701  1.2075
10704TIP3   OH253602   0.651   2.059   3.469 -0.6142  0.5102  0.1406
10704TIP3    H153603   0.734   2.045   3.515 -1.2313 -0.3639  1.0408
10704TIP3    H253604   0.672   2.045   3.377  0.1856 -0.0036  0.3904
10705TIP3   OH253605   4.109   5.807   1.263 -0.9275  0.1361  0.3583
10705TIP3    H153606   4.144   5.881   1.212 -1.1464  1.0601  1.5009
10705TIP3    H253607   4.035   5.775   1.211  0.1054 -0.2953 -0.9055
10706TIP3   OH253608   4.320   4.932   0.308 -0.3297  0.3675  0.0155
10706TIP3    H153609   4.394   4.989   0.326 -0.5471  0.5963  0.1859
10706TIP3    H253610   4.326   4.914   0.214  0.0083  0.2876  0.0494
10707TIP3   OH253611   3.499   0.290   2.684 -0.6376  0.3217 -0.5096
10707TIP3    H153612   3.582   0.312   2.642  0.1711  1.7748  1.6508
10707TIP3    H253613   3.433   0.324   2.624  0.2699 -0.8708 -2.2769
10708TIP3   OH253614   4.961   2.847   2.816 -0.1803  0.2700 -0.1576
10708TIP3    H153615   5.057   2.848   2.821 -0.1111 -1.0661 -0.7480
10708TIP3    H253616   4.939   2.920   2.758  0.5640 -0.1034 -0.9334
10709TIP3   OH253617   3.802   1.086  14.721  0.2306  0.3613 -0.9169
10709TIP3    H153618   3.818   0.992  14.717 -2.8078 -0.2170 -1.3779
10709TIP3    H253619   3.871   1.124  14.666  2.1571 -1.4194  0.1009
10710TIP3   OH253620   6.674   3.622  13.891  0.6529  0.0816  0.3788
10710TIP3    H153621   6.640   3.586  13.810  0.0955  1.9470 -0.2750
10710TIP3    H253622   6.768   3.631  13.876  0.4094  1.4409 -0.5287
10711TIP3   OH253623   2.682   1.513  11.949 -0.4234 -0.2589 -0.4646
10711TIP3    H153624   2.631   1.582  11.906  2.7049  3.5617  1.2634
10711TIP3    H253625   2.767   1.515  11.905  0.5468 -1.2253  1.2585
10712TIP3   OH253626   6.241   2.251   3.813 -0.1679  0.0917  0.0735
10712TIP3    H153627   6.301   2.179   3.836 -1.0054 -0.9451 -0.8578
10712TIP3    H253628   6.295   2.330   3.820  0.7284 -0.5858  1.3252
10713TIP3   OH253629   0.543   1.433  13.344 -0.4952  0.0599  0.5502
10713TIP3    H153630   0.542   1.441  13.248  1.4826 -0.9293  0.3785
10713TIP3    H253631   0.555   1.339  13.359  0.9633  0.4012  1.7038
10714TIP3   OH253632   2.089   6.637  12.567 -0.1557  0.4970  0.0295
10714TIP3    H153633   2.034   6.625  12.490 -0.9179  1.1472  0.4498
10714TIP3    H253634   2.171   6.675  12.533  0.7340 -2.0005 -0.8049
10715TIP3   OH253635   2.954   3.858   5.600 -0.9231 -0.2290 -0.1840
10715TIP3    H153636   2.999   3.774   5.605 -0.4430 -0.0179 -0.8003
10715TIP3    H253637   2.944   3.885   5.691  1.1142  0.1829 -0.0336
10716TIP3   OH253638   1.888   1.104   5.953  0.0024 -0.2958 -0.1791
10716TIP3    H153639   1.807   1.137   5.993 -0.0122  2.2007 -2.0682
10716TIP3    H253640   1.956   1.163   5.984  1.3772 -2.7196  1.8780
10717TIP3   OH253641   4.528   5.370   1.608 -0.1800 -0.2850 -0.0076
10717TIP3    H153642   4.591   5.438   1.630  1.0302 -1.1493 -0.6157
10717TIP3    H253643   4.531   5.310   1.682 -1.2517  0.3091  0.5332
10718TIP3   OH253644   1.890   1.174  13.927 -0.2771 -0.8092  0.4389
10718TIP3    H153645   1.893   1.100  13.988 -0.7629 -1.1281  0.0780
10718TIP3    H253646   1.862   1.135  13.844  0.2937 -0.3621  0.0286
10719TIP3   OH253647   0.716   1.102   6.495  0.4216 -0.0367  0.4887
10719TIP3    H153648   0.641   1.080   6.550  0.2889  0.5593  0.5622
10719TIP3    H253649   0.776   1.147   6.555  0.4886  0.1885  0.2539
10720TIP3   OH253650   0.975   3.301   5.778  0.4983 -0.1607  0.5004
10720TIP3    H153651   1.051   3.276   5.830 -1.1854 -1.3662  2.5614
10720TIP3    H253652   0.974   3.397   5.780  2.6484 -0.0412 -0.7497
10721TIP3   OH253653   5.425   4.561  13.638  0.7661  0.1843  0.5747
10721TIP3    H153654   5.470   4.477  13.644  0.3967  0.0564  1.7719
10721TIP3    H253655   5.441   4.590  13.548 -0.4162 -1.8745 -0.3663
10722TIP3   OH253656   1.499   0.817   2.577  0.5207 -0.0403  0.5893
10722TIP3    H153657   1.430   0.799   2.641 -3.3196 -0.1203 -3.1290
10722TIP3    H253658   1.482   0.907   2.548  1.5852 -0.2635 -0.8516
10723TIP3   OH253659   3.920   5.654   6.479 -0.0477  0.0687  0.3995
10723TIP3    H153660   3.907   5.745   6.504 -0.3237  0.3430 -0.6847
10723TIP3    H253661   3.835   5.612   6.493 -1.2682  0.9959 -3.1080
10724TIP3   OH253662   6.331   2.862   1.923  0.3451 -0.2706  0.4845
10724TIP3    H153663   6.384   2.928   1.878 -0.2420 -0.9702 -1.3180
10724TIP3    H253664   6.245   2.868   1.883  0.0402 -1.5456  0.8832
10725TIP3   OH253665   5.363   2.587  16.188 -0.0252 -0.2173  0.4578
10725TIP3    H153666   5.351   2.519  16.254 -0.5394 -0.2697  0.3166
10725TIP3    H253667   5.328   2.666  16.227  3.4323  0.7746  1.9058
10726TIP3   OH253668   0.172   3.279   4.385  0.0710 -0.4718  0.6418
10726TIP3    H153669   0.161   3.327   4.303  1.6482  2.0109  1.7782
10726TIP3    H253670   0.263   3.249   4.383  0.5771  0.8657  2.0559
10727TIP3   OH253671   3.397   2.904  15.634  0.1333  0.6687  0.6082
10727TIP3    H153672   3.438   2.952  15.706  0.2628 -1.1457  1.7966
10727TIP3    H253673   3.468   2.857  15.592 -0.0694  1.0858 -0.2262
10728TIP3   OH253674   0.781   0.827  11.211 -0.0885 -0.2171 -0.2401
10728TIP3    H153675   0.855   0.791  11.261 -1.1148 -0.5150  1.1049
10728TIP3    H253676   0.791   0.922  11.220  0.8441 -0.2057 -1.1633
10729TIP3   OH253677   1.403   1.019   1.611 -0.4623 -0.7602  0.2762
10729TIP3    H153678   1.333   0.997   1.550 -1.1839  0.5186  0.5982
10729TIP3    H253679   1.434   0.935   1.644 -1.6776 -1.3644 -0.0733
10730TIP3   OH253680   4.529   5.520   2.725 -0.0216  0.6036  0.4028
10730TIP3    H153681   4.444   5.496   2.763  0.5352  0.5872  1.6680
10730TIP3    H253682   4.516   5.610   2.694 -1.4538 -0.4361 -2.3951
10731TIP3   OH253683   5.823   2.615  17.084 -0.2213  0.3934 -0.0313
10731TIP3    H153684   5.812   2.707  17.059  0.5452  0.4621 -0.1614
10731TIP3    H253685   5.903   2.587  17.038 -0.8156 -0.5352 -0.5338
10732TIP3   OH253686   0.967   4.849   0.259 -0.2549 -0.9203 -0.0182
10732TIP3    H153687   0.871   4.849   0.270 -0.2533 -0.5686  0.0132
10732TIP3    H253688   0.987   4.762   0.225 -0.6594 -0.7725 -0.6617
10733TIP3   OH253689   1.333   2.521   2.651 -0.1505 -0.5047 -0.1784
10733TIP3    H153690   1.271   2.506   2.723 -0.4357  2.4934  0.3208
10733TIP3    H253691   1.411   2.556   2.693  0.5046 -0.7732 -1.1429
10734TIP3   OH253692   3.032   0.953   4.781  0.1111 -0.3220 -0.8665
10734TIP3    H153693   3.117   0.946   4.738  1.1995 -1.7901  1.3489
10734TIP3    H253694   2.999   0.863   4.782 -1.1336  0.1131 -1.0065
10735TIP3   OH253695   3.477   4.229   4.335  0.0095 -0.3637  0.0337
10735TIP3    H153696   3.395   4.274   4.357 -0.0956 -0.4155 -0.2524
10735TIP3    H253697   3.489   4.165   4.406 -0.5450 -0.8203 -0.2783
10736TIP3   OH253698   0.869   6.237  15.319 -1.0173 -0.1007  0.5103
10736TIP3    H153699   0.916   6.196  15.391 -0.4526  0.5703  0.5354
10736TIP3    H253700   0.855   6.166  15.256  1.4181 -0.0520 -0.2149
10737TIP3   OH253701   1.398   1.602  10.491  0.4899 -0.0487 -0.8168
10737TIP3    H153702   1.474   1.609  10.548 -0.4506  0.6969  0.3995
10737TIP3    H253703   1.427   1.637  10.407  1.0120  1.8603  0.1136
10738TIP3   OH253704   5.576   6.373   2.313  0.2748  0.1420 -0.3185
10738TIP3    H153705   5.617   6.368   2.226  0.4252 -0.4980 -0.2166
10738TIP3    H253706   5.563   6.281   2.338  1.1108  0.2866  0.7428
10739TIP3   OH253707   2.327   3.378  14.535  0.8267  0.2524 -0.5149
10739TIP3    H153708   2.384   3.330  14.475  1.2635 -1.4811  1.1660
10739TIP3    H253709   2.307   3.459  14.490  1.8264 -0.5903 -2.6150
10740TIP3   OH253710   2.114   4.119  16.676 -0.2876  0.3735 -0.1083
10740TIP3    H153711   2.196   4.095  16.719 -0.6440 -0.0588  0.3356
10740TIP3    H253712   2.054   4.136  16.748 -1.0508 -0.8876 -0.4202
10741TIP3   OH253713   3.629   4.649   2.906 -0.1914 -0.2490  0.0709
10741TIP3    H153714   3.563   4.581   2.897 -1.7188  1.0062  1.2469
10741TIP3    H253715   3.629   4.670   3.000 -0.2115  1.7669 -0.3405
10742TIP3   OH253716   0.481   2.388   3.120 -0.3156 -0.3783  0.4185
10742TIP3    H153717   0.426   2.393   3.042 -0.8189 -1.3565  0.7010
10742TIP3    H253718   0.428   2.428   3.189 -0.2877 -0.4580  0.4856
10743TIP3   OH253719   0.363   1.916  16.467 -0.0966 -0.9533  0.3565
10743TIP3    H153720   0.381   1.871  16.384 -0.5924 -0.7768  0.1496
10743TIP3    H253721   0.449   1.945  16.498  0.4787 -3.4080  1.2858
10744TIP3   OH253722   6.359   4.071  10.802  0.2773  0.1740 -0.3220
10744TIP3    H153723   6.274   4.059  10.759 -0.0283  0.0507  0.3068
10744TIP3    H253724   6.360   4.006  10.872  1.1437 -0.2219 -0.6910
10745TIP3   OH253725   2.530   1.598  11.103 -0.4374 -0.6965  0.1614
10745TIP3    H153726   2.504   1.616  11.013  1.2564  1.4154  0.0046
10745TIP3    H253727   2.511   1.679  11.151  0.0009 -1.2843  1.3828
10746TIP3   OH253728   0.775   4.377  12.932 -0.2943  0.0421  0.9068
10746TIP3    H153729   0.718   4.302  12.943 -0.0676 -0.0906  1.1795
10746TIP3    H253730   0.722   4.453  12.958 -0.2702 -0.1049  1.3925
10747TIP3   OH253731   0.517   2.524  16.794  0.0868  0.3396 -0.1788
10747TIP3    H153732   0.436   2.484  16.825 -0.7349  0.3638 -2.1777
10747TIP3    H253733   0.586   2.476  16.840 -1.0178  0.0943  1.3068
10748TIP3   OH253734   2.929   4.950   1.615 -0.1135  0.2474  0.4946
10748TIP3    H153735   2.914   4.945   1.520  0.3610  0.5775  0.4002
10748TIP3    H253736   2.886   5.032   1.641 -1.1314 -0.3413  0.7449
10749TIP3   OH253737   1.007   0.029  11.859  0.0998  0.9612 -0.0387
10749TIP3    H153738   1.068   0.058  11.926 -0.0843  2.9048 -0.6442
10749TIP3    H253739   0.990  -0.063  11.880  1.4507  1.0122  1.4700
10750TIP3   OH253740   3.020   1.418   5.184  0.3026  0.0731 -0.4689
10750TIP3    H153741   3.050   1.509   5.180 -0.7837  0.4316 -0.8038
10750TIP3    H253742   3.070   1.374   5.115  0.5983  0.4852 -0.5285
10751TIP3   OH253743   1.885   1.510  13.464 -0.2001  0.5369  0.2319
10751TIP3    H153744   1.908   1.435  13.519 -1.5879 -1.4583 -1.6844
10751TIP3    H253745   1.938   1.497  13.385 -0.7799  1.3373 -0.2960
10752TIP3   OH253746   4.509   6.645   1.421  0.6756 -0.5104  0.3357
10752TIP3    H153747   4.465   6.729   1.431  0.6811 -0.6002  1.1398
10752TIP3    H253748   4.563   6.636   1.499  0.3826 -1.4275  0.4501
10753TIP3   OH253749   1.990   0.291  12.951  0.0703  0.3532  0.0944
10753TIP3    H153750   2.064   0.272  12.893 -0.3149  1.2433 -0.6962
10753TIP3    H253751   1.934   0.213  12.943  1.2836 -0.7113  1.3410
10754TIP3   OH253752   1.900   1.392  11.322  0.7760 -0.7689 -0.3026
10754TIP3    H153753   1.994   1.384  11.336  0.6617  0.5321  1.6210
10754TIP3    H253754   1.862   1.323  11.378  0.5821 -2.1515 -2.0592
10755TIP3   OH253755   5.077   6.650  11.299  0.2315  0.1637 -0.1747
10755TIP3    H153756   5.163   6.658  11.341  1.2641 -0.3336 -2.1030
10755TIP3    H253757   5.046   6.741  11.291  0.1377  0.2934  1.3044
10756TIP3   OH253758   0.519   2.990  12.516  0.2478 -0.3146 -0.5764
10756TIP3    H153759   0.561   2.959  12.596 -0.3669 -1.1627 -0.5676
10756TIP3    H253760   0.571   2.953  12.445  1.0482  0.7876 -0.5933
10757TIP3   OH253761   2.492   1.821   5.847  0.2859 -0.0657  0.1010
10757TIP3    H153762   2.515   1.800   5.756 -0.5022  0.5926 -0.2575
10757TIP3    H253763   2.553   1.769   5.899  0.5839 -0.6478 -0.8014
10758TIP3   OH253764   2.907   0.982   0.866 -0.3857  0.7090  0.1751
10758TIP3    H153765   2.893   1.020   0.953 -2.6745  0.5486 -0.0543
10758TIP3    H253766   2.852   1.034   0.808 -0.3889 -0.3672 -0.8294
10759TIP3   OH253767   3.700   5.508  15.617 -0.7428  0.3473  0.2359
10759TIP3    H153768   3.736   5.546  15.537 -0.3706 -0.1524  0.1634
10759TIP3    H253769   3.607   5.532  15.615 -0.3330  2.0650  0.6755
10760TIP3   OH253770   2.555   4.816  12.965 -0.2831 -0.3815 -0.0426
10760TIP3    H153771   2.483   4.755  12.950 -0.5319  0.0191 -0.5009
10760TIP3    H253772   2.576   4.805  13.058 -1.5742  0.1684  0.3488
10761TIP3   OH253773   1.485   5.109  16.781  0.0291  0.2455 -0.1659
10761TIP3    H153774   1.524   5.168  16.716 -0.5279 -1.2024 -1.8882
10761TIP3    H253775   1.528   5.132  16.863  0.4427  2.4494 -0.9289
10762TIP3   OH253776   1.732   3.561  12.747 -0.1112  0.4581 -0.3115
10762TIP3    H153777   1.770   3.474  12.753 -0.8282  0.1923  0.5272
10762TIP3    H253778   1.685   3.561  12.664 -1.0578 -0.3454  0.2104
10763TIP3   OH253779   0.341   6.775  16.137 -0.6044  0.0459 -0.6679
10763TIP3    H153780   0.370   6.776  16.045  2.0899  0.4829  0.1063
10763TIP3    H253781   0.284   6.698  16.143  0.1135 -0.6799 -2.4319
10764TIP3   OH253782   2.724   3.399   1.870 -0.0663  0.2178 -0.6334
10764TIP3    H153783   2.769   3.322   1.836 -0.7548 -0.5009  0.0565
10764TIP3    H253784   2.781   3.472   1.844  1.5760 -0.6528  0.3048
10765TIP3   OH253785   6.413   1.704   0.952 -1.1360  0.3202 -0.5745
10765TIP3    H153786   6.371   1.710   1.038 -0.0774 -0.3837  0.0150
10765TIP3    H253787   6.505   1.685   0.971 -0.3782  2.3677 -1.8054
10766TIP3   OH253788   1.582   5.135   0.258 -0.0188  0.0983 -0.5304
10766TIP3    H153789   1.498   5.169   0.226 -1.0838 -0.9698  0.9441
10766TIP3    H253790   1.558   5.082   0.334  2.0775  0.1904  0.2509
10767TIP3   OH253791   2.639   3.414  13.392 -0.1153 -0.2270  0.0934
10767TIP3    H153792   2.682   3.441  13.311 -0.7475  1.1433  0.1820
10767TIP3    H253793   2.710   3.395  13.452  0.3727 -1.4881 -0.8193
10768TIP3   OH253794   6.123   6.762  12.154  0.2289  1.0391  0.0496
10768TIP3    H153795   6.135   6.675  12.193  0.2684 -0.1261 -2.3627
10768TIP3    H253796   6.145   6.823  12.224  0.5491 -0.8810  1.7257
10769TIP3   OH253797   1.980   4.827   5.733  0.2743  0.1630 -0.2600
10769TIP3    H153798   2.039   4.784   5.671  0.7964 -0.1770  0.4461
10769TIP3    H253799   2.013   4.917   5.739 -0.0658  0.3251 -0.8223
10770TIP3   OH253800   4.830   3.326   5.918 -0.0790  0.3206  0.2318
10770TIP3    H153801   4.834   3.420   5.934  0.4362  0.6574 -1.6717
10770TIP3    H253802   4.883   3.288   5.988  2.0464  1.6896 -0.5155
10771TIP3   OH253803   2.019   6.827  15.731  0.2255 -0.2147  0.2698
10771TIP3    H153804   2.025   6.759  15.797 -0.6814 -1.3719 -0.7793
10771TIP3    H253805   1.926   6.829  15.707  0.1467  1.7277  0.5948
10772TIP3   OH253806   5.334   5.469  13.966 -0.5519 -0.3146  0.0315
10772TIP3    H153807   5.413   5.444  14.015 -0.3229  2.9346  1.5486
10772TIP3    H253808   5.367   5.500  13.882 -0.4105 -0.6567 -0.0415
10773TIP3   OH253809   4.318   3.541   2.480  0.0208 -0.2742  0.0430
10773TIP3    H153810   4.261   3.538   2.557 -0.0605  0.6379  0.0365
10773TIP3    H253811   4.287   3.472   2.423 -0.8659  0.0026  0.1843
10774TIP3   OH253812   2.497   2.676  12.891 -0.0024  1.0266 -0.4495
10774TIP3    H153813   2.558   2.749  12.905  2.1235 -0.7874  0.4168
10774TIP3    H253814   2.546   2.598  12.918 -1.6713 -0.9229 -2.6015
10775TIP3   OH253815   3.654   3.289  11.797 -0.7802  0.7109  0.2068
10775TIP3    H153816   3.682   3.280  11.889 -1.7105 -3.5039  0.2585
10775TIP3    H253817   3.735   3.284  11.747 -0.4225  1.2925  0.7095
10776TIP3   OH253818   3.377   0.148  16.346 -0.3933 -0.2705  0.0929
10776TIP3    H153819   3.379   0.089  16.271 -1.7294  0.6842 -0.7367
10776TIP3    H253820   3.457   0.128  16.395 -0.3551 -2.0863 -0.6571
10777TIP3   OH253821   2.355   0.965  11.921 -0.0231  0.5907 -0.0860
10777TIP3    H153822   2.407   1.003  11.850 -0.2029 -1.2652 -1.2810
10777TIP3    H253823   2.379   1.017  11.998  3.0708  0.2890 -0.7149
10778TIP3   OH253824   1.474   6.333  13.018  0.4172 -0.1464  0.3298
10778TIP3    H153825   1.544   6.398  13.010 -1.1895  1.5144 -1.4383
10778TIP3    H253826   1.491   6.289  13.101  2.6269  1.2675  0.7176
10779TIP3   OH253827   4.929   6.266   2.837 -0.1617  0.2072 -0.0947
10779TIP3    H153828   4.964   6.178   2.829 -0.2359  0.2666 -1.1931
10779TIP3    H253829   4.988   6.321   2.785  0.8151  1.0951  1.8536
10780TIP3   OH253830   2.914   5.715  12.699  0.0442  0.0411 -0.5505
10780TIP3    H153831   2.931   5.807  12.718  2.5296 -0.2830 -0.8390
10780TIP3    H253832   2.909   5.673  12.784 -0.7639  0.3679 -0.4265
10781TIP3   OH253833   3.365   5.795   3.610  0.3921  0.0706  0.4429
10781TIP3    H153834   3.287   5.801   3.666 -1.3011 -2.2182 -1.4352
10781TIP3    H253835   3.353   5.865   3.545  0.8663  0.8817  1.2181
10782TIP3   OH253836   3.551   6.629   5.312  0.2692  0.5318  0.1638
10782TIP3    H153837   3.566   6.551   5.366 -0.5574  0.4701  0.3131
10782TIP3    H253838   3.639   6.663   5.295  0.7451 -1.0880 -0.8856
10783TIP3   OH253839   2.985   5.945   0.040 -0.0255 -0.1123  0.7145
10783TIP3    H153840   3.044   5.883  -0.003  2.3550  0.7284  2.5624
10783TIP3    H253841   3.027   5.966   0.123 -1.1159  3.3372  0.5818
10784TIP3   OH253842   5.872   1.421   5.509  0.2529 -0.0792 -0.0667
10784TIP3    H153843   5.795   1.459   5.552 -0.2427 -0.1282 -0.8974
10784TIP3    H253844   5.939   1.490   5.514  0.9703 -0.8430  2.7393
10785TIP3   OH253845   0.873   0.144   0.128  0.0831 -0.1097  0.4009
10785TIP3    H153846   0.962   0.175   0.114  0.4277 -1.3527 -0.2947
10785TIP3    H253847   0.883   0.052   0.152 -0.9526  0.0564  1.5850
10786TIP3   OH253848   0.761   3.426  15.881  0.5618 -0.1191  0.1741
10786TIP3    H153849   0.848   3.465  15.875  0.1721  0.5616 -3.0151
10786TIP3    H253850   0.758   3.364  15.808 -0.8248 -1.9559  1.7058
10787TIP3   OH253851   5.161   5.044  14.766 -0.4730 -0.4973  0.5217
10787TIP3    H153852   5.077   5.066  14.805  0.1013  3.0173  0.1059
10787TIP3    H253853   5.194   4.971  14.819 -2.8289 -0.5745  2.0067
10788TIP3   OH253854   2.788   6.450  12.445 -0.2032  0.5274  0.4527
10788TIP3    H153855   2.824   6.524  12.394 -1.5650  1.0856  0.2696
10788TIP3    H253856   2.754   6.390  12.379 -2.4507  1.4951  0.6667
10789TIP3   OH253857   1.478   3.113   4.280 -0.4009  0.4957  0.2808
10789TIP3    H153858   1.427   3.194   4.271  0.1349  0.7126 -1.2039
10789TIP3    H253859   1.566   3.143   4.303  0.1815  0.4916 -1.7598
10790TIP3   OH253860   6.225   1.144   1.586  0.0230  0.1082 -0.2961
10790TIP3    H153861   6.204   1.056   1.618  0.7829 -0.2432 -0.7342
10790TIP3    H253862   6.199   1.143   1.493 -1.1921  0.7803  0.0168
10791TIP3   OH253863   4.619   4.584  15.505 -0.2797  0.3669 -0.0851
10791TIP3    H153864   4.621   4.662  15.450  0.0647 -0.2551 -0.9694
10791TIP3    H253865   4.677   4.522  15.461 -1.4593 -0.8157 -0.0240
10792TIP3   OH253866   2.190   3.673  13.178  0.3578  0.1646 -0.0944
10792TIP3    H153867   2.177   3.767  13.196  0.5613  0.0592  0.6529
10792TIP3    H253868   2.271   3.651  13.224  1.7929  0.2059 -2.4463
10793TIP3   OH253869   1.105   3.228  13.653  0.0679 -0.4543  0.1242
10793TIP3    H153870   1.125   3.305  13.707 -0.4576  0.7030 -1.2617
10793TIP3    H253871   1.136   3.252  13.566 -0.4490 -1.6831 -0.4110
10794TIP3   OH253872   2.351   2.679   1.761 -0.4867 -0.2301  0.3646
10794TIP3    H153873   2.430   2.633   1.790 -0.3047 -0.4173 -0.3957
10794TIP3    H253874   2.305   2.702   1.842  0.8297  0.7578  0.8758
10795TIP3   OH253875   3.061   2.856  11.126 -0.6884 -0.1629 -0.0644
10795TIP3    H153876   2.991   2.917  11.149 -0.1900  0.1047  0.7952
10795TIP3    H253877   3.026   2.804  11.054 -1.2188  0.9738 -0.6477
10796TIP3   OH253878   3.150   6.653   4.208  0.2130  0.4650  0.1769
10796TIP3    H153879   3.130   6.653   4.301 -1.3343 -0.4617 -0.1187
10796TIP3    H253880   3.080   6.704   4.167  0.0221 -0.3968 -0.6129
10797TIP3   OH253881   0.128   1.357  16.871  0.4482  0.4621  0.2399
10797TIP3    H153882   0.219   1.377  16.892  0.0868  1.8415  0.5698
10797TIP3    H253883   0.090   1.440  16.842 -0.3487 -0.3774 -1.2608
10798TIP3   OH253884   6.287   5.834  13.863  0.3369  0.5334  0.3316
10798TIP3    H153885   6.293   5.746  13.827  0.2569  1.7412 -3.0007
10798TIP3    H253886   6.368   5.846  13.912  1.4566 -0.6363 -1.1332
10799TIP3   OH253887   5.754   1.976  13.970 -0.0226 -0.0118 -0.2416
10799TIP3    H153888   5.707   1.902  14.010 -1.6874  0.2295 -1.6395
10799TIP3    H253889   5.845   1.965  14.000 -0.8286 -0.7477  2.2058
10800TIP3   OH253890   0.332   4.831   3.296 -0.0057  0.3072 -0.7521
10800TIP3    H153891   0.325   4.881   3.378  0.4745 -1.6815  0.5551
10800TIP3    H253892   0.422   4.798   3.295 -0.3801 -0.7411 -1.4498
10801TIP3   OH253893   0.077   2.556   1.575  0.4530 -0.0184 -0.0952
10801TIP3    H153894   0.086   2.651   1.569 -2.6176  0.4359  0.6074
10801TIP3    H253895   0.051   2.528   1.487  1.2247 -0.1972 -0.2694
10802TIP3   OH253896   3.039   0.300   5.743  0.4546 -0.7070 -0.8925
10802TIP3    H153897   3.077   0.371   5.692  0.0286  1.0176  1.0398
10802TIP3    H253898   2.955   0.335   5.775  0.6679 -1.6827  0.9165
10803TIP3   OH253899   0.914   5.844   5.021  0.0973 -0.2507 -0.3354
10803TIP3    H153900   0.941   5.810   5.106 -1.7877 -1.9082 -0.3290
10803TIP3    H253901   0.823   5.817   5.012 -0.5575  2.1109 -1.7875
10804TIP3   OH253902   4.809   2.572  15.814  0.0565 -0.9191  0.4919
10804TIP3    H153903   4.748   2.563  15.887 -0.0136  0.4986  0.6368
10804TIP3    H253904   4.779   2.509  15.749 -1.7189 -0.1153  0.4764
10805TIP3   OH253905   0.619   3.259   4.858 -0.3066 -0.4316  0.1988
10805TIP3    H153906   0.542   3.237   4.911 -0.2456 -0.7645  0.1521
10805TIP3    H253907   0.626   3.354   4.863  0.0381 -0.5029  1.2725
10806TIP3   OH253908   1.842   4.206   1.014  0.0533 -0.5930 -0.0114
10806TIP3    H153909   1.853   4.272   0.945 -2.2634  0.7362  0.7793
10806TIP3    H253910   1.859   4.123   0.970  0.3929  0.3468 -1.7379
10807TIP3   OH253911   1.957   4.434   3.507  0.5783 -0.1557 -0.1634
10807TIP3    H153912   2.051   4.414   3.508  0.6614  0.2287  0.0234
10807TIP3    H253913   1.941   4.466   3.419  0.5896 -0.3648 -0.2429
10808TIP3   OH253914   1.669   0.774  16.562 -0.1086  0.0314  0.1214
10808TIP3    H153915   1.684   0.706  16.626  3.6640 -0.1647 -0.7522
10808TIP3    H253916   1.684   0.856  16.609 -0.6242  0.0702  0.2256
10809TIP3   OH253917   3.785   3.994   1.996 -0.3279  0.1518 -0.3168
10809TIP3    H153918   3.722   3.953   2.055  1.3462  0.0978  1.5437
10809TIP3    H253919   3.863   4.007   2.050  1.6006 -0.6433 -2.7282
10810TIP3   OH253920   5.260   1.801  13.390  0.1241  0.2254  0.3121
10810TIP3    H153921   5.247   1.765  13.478  0.3305  0.6738  0.5309
10810TIP3    H253922   5.172   1.823  13.360  0.1402  1.1404  0.8764
10811TIP3   OH253923   1.933   4.535   4.135  0.6500 -0.7374  0.0041
10811TIP3    H153924   1.862   4.557   4.195 -0.8442 -0.0046 -1.9459
10811TIP3    H253925   1.939   4.609   4.076  1.8576 -1.5759 -0.9866
10812TIP3   OH253926   4.076   5.007   0.102  0.9171  0.2351  0.4214
10812TIP3    H153927   3.997   5.002   0.048  1.0906  1.3893  0.0222
10812TIP3    H253928   4.137   4.947   0.060  1.0105  1.0309 -0.6221
10813TIP3   OH253929   0.116   1.796   5.908 -0.3503 -0.3426  0.0696
10813TIP3    H153930   0.125   1.740   5.985 -2.2271  1.8514  2.0174
10813TIP3    H253931   0.158   1.878   5.932 -0.3996  0.1897 -1.5218
10814TIP3   OH253932   3.609   6.154  13.600  0.4665 -0.2574  0.6439
10814TIP3    H153933   3.595   6.180  13.509  0.4114 -0.0970  0.6973
10814TIP3    H253934   3.673   6.083  13.596  0.6277 -0.1007  0.4993
10815TIP3   OH253935   4.257   4.523  16.992 -0.7958 -0.3880 -0.3723
10815TIP3    H153936   4.349   4.500  17.004 -1.0858 -0.4801  2.1983
10815TIP3    H253937   4.259   4.610  16.951  0.5090  0.4601  1.3545
10816TIP3   OH253938   4.501   4.204   1.845 -0.1146 -0.3051  0.5489
10816TIP3    H153939   4.417   4.173   1.880 -0.2448 -0.7790 -0.1648
10816TIP3    H253940   4.486   4.212   1.751  0.1396  1.2425  0.6146
10817TIP3   OH253941   2.805   1.479  16.973  0.1302 -0.2785  0.2674
10817TIP3    H153942   2.864   1.412  16.939 -0.1965 -0.3865 -0.0963
10817TIP3    H253943   2.734   1.430  17.015 -1.4566 -0.2894 -2.1930
10818TIP3   OH253944   0.232   3.571  16.825  0.5581  0.2605 -0.1901
10818TIP3    H153945   0.225   3.634  16.897  1.2053  1.6786 -1.3097
10818TIP3    H253946   0.326   3.556  16.815  0.7602  2.4505 -2.6221
10819TIP3   OH253947   1.007   1.637   0.164 -0.1005  0.1048  0.4705
10819TIP3    H153948   0.990   1.544   0.151 -1.4269  0.4216 -0.2381
10819TIP3    H253949   0.927   1.671   0.205  0.6943  0.7789  1.4936
10820TIP3   OH253950   3.433   0.252  17.100  0.2874  0.0002  0.1183
10820TIP3    H153951   3.378   0.175  17.113  0.4654 -0.1798 -0.2103
10820TIP3    H253952   3.400   0.293  17.020 -1.0188  1.2967  1.2518
10821TIP3   OH253953   3.274   0.920  16.515  0.1230 -0.0583 -0.1909
10821TIP3    H153954   3.304   0.987  16.576 -1.7928  1.4719 -0.8107
10821TIP3    H253955   3.314   0.944  16.432  2.7766 -2.1735  0.3422
10822TIP3   OH253956   4.520   1.270  12.959  0.0749 -0.1317  0.5528
10822TIP3    H153957   4.569   1.340  12.916 -1.3631  0.3970 -0.3193
10822TIP3    H253958   4.580   1.234  13.024  0.3067  3.0525  2.2981
10823TIP3   OH253959   4.383   2.294  12.304  0.0705 -0.8202  0.0251
10823TIP3    H153960   4.350   2.317  12.391 -0.0495 -1.7566  0.2416
10823TIP3    H253961   4.351   2.205  12.289  0.3551 -0.7856 -0.8498
10824TIP3   OH253962   0.450   5.062  13.906 -0.5113  0.5551 -0.2181
10824TIP3    H153963   0.497   5.080  13.824  0.2748 -1.3906 -0.2344
10824TIP3    H253964   0.433   5.149  13.943 -0.8932  1.4947 -2.4303
10825TIP3   OH253965   4.448   5.384   4.565  0.0111  0.0347 -0.2242
10825TIP3    H153966   4.396   5.353   4.639  0.3005  0.6761  0.2482
10825TIP3    H253967   4.398   5.456   4.528 -0.1431 -0.2970 -0.6711
10826TIP3   OH253968   2.407   1.506  16.839  0.5100  0.0233  0.2100
10826TIP3    H153969   2.448   1.503  16.925  1.3427 -0.1575 -0.1846
10826TIP3    H253970   2.387   1.599  16.826 -0.4878 -0.0599  0.9788
10827TIP3   OH253971   4.864   5.926   1.444  0.1336 -0.1000  0.7707
10827TIP3    H153972   4.830   5.951   1.530 -0.2744 -0.5676  0.7514
10827TIP3    H253973   4.917   6.001   1.416  2.2384 -0.8431  2.4592
10828TIP3   OH253974   3.926   5.308   0.173  0.5722 -0.1373 -0.3201
10828TIP3    H153975   3.913   5.232   0.229  2.2903  0.1460  0.5095
10828TIP3    H253976   3.910   5.276   0.085  0.8239 -1.3361  0.0516
10829TIP3   OH253977   0.452   5.400  15.760 -0.1075  0.0288 -0.2844
10829TIP3    H153978   0.457   5.484  15.804  0.0726 -0.9136  1.5957
10829TIP3    H253979   0.533   5.396  15.708  0.7223  0.3243  0.9410
10830TIP3   OH253980   0.369   6.097   2.534  0.4226 -0.0116 -0.3729
10830TIP3    H153981   0.369   6.005   2.563 -0.0273  0.2415  0.4571
10830TIP3    H253982   0.281   6.128   2.554  1.3282  1.3750  1.9307
10831TIP3   OH253983   3.805   0.183   0.756 -0.2716  0.1479  0.1272
10831TIP3    H153984   3.773   0.223   0.675  1.2523  0.5882 -0.2888
10831TIP3    H253985   3.745   0.214   0.823 -1.4446 -0.0691 -0.7928
10832TIP3   OH253986   1.414   1.484   2.212 -0.1027  0.3291  0.0940
10832TIP3    H153987   1.325   1.516   2.224  0.1103  0.7675  0.5211
10832TIP3    H253988   1.465   1.528   2.280  0.1263 -1.2421  0.9883
10833TIP3   OH253989   2.664   4.852  15.837  0.1087  0.0459 -0.0963
10833TIP3    H153990   2.617   4.773  15.865 -0.7605  0.1597 -1.1619
10833TIP3    H253991   2.596   4.907  15.798  0.9361  0.7515 -0.5646
10834TIP3   OH253992   3.688   6.651  16.740  0.3137  0.6274  0.2248
10834TIP3    H153993   3.606   6.601  16.733 -0.8968  2.4207  0.9262
10834TIP3    H253994   3.754   6.585  16.760 -1.1661 -0.7245  0.9070
10835TIP3   OH253995   2.246   5.724   1.424 -0.6228 -0.4103  0.4835
10835TIP3    H153996   2.329   5.769   1.437 -1.4280  0.4471  3.3682
10835TIP3    H253997   2.199   5.778   1.361 -0.3090  1.0767  1.4763
10836TIP3   OH253998   2.624   0.239  13.095  0.3217 -0.6594 -0.3039
10836TIP3    H153999   2.596   0.279  13.013 -0.2548 -0.2327  0.0917
10836TIP3    H254000   2.711   0.275  13.111 -1.0644  2.3864  1.2408
10837TIP3   OH254001   0.550   5.415   2.028 -0.8329 -0.0194  0.1059
10837TIP3    H154002   0.579   5.492   2.077 -0.3915  0.9897 -1.6760
10837TIP3    H254003   0.581   5.341   2.080 -0.8238  0.9758  1.6030
10838TIP3   OH254004   3.514   5.704  12.944 -0.3420 -0.3432  0.8031
10838TIP3    H154005   3.450   5.723  12.876  1.2086 -2.7866 -1.5696
10838TIP3    H254006   3.493   5.614  12.972  1.4420 -0.8637  0.6013
10839TIP3   OH254007   0.738   1.810   3.024 -0.6264  0.2564 -0.4848
10839TIP3    H154008   0.808   1.825   2.960 -0.5403 -0.6063 -0.6023
10839TIP3    H254009   0.674   1.757   2.978 -1.0852  0.5444 -0.1865
10840TIP3   OH254010   6.783   6.542   2.192  0.1404 -0.5133 -0.1379
10840TIP3    H154011   6.689   6.546   2.212 -0.4230 -0.7175 -2.4910
10840TIP3    H254012   6.808   6.633   2.178  0.1810 -0.5061 -0.0217
10841TIP3   OH254013   6.075   4.723  14.400  1.1212  0.3826  0.5426
10841TIP3    H154014   6.038   4.740  14.487 -0.6498 -1.3327  0.1770
10841TIP3    H254015   6.057   4.631  14.384 -0.3809  1.0890 -2.4688
10842TIP3   OH254016   2.302   0.329  14.950  0.1654 -0.1922  0.0884
10842TIP3    H154017   2.263   0.405  14.906 -1.2191  0.0532  1.6376
10842TIP3    H254018   2.396   0.344  14.944 -0.0630  1.9264  0.7749
10843TIP3   OH254019   5.511   0.148  12.044  0.4156 -0.0590  0.6951
10843TIP3    H154020   5.478   0.100  11.968  1.1054 -0.6928  0.7907
10843TIP3    H254021   5.506   0.240  12.018  0.3291 -0.2492  0.0162
10844TIP3   OH254022   1.707   3.190   4.051 -0.1271  0.1372 -0.7885
10844TIP3    H154023   1.743   3.238   3.976  2.0977  0.4480  0.4204
10844TIP3    H254024   1.781   3.178   4.110 -1.5565 -1.2021  0.8153
10845TIP3   OH254025   1.670   2.551   3.057  0.1140 -0.1519  0.5653
10845TIP3    H154026   1.734   2.553   3.129  1.1667 -2.9711 -0.1540
10845TIP3    H254027   1.717   2.588   2.983 -0.8992  2.5461  1.1545
10846TIP3   OH254028   1.193   5.557   0.118 -0.1223  0.4875  0.2876
10846TIP3    H154029   1.216   5.640   0.076 -0.8026  1.0978  1.0811
10846TIP3    H254030   1.167   5.500   0.046 -0.1321  1.1305 -0.2223
10847TIP3   OH254031   5.359   6.403  13.184 -0.4843 -0.2394  0.0183
10847TIP3    H154032   5.380   6.457  13.108  1.2592 -0.4355  0.3190
10847TIP3    H254033   5.278   6.441  13.219 -0.6819  0.5587 -1.2648
10848TIP3   OH254034   1.555   0.556   5.417 -0.2836  0.1913  0.2087
10848TIP3    H154035   1.627   0.566   5.480  0.1480 -0.3534 -0.1860
10848TIP3    H254036   1.552   0.462   5.399 -0.4476  0.3312 -0.5213
10849TIP3   OH254037   0.577   5.187   2.195  0.9459  0.4195 -0.1248
10849TIP3    H154038   0.526   5.128   2.139  1.2717 -0.0501  0.0627
10849TIP3    H254039   0.621   5.129   2.257 -0.3674  0.9960  1.4399
10850TIP3   OH254040   2.110   1.977  12.589 -0.1332  0.4582 -0.0680
10850TIP3    H154041   2.036   1.999  12.645  0.3653 -1.0435  1.2531
10850TIP3    H254042   2.159   2.058  12.581 -0.8098  0.9624  0.7654
10851TIP3   OH254043   6.211   6.342  14.304 -0.0079 -0.5256 -0.3849
10851TIP3    H154044   6.201   6.339  14.209 -0.2887  2.6994 -0.5902
10851TIP3    H254045   6.122   6.330  14.338 -0.4384  1.3222 -0.7546
10852TIP3   OH254046   3.046   2.611   2.129 -0.0680  0.2210  1.0150
10852TIP3    H154047   3.067   2.594   2.038  2.2319  1.6057  1.2028
10852TIP3    H254048   2.991   2.689   2.127 -1.6303 -0.8510  0.7533
10853TIP3   OH254049   0.403   0.745  15.122 -0.5289  0.5314  0.4532
10853TIP3    H154050   0.422   0.711  15.035 -0.5295  1.9997 -0.1455
10853TIP3    H254051   0.313   0.716  15.139 -0.8018  0.8772 -0.3616
10854TIP3   OH254052   5.880   6.101  16.753 -0.2056  0.0316  0.0070
10854TIP3    H154053   5.883   6.101  16.848 -0.0468 -0.4628  0.0037
10854TIP3    H254054   5.951   6.160  16.726  1.7156 -2.1069  0.1499
10855TIP3   OH254055   5.030   2.631  14.416 -0.2170 -0.3072  0.1646
10855TIP3    H154056   5.065   2.627  14.505  0.1721 -0.2809  0.0141
10855TIP3    H254057   4.935   2.624  14.427 -0.4308  2.4986  0.8094
10856TIP3   OH254058   1.054   2.681  13.688 -0.3721 -0.1561  0.3911
10856TIP3    H154059   1.051   2.608  13.751 -1.0916 -0.5249 -0.0571
10856TIP3    H254060   1.147   2.687  13.663 -0.2820 -0.8225  0.5415
10857TIP3   OH254061   1.913   6.310   5.884 -0.0165  0.1231  0.2904
10857TIP3    H154062   1.873   6.235   5.928 -1.7059  1.1589  0.5895
10857TIP3    H254063   1.936   6.370   5.955 -1.0445  0.9874 -0.0762
10858TIP3   OH254064   1.641   5.756   1.155 -0.1744 -0.6409 -0.1129
10858TIP3    H154065   1.638   5.770   1.060 -0.4914 -1.7653 -0.2777
10858TIP3    H254066   1.562   5.705   1.174 -1.1594  1.1941  1.0571
10859TIP3   OH254067   5.942   2.454  11.759  0.4848 -0.1797  0.8082
10859TIP3    H154068   5.945   2.369  11.715  1.8391  0.3396 -0.1883
10859TIP3    H254069   5.850   2.478  11.757  0.4388 -0.2429 -1.7461
10860TIP3   OH254070   3.828   3.996   2.620 -0.2392  0.3955  0.2499
10860TIP3    H154071   3.805   3.928   2.557  0.3842  1.9683 -1.7858
10860TIP3    H254072   3.750   4.051   2.626 -0.2958  0.2561  0.8721
10861TIP3   OH254073   3.676   2.939   1.317  0.5035 -0.1424  0.1669
10861TIP3    H154074   3.608   2.965   1.378  0.9803 -0.2972  0.7775
10861TIP3    H254075   3.650   2.977   1.233 -1.1574 -1.5364  0.0108
10862TIP3   OH254076   3.114   3.720  14.263 -0.3761  0.0267 -0.2227
10862TIP3    H154077   3.173   3.664  14.212  0.3461  1.2685 -0.7893
10862TIP3    H254078   3.154   3.806  14.261 -1.2515  0.4929  0.9974
10863TIP3   OH254079   6.045   2.944  12.830  0.1960  0.2658  0.7436
10863TIP3    H154080   5.965   2.990  12.806  0.4246  0.3945  0.2168
10863TIP3    H254081   6.094   3.005  12.885  0.7828  0.9085 -0.4517
10864TIP3   OH254082   4.297   1.933  12.696  0.0397 -0.0694  0.3069
10864TIP3    H154083   4.297   2.006  12.634  0.0280  0.8207  1.3343
10864TIP3    H254084   4.212   1.890  12.682  0.8322 -1.1509 -1.7041
10865TIP3   OH254085   5.580   5.499  13.119  0.9128 -0.2029 -0.0631
10865TIP3    H154086   5.525   5.574  13.144  0.6328 -0.2989 -0.3849
10865TIP3    H254087   5.666   5.519  13.155  0.6247 -0.1278  0.6041
10866TIP3   OH254088   3.742   1.889   5.140 -0.6387 -0.1226  0.1404
10866TIP3    H154089   3.783   1.815   5.185 -0.4469 -0.4397 -0.5534
10866TIP3    H254090   3.652   1.861   5.125 -0.8837  0.2381  0.8969
10867TIP3   OH254091   3.267   1.384  15.020 -0.0507  0.7056  0.2927
10867TIP3    H154092   3.290   1.330  14.944  0.5016 -0.6318  1.3648
10867TIP3    H254093   3.236   1.466  14.982  2.2390  0.9204 -1.3505
10868TIP3   OH254094   2.427   0.779   2.840 -0.0299  1.1674  0.1159
10868TIP3    H154095   2.477   0.832   2.778 -1.1896  0.6987 -1.2892
10868TIP3    H254096   2.336   0.798   2.819 -0.4609  0.8092  1.5493
10869TIP3   OH254097   1.788   3.526   2.279  0.2971  0.4029 -0.1201
10869TIP3    H154098   1.868   3.561   2.318  0.7365 -0.5386 -0.1400
10869TIP3    H254099   1.719   3.548   2.341  0.8765 -0.4481  0.8700
10870TIP3   OH254100   4.333   1.782   1.519 -0.1722 -0.3771 -0.2241
10870TIP3    H154101   4.256   1.814   1.565 -0.3453 -1.1945  0.0778
10870TIP3    H254102   4.329   1.824   1.433 -0.6718 -0.0118 -0.0275
10871TIP3   OH254103   5.728   0.681  12.676  0.3471 -0.5938 -0.4516
10871TIP3    H154104   5.639   0.702  12.648  0.3761 -0.3209 -0.3438
10871TIP3    H254105   5.724   0.681  12.772  0.5374 -0.2497 -0.4429
10872TIP3   OH254106   4.109   6.384   5.057  0.2064  0.0554  0.4192
10872TIP3    H154107   4.044   6.455   5.063 -0.0784 -0.2633  1.0960
10872TIP3    H254108   4.089   6.326   5.130  0.1288 -0.9940 -0.4124
10873TIP3   OH254109   0.911   0.129  13.568  0.0639  0.2042 -0.2024
10873TIP3    H154110   0.882   0.201  13.625 -0.7923  1.3487 -2.0170
10873TIP3    H254111   0.841   0.065  13.573 -0.1853  0.4706 -0.2513
10874TIP3   OH254112   1.753   0.449   2.243 -0.1116 -0.3210  0.1505
10874TIP3    H154113   1.821   0.517   2.243  0.0823 -0.5125  0.2659
10874TIP3    H254114   1.774   0.394   2.168  0.9788 -1.4747  1.2576
10875TIP3   OH254115   1.297   4.184   6.432 -0.5761 -0.4153  0.2892
10875TIP3    H154116   1.289   4.267   6.479  0.7948 -0.2954  0.3512
10875TIP3    H254117   1.315   4.210   6.341  0.2247 -0.6212  0.3781
10876TIP3   OH254118   4.864   2.176  12.814 -0.2843  0.0327  0.4612
10876TIP3    H154119   4.928   2.109  12.838  1.7934  0.5344 -2.9860
10876TIP3    H254120   4.875   2.244  12.881  1.1181 -0.9194  1.2706
10877TIP3   OH254121   0.207   2.963  13.166 -1.0099  0.4705  0.1743
10877TIP3    H154122   0.248   2.972  13.253 -0.8380 -1.4986  0.3456
10877TIP3    H254123   0.117   2.938  13.184 -1.5548  1.9974 -0.2422
10878TIP3   OH254124   2.092   5.761  13.969  0.1921  0.6929  0.3726
10878TIP3    H154125   2.183   5.792  13.979 -0.7038  3.8311 -0.0437
10878TIP3    H254126   2.054   5.773  14.056 -0.7112  3.0175 -0.2478
10879TIP3   OH254127   5.564   2.510  15.236 -0.0870 -0.5159  1.0394
10879TIP3    H154128   5.502   2.461  15.291  0.2315  0.7539  2.6063
10879TIP3    H254129   5.539   2.487  15.147 -1.5038 -1.6189  1.6633
10880TIP3   OH254130   0.720   6.504   2.397  0.3257  0.2285  0.5457
10880TIP3    H154131   0.650   6.439   2.406  2.2236 -1.9106  0.7120
10880TIP3    H254132   0.796   6.464   2.438  1.3233  3.1393  1.8307
10881TIP3   OH254133   4.449   1.768   4.606  0.5259 -0.1748 -0.4771
10881TIP3    H154134   4.473   1.852   4.567  1.3482 -0.6204 -0.9534
10881TIP3    H254135   4.442   1.708   4.531 -1.4363 -0.2363 -0.2952
10882TIP3   OH254136   6.393   6.221   2.250 -0.0140  0.1231 -0.0413
10882TIP3    H154137   6.359   6.212   2.339 -0.0349  0.5441 -0.0074
10882TIP3    H254138   6.317   6.243   2.196 -0.1563 -0.9477 -0.3126
10883TIP3   OH254139   5.456   1.441  11.981 -0.2939  0.1290  0.2627
10883TIP3    H154140   5.393   1.463  11.913 -0.0836 -0.7873 -0.2415
10883TIP3    H254141   5.531   1.404  11.934  0.4601  0.8254  0.8839
10884TIP3   OH254142   2.143   0.627  16.160  0.1058 -0.4343 -0.2735
10884TIP3    H154143   2.155   0.557  16.224 -0.4082 -1.0167 -0.7974
10884TIP3    H254144   2.089   0.587  16.091  1.2451 -0.0531 -1.4322
10885TIP3   OH254145   6.208   4.497   0.579 -0.8445  0.1727  0.1916
10885TIP3    H154146   6.262   4.437   0.528 -0.7128 -0.6220  1.2282
10885TIP3    H254147   6.129   4.508   0.527 -1.9310 -2.8215  0.9811
10886TIP3   OH254148   5.766   6.308  15.454 -0.4687  0.0316  0.6682
10886TIP3    H154149   5.790   6.377  15.392 -0.3807  0.0244  0.6931
10886TIP3    H254150   5.720   6.243  15.402  1.5352 -1.0585  0.1465
10887TIP3   OH254151   5.939   0.792  12.489 -0.6027  0.6124  0.4708
10887TIP3    H154152   6.031   0.801  12.511 -0.2031  1.8223 -1.4836
10887TIP3    H254153   5.899   0.753  12.567  1.8093 -1.4651  0.7907
10888TIP3   OH254154   5.387   6.263  16.596 -0.1676  0.1586  0.2836
10888TIP3    H154155   5.411   6.315  16.519  0.5684 -0.1424  0.3008
10888TIP3    H254156   5.396   6.323  16.669 -0.2676  0.2774  0.1975
10889TIP3   OH254157   2.793   3.453  13.145  0.1456 -0.1577 -0.6562
10889TIP3    H154158   2.859   3.387  13.126 -0.9696 -1.5084 -0.0812
10889TIP3    H254159   2.712   3.417  13.107 -0.5513  0.7158 -0.0569
10890TIP3   OH254160   5.815   2.324  12.447  0.4491  0.1716 -0.0572
10890TIP3    H154161   5.862   2.380  12.507  0.8336 -0.0265 -0.1708
10890TIP3    H254162   5.741   2.290  12.498  2.1047 -1.9301  1.0818
10891TIP3   OH254163   3.522   3.861   0.167  0.6470 -0.0288  0.1426
10891TIP3    H154164   3.446   3.828   0.120  0.9519  1.8316 -1.7922
10891TIP3    H254165   3.540   3.794   0.233 -2.1296 -0.9151  0.1421
10892TIP3   OH254166   4.390   2.427  14.017 -0.0282 -0.1672  0.1412
10892TIP3    H154167   4.359   2.407  14.105  0.6278 -0.6504  0.2670
10892TIP3    H254168   4.377   2.522  14.008 -3.5335 -0.5768 -0.6167
10893TIP3   OH254169   3.962   3.579  12.794 -0.9054  0.2234  0.4316
10893TIP3    H154170   3.902   3.654  12.794 -0.7668  0.3376 -0.1002
10893TIP3    H254171   4.016   3.592  12.717 -1.3862 -0.8317 -0.1090
10894TIP3   OH254172   6.214   1.184  11.896 -0.1407  0.1971 -0.7588
10894TIP3    H154173   6.221   1.279  11.883 -1.3366  0.0676 -2.8894
10894TIP3    H254174   6.287   1.162  11.953 -1.1461  2.7096  1.7491
10895TIP3   OH254175   4.968   3.731   5.786 -0.7497  0.0957  0.5502
10895TIP3    H154176   4.931   3.767   5.705  2.5591  0.2209 -1.0585
10895TIP3    H254177   5.009   3.806   5.829 -0.2359 -0.4502  1.0233
10896TIP3   OH254178   6.594   4.335   4.673  0.2673 -0.0481 -0.1738
10896TIP3    H154179   6.649   4.337   4.594  1.3838 -1.2812  0.5287
10896TIP3    H254180   6.629   4.406   4.728 -1.2014  1.5203 -1.1786
10897TIP3   OH254181   0.630   6.016  12.243  0.2043 -0.3565 -0.4216
10897TIP3    H154182   0.618   5.961  12.166  0.1705 -1.7859  0.5758
10897TIP3    H254183   0.542   6.030  12.278  0.4299 -2.1636  0.9862
10898TIP3   OH254184   6.637   1.693   5.392 -0.2924  0.1465  0.1252
10898TIP3    H154185   6.663   1.780   5.360 -0.1054  0.3658  0.8587
10898TIP3    H254186   6.691   1.632   5.341  0.9654  0.5497  0.9171
10899TIP3   OH254187   3.284   2.987  15.362  0.5106  0.0367  0.6879
10899TIP3    H154188   3.253   3.078  15.352  1.3730  0.2213 -0.5273
10899TIP3    H254189   3.243   2.957  15.443  1.6835  2.1316  2.1633
10900TIP3   OH254190   2.741   3.880   5.352  0.5650  0.4063 -1.0372
10900TIP3    H154191   2.810   3.872   5.418 -1.1687  1.5652  1.0478
10900TIP3    H254192   2.691   3.799   5.360  1.0839 -0.0082 -1.8637
10901TIP3   OH254193   4.382   6.314   2.420 -0.1327 -0.2719 -0.5145
10901TIP3    H154194   4.367   6.248   2.351  2.6520 -1.8186  0.1970
10901TIP3    H254195   4.312   6.299   2.483 -1.5893 -0.1527 -2.0368
10902TIP3   OH254196   1.020   1.066   4.767 -0.2833  0.2327  0.1576
10902TIP3    H154197   1.104   1.022   4.754 -0.2972  0.0974  0.5355
10902TIP3    H254198   1.020   1.136   4.702 -1.8787 -2.5788 -3.2155
10903TIP3   OH254199   6.542   0.299   2.208  0.3206  0.4508  0.4150
10903TIP3    H154200   6.456   0.275   2.243  0.3494  1.2103  1.0333
10903TIP3    H254201   6.529   0.301   2.113  0.4537 -2.4611  0.2509
10904TIP3   OH254202   5.214   5.351   2.094 -0.6234  0.2813 -0.6010
10904TIP3    H154203   5.160   5.274   2.076 -2.8354  2.0863 -2.2773
10904TIP3    H254204   5.213   5.401   2.012  0.9359  1.9993  0.3492
10905TIP3   OH254205   2.160   0.001  14.517  0.8723 -0.2180 -0.2030
10905TIP3    H154206   2.208  -0.045  14.448  0.3935  0.7194 -1.1933
10905TIP3    H254207   2.101   0.060  14.470 -0.2721 -0.3575  1.0106
10906TIP3   OH254208   1.866   2.719  13.430  0.1207  0.0937  0.2466
10906TIP3    H154209   1.821   2.749  13.351  3.5544  1.8459 -1.2496
10906TIP3    H254210   1.863   2.795  13.489  1.9797  0.6510 -0.3306
10907TIP3   OH254211   0.741   4.360   0.387  0.4343 -0.0286  0.4707
10907TIP3    H154212   0.749   4.265   0.399  0.7682 -0.0603  0.0380
10907TIP3    H254213   0.830   4.393   0.393  0.5314  0.0506 -0.9645
10908TIP3   OH254214   5.611   5.141   0.058 -0.0178  0.8687 -0.4845
10908TIP3    H154215   5.559   5.091   0.122  1.2698  0.7117  0.4790
10908TIP3    H254216   5.702   5.130   0.087  0.4689  2.0934 -1.4528
10909TIP3   OH254217   6.224   5.256   2.783 -0.1425 -0.2830 -0.7638
10909TIP3    H154218   6.192   5.199   2.713  0.7221  0.7138 -2.0172
10909TIP3    H254219   6.151   5.315   2.801 -0.0690  0.0365 -1.4818
10910TIP3   OH254220   1.076   6.325  14.036  0.1459 -0.9659  0.0560
10910TIP3    H154221   1.047   6.402  14.085 -1.8572 -1.8528  0.3519
10910TIP3    H254222   1.088   6.257  14.103  0.6177 -1.2796 -0.3412
10911TIP3   OH254223   5.380   5.147   2.955  0.1499 -0.0517 -0.8460
10911TIP3    H154224   5.433   5.227   2.961  0.1752 -0.1593  0.7680
10911TIP3    H254225   5.293   5.178   2.932  0.3275  0.3699 -0.9701
10912TIP3   OH254226   6.538   2.748  12.008  0.4799  0.0465  0.6055
10912TIP3    H154227   6.478   2.684  11.969  0.7800 -0.0695  0.3201
10912TIP3    H254228   6.587   2.697  12.073  1.9933 -0.4956 -0.8783
10913TIP3   OH254229   0.203   4.617   1.435 -0.2906 -0.2754  0.2261
10913TIP3    H154230   0.253   4.538   1.414 -0.2529 -0.0860 -0.4238
10913TIP3    H254231   0.116   4.585   1.459 -0.6596 -0.4597 -1.2580
10914TIP3   OH254232   2.793   3.615  13.790  0.1936 -0.0477  0.3558
10914TIP3    H154233   2.866   3.612  13.852 -0.3422  1.4344  1.0845
10914TIP3    H254234   2.832   3.640  13.707  0.8427 -1.5866  0.1514
10915TIP3   OH254235   2.875   0.748  16.536  0.1443  0.3589 -0.6626
10915TIP3    H154236   2.926   0.809  16.483  0.2903  1.5187  0.7569
10915TIP3    H254237   2.937   0.714  16.600 -0.7029  1.4674  0.8208
10916TIP3   OH254238   3.575   3.136   2.725 -0.1322 -0.4625  0.2164
10916TIP3    H154239   3.554   3.177   2.809  0.5528 -1.7793  1.0761
10916TIP3    H254240   3.495   3.093   2.698 -0.4115  0.1298  0.0898
10917TIP3   OH254241   2.820   6.527   4.220  0.1669 -0.0087  0.0933
10917TIP3    H154242   2.751   6.518   4.285 -0.3805 -0.9562 -0.5871
10917TIP3    H254243   2.851   6.616   4.230 -0.9991  0.3615  0.5768
10918TIP3   OH254244   2.736   4.357   5.220  0.4966 -0.5170 -0.0052
10918TIP3    H154245   2.799   4.323   5.283  0.5057 -1.4483 -0.4963
10918TIP3    H254246   2.676   4.410   5.273  0.7782 -0.8913  0.7114
10919TIP3   OH254247   3.627   3.542   6.910  0.2337 -0.4069 -0.3159
10919TIP3    H154248   3.532   3.556   6.911  0.4344  1.6459 -2.6079
10919TIP3    H254249   3.660   3.600   6.979 -0.2886 -3.8593  3.2029
10920TIP3   OH254250   0.917   4.639   3.868 -0.2360 -0.0705  0.6036
10920TIP3    H154251   0.824   4.662   3.868 -0.0292  0.7894 -0.4483
10920TIP3    H254252   0.957   4.702   3.928 -0.1879  0.1609  0.3291
10921TIP3   OH254253   5.245   0.542   0.766 -0.5386 -0.1349  0.5687
10921TIP3    H154254   5.166   0.595   0.774  0.6036  1.6117  0.6265
10921TIP3    H254255   5.306   0.596   0.717  1.1982 -0.7985  1.8932
10922TIP3   OH254256   2.004   1.888  12.321  0.1586 -0.6118  0.3289
10922TIP3    H154257   2.024   1.930  12.405  0.9404 -2.6514  1.2110
10922TIP3    H254258   2.088   1.885  12.276  0.0466 -0.9763  0.1481
10923TIP3   OH254259   4.461   6.741   4.522 -0.0485  0.0643 -0.1973
10923TIP3    H154260   4.549   6.771   4.499 -0.6355  3.1275  0.9780
10923TIP3    H254261   4.473   6.688   4.600  0.7561  0.3988 -0.0806
10924TIP3   OH254262   5.714   0.645   5.319  0.0905 -0.4454  0.6931
10924TIP3    H154263   5.721   0.725   5.370 -1.6238 -1.0290  1.9159
10924TIP3    H254264   5.698   0.576   5.383 -2.2076 -1.1970 -0.5669
10925TIP3   OH254265   0.280   2.457  12.020 -0.5195 -0.2642  0.2415
10925TIP3    H154266   0.363   2.504  12.031 -1.0739  0.3511  2.0136
10925TIP3    H254267   0.254   2.477  11.930  0.2520  1.1785  0.3055
10926TIP3   OH254268   1.464   3.726   4.183 -0.3495 -0.5255  0.6016
10926TIP3    H154269   1.540   3.783   4.175 -0.2182 -0.5190  1.6980
10926TIP3    H254270   1.411   3.745   4.105  0.3657  0.0676  0.2465
10927TIP3   OH254271   6.590   5.391   4.102 -0.2201 -0.1181  0.1048
10927TIP3    H154272   6.659   5.399   4.168  1.2786 -0.4212 -1.3545
10927TIP3    H254273   6.609   5.308   4.057 -1.8278 -0.4451 -0.0353
10928TIP3   OH254274   0.306   0.272   2.580 -0.0097  0.3539 -0.0947
10928TIP3    H154275   0.308   0.342   2.514 -3.5132  0.3958 -0.3692
10928TIP3    H254276   0.340   0.313   2.660 -0.5509  1.9424 -0.6392
10929TIP3   OH254277   5.900   4.103  16.543  0.2242  0.2973 -0.4390
10929TIP3    H154278   5.991   4.080  16.562  0.0997  0.4037  0.2957
10929TIP3    H254279   5.903   4.136  16.453  0.8334 -0.1271 -0.5891
10930TIP3   OH254280   3.754   6.083   1.061 -0.3432  0.2585 -0.2184
10930TIP3    H154281   3.727   6.168   1.026 -0.3157 -0.0551 -1.0401
10930TIP3    H254282   3.778   6.101   1.152 -1.5239  0.8884 -0.0088
10931TIP3   OH254283   3.406   0.042   1.392 -0.1677  0.0081 -0.1120
10931TIP3    H154284   3.459   0.085   1.325 -1.9643  0.5162 -1.2935
10931TIP3    H254285   3.352   0.112   1.429 -0.2779 -0.5380  0.8017
10932TIP3   OH254286   2.687   4.161  11.671  0.0327 -0.1966  0.5143
10932TIP3    H154287   2.685   4.190  11.762 -1.3032 -0.6440  0.6551
10932TIP3    H254288   2.711   4.239  11.621 -1.4342  0.6479  1.0668
10933TIP3   OH254289   3.431   2.585   4.880 -0.0806 -0.5851  0.1266
10933TIP3    H154290   3.476   2.510   4.919  0.5316 -0.1596  0.2581
10933TIP3    H254291   3.461   2.660   4.931 -0.8328 -0.2712  0.1188
10934TIP3   OH254292   1.262   6.371   3.590  0.4414 -0.0614 -0.1914
10934TIP3    H154293   1.256   6.277   3.570  1.7807  0.1436 -1.7804
10934TIP3    H254294   1.350   6.396   3.563 -0.3339  1.9327 -1.0896
10935TIP3   OH254295   5.994   0.719  13.853  0.3348 -0.5781 -0.3060
10935TIP3    H154296   6.079   0.756  13.875  1.1876 -1.8539 -1.3262
10935TIP3    H254297   5.955   0.782  13.792  0.5285 -0.0011  0.1537
10936TIP3   OH254298   4.523   4.376   2.383  0.0519  0.2442 -0.2384
10936TIP3    H154299   4.519   4.322   2.304 -0.9468  1.3270 -0.9496
10936TIP3    H254300   4.472   4.454   2.362  1.6748  1.6142  0.6802
10937TIP3   OH254301   5.692   2.564   0.946  0.0769  0.1743 -0.9357
10937TIP3    H154302   5.770   2.615   0.968 -0.0862 -0.4944  1.4413
10937TIP3    H254303   5.620   2.611   0.987  0.0048 -2.1920  1.9519
10938TIP3   OH254304   2.254   5.773   4.044 -0.5513 -0.2439 -0.0326
10938TIP3    H154305   2.186   5.836   4.067 -0.2412 -0.3777  1.3253
10938TIP3    H254306   2.324   5.826   4.005 -0.8291  0.0800 -0.0929
10939TIP3   OH254307   4.509   2.819   5.625  0.3699 -0.6371 -0.4163
10939TIP3    H154308   4.434   2.877   5.630  0.1235 -0.9664 -0.2169
10939TIP3    H254309   4.482   2.741   5.674  0.6029 -1.0166 -0.8875
10940TIP3   OH254310   1.231   4.474   2.507 -0.1097 -0.9012 -0.5616
10940TIP3    H154311   1.201   4.554   2.463 -1.4513 -0.6536  0.7089
10940TIP3    H254312   1.263   4.418   2.436 -1.0673 -0.0455 -1.7086
10941TIP3   OH254313   6.278   2.055   5.017 -0.5288 -0.2340  0.5590
10941TIP3    H154314   6.345   2.108   4.974 -0.8061 -0.9789 -0.8206
10941TIP3    H254315   6.278   2.087   5.108  0.7470  0.6918  0.2658
10942TIP3   OH254316   1.149   6.605  16.342 -0.0147 -0.0563  0.8683
10942TIP3    H154317   1.090   6.651  16.402 -0.3266 -0.8019  1.1562
10942TIP3    H254318   1.162   6.665  16.270 -0.9751  0.2065  0.9015
10943TIP3   OH254319   1.637   0.032   2.251  0.1490 -0.2714  0.1389
10943TIP3    H154320   1.658  -0.001   2.338  1.9956  1.6693  0.5260
10943TIP3    H254321   1.578   0.106   2.267  0.2683 -0.0858 -0.2807
10944TIP3   OH254322   5.559   5.231  16.280 -0.7514 -0.0979  0.2280
10944TIP3    H154323   5.551   5.224  16.376 -0.4861  0.2410  0.2782
10944TIP3    H254324   5.549   5.325  16.263  1.0293  0.1054  0.1011
10945TIP3   OH254325   5.583   4.600  15.984  0.1332 -0.1148 -0.3295
10945TIP3    H154326   5.504   4.580  16.035  0.1570  1.4428  0.3993
10945TIP3    H254327   5.549   4.640  15.904  0.1573  0.1024 -0.2330
10946TIP3   OH254328   2.902   2.688   3.657  0.3226 -0.3460  0.4160
10946TIP3    H154329   2.861   2.638   3.727  2.4738 -1.1670  1.1868
10946TIP3    H254330   2.856   2.772   3.657 -1.7601 -1.4188  0.7173
10947TIP3   OH254331   2.541   1.214   1.650  0.1072 -0.8773 -0.1061
10947TIP3    H154332   2.569   1.123   1.659  1.6668 -0.5397 -1.2790
10947TIP3    H254333   2.450   1.208   1.621 -0.1127 -2.0404  0.7691
10948TIP3   OH254334   5.064   1.829   4.545 -0.5289 -0.2752  0.5742
10948TIP3    H154335   5.009   1.906   4.529 -0.5789 -0.5427 -0.6463
10948TIP3    H254336   5.145   1.864   4.583 -1.5941  0.1070  2.6787
10949TIP3   OH254337   3.811   1.945  11.475  1.0414 -0.0091 -0.2764
10949TIP3    H154338   3.789   1.903  11.558 -1.3388 -1.4563 -1.5528
10949TIP3    H254339   3.807   2.039  11.494 -2.9795 -0.1858  0.5452
10950TIP3   OH254340   1.102   0.067   5.313 -0.3928 -0.2267  0.1120
10950TIP3    H154341   1.094   0.117   5.231 -1.3665  0.1277  0.4057
10950TIP3    H254342   1.011   0.052   5.340 -0.0807 -0.7025  0.9120
10951TIP3   OH254343   3.250   3.876   0.017  0.2452  0.2198  0.2142
10951TIP3    H154344   3.202   3.894   0.098  0.3462 -0.5378  0.4499
10951TIP3    H254345   3.195   3.813  -0.030  1.8412 -2.2500  1.3965
10952TIP3   OH254346   2.891   1.462   1.023 -0.2239  0.4399  0.4161
10952TIP3    H154347   2.954   1.512   0.971 -0.7565 -0.4933 -1.2149
10952TIP3    H254348   2.938   1.384   1.050 -0.2105  0.5069  0.5900
10953TIP3   OH254349   6.212   4.804   5.027  0.4027 -1.0265 -0.1014
10953TIP3    H154350   6.291   4.839   4.986 -0.7376  0.0284 -1.4925
10953TIP3    H254351   6.176   4.743   4.963 -0.8514 -0.1393 -0.2741
10954TIP3   OH254352   6.834   0.129  17.073  0.3926 -0.2502 -0.1331
10954TIP3    H154353   6.743   0.127  17.103  0.6511  0.0284  0.6898
10954TIP3    H254354   6.870   0.044  17.098  1.0582  0.5688  1.8351
10955TIP3   OH254355   5.569   3.282  12.955  0.0031 -0.2011 -0.1865
10955TIP3    H154356   5.530   3.369  12.948  0.1149  0.2739  3.3175
10955TIP3    H254357   5.658   3.293  12.921 -0.9611  0.1695 -2.7595
10956TIP3   OH254358   6.338   0.009  11.957  0.3086  0.5186  0.6588
10956TIP3    H154359   6.322   0.045  12.044 -0.7834 -0.3202  0.8355
10956TIP3    H254360   6.400  -0.063  11.972  0.5617  0.7356  0.6585
10957TIP3   OH254361   6.291   3.753   5.172  0.7484  0.6154 -0.2541
10957TIP3    H154362   6.213   3.770   5.119  1.4048 -1.6346 -2.1443
10957TIP3    H254363   6.364   3.784   5.118  1.3646 -0.5871 -0.1403
10958TIP3   OH254364   0.826   4.365  10.965 -0.2841 -0.1623  0.8315
10958TIP3    H154365   0.733   4.343  10.974 -0.5573  0.0919 -0.9151
10958TIP3    H254366   0.866   4.285  10.929 -0.3882  0.5820 -1.0500
10959TIP3   OH254367   2.161   1.049  13.327  0.2109  0.3790  0.0592
10959TIP3    H154368   2.248   1.053  13.287  0.6638 -0.7162  0.8821
10959TIP3    H254369   2.146   1.138  13.361 -0.1847  1.3367 -2.4419
10960TIP3   OH254370   0.444   2.229   3.502 -0.2135 -0.7383  0.0759
10960TIP3    H154371   0.521   2.174   3.483 -0.0507 -0.4836 -0.0032
10960TIP3    H254372   0.419   2.205   3.591  1.8083  1.3563  1.3014
10961TIP3   OH254373   1.351   6.157  10.431  0.5301 -0.2289  0.0966
10961TIP3    H154374   1.282   6.091  10.431 -1.5822  1.7251  3.3333
10961TIP3    H254375   1.411   6.129  10.500  0.2642  0.5781  0.6677
10962TIP3   OH254376   5.845   2.002  11.183  0.9623 -0.6039 -0.7947
10962TIP3    H154377   5.873   1.927  11.235  0.6026 -0.8456 -0.9468
10962TIP3    H254378   5.842   1.969  11.093  0.4675 -0.5041 -0.8165
10963TIP3   OH254379   4.119   5.418  12.177  0.1067  0.3044 -0.3127
10963TIP3    H154380   4.160   5.396  12.261  1.5702 -2.4703 -1.6262
10963TIP3    H254381   4.124   5.337  12.126 -0.3066  2.0181 -3.2675
10964TIP3   OH254382   4.276   0.447   5.820 -0.4405  0.7385  0.3442
10964TIP3    H154383   4.359   0.437   5.866 -1.5552 -0.4417  2.2442
10964TIP3    H254384   4.298   0.494   5.739  1.6029  3.1994  2.1655
10965TIP3   OH254385   3.182   3.216   2.123  0.2343 -0.0846  0.0003
10965TIP3    H154386   3.244   3.284   2.150  0.1491  0.5559 -1.3527
10965TIP3    H254387   3.107   3.264   2.087 -0.4569 -0.8773  0.3382
10966TIP3   OH254388   2.379   1.206   2.092  0.3117  0.1230 -0.5623
10966TIP3    H154389   2.455   1.257   2.119 -1.1407  2.2401 -0.2481
10966TIP3    H254390   2.334   1.184   2.174  0.7680 -1.4528 -0.7171
10967TIP3   OH254391   5.201   5.293  14.956  0.0871  0.1368  0.2620
10967TIP3    H154392   5.164   5.220  14.907 -0.4206 -0.5647  1.6433
10967TIP3    H254393   5.273   5.324  14.901 -2.1038  1.2003 -2.2583
10968TIP3   OH254394   1.382   5.393  13.351 -0.0325 -0.0794  0.2530
10968TIP3    H154395   1.354   5.322  13.294  0.5787 -0.9126  0.9711
10968TIP3    H254396   1.450   5.438  13.301 -0.6183  0.2037 -0.3178
10969TIP3   OH254397   6.634   5.620   0.911 -0.1343 -0.3776 -0.2142
10969TIP3    H154398   6.628   5.592   0.820  0.6536  0.1454 -0.4276
10969TIP3    H254399   6.689   5.698   0.910 -1.9616  1.0067  0.4220
10970TIP3   OH254400   0.464   3.502  14.636  0.2660  0.7925 -0.0039
10970TIP3    H154401   0.471   3.469  14.547  0.2474 -2.4572  1.0483
10970TIP3    H254402   0.530   3.571  14.642  1.6624 -0.2833 -1.9678
10971TIP3   OH254403   1.673   4.787  16.685 -0.3540  0.3326 -0.0501
10971TIP3    H154404   1.741   4.755  16.744 -1.5404  0.3943  1.3938
10971TIP3    H254405   1.712   4.864  16.643  0.9311 -0.4056 -0.2529
10972TIP3   OH254406   6.399   5.917   5.042  0.3134 -0.1396  0.4712
10972TIP3    H154407   6.426   5.888   5.129  1.4693 -0.5727 -0.0016
10972TIP3    H254408   6.304   5.912   5.043  0.1912  1.4226  2.2268
10973TIP3   OH254409   1.588   1.851   0.014 -0.8320  0.3214  0.3541
10973TIP3    H154410   1.668   1.902   0.025 -1.0884  0.4444  1.9664
10973TIP3    H254411   1.597   1.809  -0.071  1.9671 -1.4412  1.4008
10974TIP3   OH254412   3.240   2.514  15.305 -0.7176 -0.2226 -0.0662
10974TIP3    H154413   3.189   2.531  15.226 -1.5778 -0.1563  0.4928
10974TIP3    H254414   3.311   2.578  15.301  0.0705 -1.1264 -1.4785
10975TIP3   OH254415   1.448   1.314  16.194  0.1401  0.3318  0.3226
10975TIP3    H154416   1.414   1.266  16.269 -0.2567  2.4117  1.5464
10975TIP3    H254417   1.490   1.247  16.139 -2.3485 -1.7350  0.7625
10976TIP3   OH254418   5.181   0.008  15.511  0.4924  0.3140 -0.0719
10976TIP3    H154419   5.235   0.035  15.437  0.5017  2.1054  0.5217
10976TIP3    H254420   5.094   0.041  15.489  0.3028  0.0642  0.3063
10977TIP3   OH254421   1.188   5.125   2.897 -0.2878 -0.3208 -0.3367
10977TIP3    H154422   1.193   5.210   2.853 -1.4370 -0.5665 -0.9915
10977TIP3    H254423   1.235   5.065   2.838  1.4647  0.0258  0.6462
10978TIP3   OH254424   6.427   6.273   0.994  0.0177  0.1491  0.1439
10978TIP3    H154425   6.374   6.258   1.073 -0.9624  1.9178 -0.1237
10978TIP3    H254426   6.409   6.197   0.939  0.0259 -0.6859  1.2596
10979TIP3   OH254427   3.344   0.417   6.275  0.2649 -0.6210  0.7112
10979TIP3    H154428   3.261   0.463   6.267  1.1954  0.8771 -1.0416
10979TIP3    H254429   3.389   0.460   6.347  0.1624 -0.3575  0.6174
10980TIP3   OH254430   3.082   4.116   6.070 -0.0624 -0.6614  0.6669
10980TIP3    H154431   3.154   4.058   6.043  0.7006 -0.0984  1.4703
10980TIP3    H254432   3.050   4.078   6.152 -1.1183 -1.2636  0.0129
10981TIP3   OH254433   1.788   5.409  14.882 -0.4273  0.9149  0.2757
10981TIP3    H154434   1.882   5.388  14.878 -0.1017  2.0171  1.4471
10981TIP3    H254435   1.764   5.426  14.791  0.5579  0.7493 -0.0312
10982TIP3   OH254436   2.241   4.086  15.520  0.2583  0.5661 -0.4237
10982TIP3    H154437   2.274   4.016  15.464 -2.6104 -0.7540 -0.6416
10982TIP3    H254438   2.224   4.158  15.460  0.9262  0.6092 -0.5754
10983TIP3   OH254439   0.349   0.702  11.577 -0.0951  0.1972  0.0261
10983TIP3    H154440   0.292   0.765  11.621 -0.2044  1.0877 -1.3368
10983TIP3    H254441   0.356   0.734  11.487  0.5066 -1.3032 -0.4994
10984TIP3   OH254442   3.648   2.787  16.150 -0.1041 -0.5126  0.4097
10984TIP3    H154443   3.639   2.694  16.132 -2.3298 -0.1526 -0.7602
10984TIP3    H254444   3.594   2.829  16.083  0.9862  1.6366  0.7906
10985TIP3   OH254445   5.633   0.009  17.156  0.3287  0.4872 -0.3130
10985TIP3    H154446   5.696  -0.011  17.087 -0.5044 -1.5624 -0.5558
10985TIP3    H254447   5.551   0.027  17.109  0.1140  0.5216  0.0680
10986TIP3   OH254448   2.252   5.338   4.134  0.0822 -0.7032 -0.6441
10986TIP3    H154449   2.279   5.306   4.220 -1.7104 -2.1927 -0.5878
10986TIP3    H254450   2.333   5.373   4.095  0.9994 -0.3080  1.4683
10987TIP3   OH254451   4.865   2.282  13.679 -0.4981  0.4501 -0.2507
10987TIP3    H154452   4.794   2.346  13.688 -0.5057  0.3504  0.4390
10987TIP3    H254453   4.922   2.320  13.612 -1.6392  0.1134 -1.4682
10988TIP3   OH254454   6.751   4.677   5.477 -0.4218 -0.0887 -0.4100
10988TIP3    H154455   6.739   4.710   5.566  0.1866  1.5961 -0.9218
10988TIP3    H254456   6.705   4.593   5.477 -0.4595 -0.1169  1.4731
10989TIP3   OH254457   4.657   2.890  17.107 -0.0612 -0.2730  0.0871
10989TIP3    H154458   4.722   2.866  17.042  0.1528  1.2273 -0.2922
10989TIP3    H254459   4.591   2.940  17.058 -1.2329 -1.2903  0.5612
10990TIP3   OH254460   1.781   1.355  15.379  0.0865 -0.0247 -0.0169
10990TIP3    H154461   1.871   1.362  15.345  0.4674 -1.9271  0.4612
10990TIP3    H254462   1.775   1.425  15.445  1.0316  0.4568 -0.4136
10991TIP3   OH254463   0.270   1.436   2.952  0.1339  0.1302 -0.3428
10991TIP3    H154464   0.317   1.507   2.910 -0.6751  0.6038 -0.4789
10991TIP3    H254465   0.180   1.445   2.920  0.1307 -1.2785 -0.7833
10992TIP3   OH254466   6.012   3.797  10.772  0.1446  0.7219  0.2776
10992TIP3    H154467   6.047   3.717  10.733  1.1028  0.3814  1.7548
10992TIP3    H254468   6.067   3.867  10.738  0.2696  0.5658  0.1611
10993TIP3   OH254469   5.144   3.886   5.549  0.1480  0.0057 -0.2642
10993TIP3    H154470   5.156   3.974   5.585 -0.1833  0.1562 -0.5201
10993TIP3    H254471   5.233   3.856   5.530  0.1712  1.1233 -2.1712
10994TIP3   OH254472   3.320   6.813   0.129 -0.2312  0.6391  0.0417
10994TIP3    H154473   3.384   6.744   0.150  0.1852  0.9964 -0.0464
10994TIP3    H254474   3.297   6.797   0.037 -3.9174 -2.4649  1.2231
10995TIP3   OH254475   5.011   5.955   0.432  0.1334 -0.3248  0.1356
10995TIP3    H154476   5.002   6.043   0.395  0.8508 -0.0426  0.5992
10995TIP3    H254477   5.089   5.919   0.390  0.8297 -0.0841  1.1693
10996TIP3   OH254478   0.983   2.301   1.206 -0.1667  0.7652  0.0578
10996TIP3    H154479   1.030   2.308   1.288 -0.1130  4.4580 -0.1242
10996TIP3    H254480   1.046   2.328   1.139 -1.2491  1.5810 -0.6890
10997TIP3   OH254481   0.099   6.761   0.308  0.5739 -0.0466  0.0865
10997TIP3    H154482   0.169   6.732   0.250  0.3435 -0.8352  0.1917
10997TIP3    H254483   0.020   6.758   0.254  0.6138  0.8646 -0.0399
10998TIP3   OH254484   0.272   3.963   3.664 -0.0739 -0.0788  0.0114
10998TIP3    H154485   0.235   3.885   3.624 -0.9651  0.3065  0.0563
10998TIP3    H254486   0.362   3.940   3.683 -0.2126 -0.9552 -0.3522
10999TIP3   OH254487   3.328   4.433  12.351 -0.3003 -0.2479  0.3796
10999TIP3    H154488   3.285   4.514  12.324  1.4601  1.4964  2.3843
10999TIP3    H254489   3.266   4.391  12.411 -0.7472  0.2507  0.2706
11000TIP3   OH254490   1.822   5.958  12.762 -0.3739 -0.4267  0.3544
11000TIP3    H154491   1.882   5.913  12.822  0.0065 -1.9757 -1.0883
11000TIP3    H254492   1.746   5.980  12.815  0.2830 -1.0126  1.5766
11001TIP3   OH254493   1.034   1.149   0.796 -0.4080  0.1537  0.0646
11001TIP3    H154494   1.121   1.118   0.770 -1.2133 -1.1784 -1.2093
11001TIP3    H254495   1.050   1.209   0.868  1.4561 -1.3225  0.9595
11002TIP3   OH254496   3.025   5.080  13.384 -0.0492 -0.1872  0.0191
11002TIP3    H154497   2.997   5.157  13.433  0.1497 -1.4417  2.2167
11002TIP3    H254498   3.091   5.113  13.324 -2.2477  1.8965 -1.4636
11003TIP3   OH254499   2.767   3.765  16.313  0.1088  0.2073  0.2490
11003TIP3    H154500   2.795   3.772  16.405 -0.2048  0.7593  0.3071
11003TIP3    H254501   2.770   3.855  16.281  1.5690 -0.1311 -0.6882
11004TIP3   OH254502   3.365   0.020   0.864 -0.2791  0.3848 -0.2849
11004TIP3    H154503   3.305   0.070   0.920 -0.0923  0.8804 -0.5213
11004TIP3    H254504   3.364   0.066   0.780  0.8506  0.7211 -0.1244
11005TIP3   OH254505   0.127   2.310   3.122  0.5243 -0.1169  0.1298
11005TIP3    H154506   0.115   2.279   3.212  1.4444  0.1177  0.3342
11005TIP3    H254507   0.040   2.298   3.082  0.2907 -0.9118  0.8268
11006TIP3   OH254508   1.792   2.302   5.283  0.6640 -0.3244  0.7518
11006TIP3    H154509   1.792   2.398   5.283 -0.4043 -0.1708 -3.1103
11006TIP3    H254510   1.858   2.278   5.217  2.7009 -2.4502  3.3256
11007TIP3   OH254511   4.017   2.654  10.884 -0.1458 -0.0810 -0.5756
11007TIP3    H154512   3.988   2.723  10.944 -0.1012 -0.6098  0.0757
11007TIP3    H254513   3.937   2.623  10.842  0.0094  1.3828 -2.0079
11008TIP3   OH254514   1.013   1.239  15.392 -0.1045 -0.0892  0.1870
11008TIP3    H154515   1.005   1.194  15.308  1.0173  1.2376 -0.6626
11008TIP3    H254516   1.083   1.194  15.438  0.4015  0.2097 -0.2867
11009TIP3   OH254517   3.663   6.783   3.660  0.3171  0.3407  0.2204
11009TIP3    H154518   3.697   6.693   3.659  1.4862  0.6759  2.2646
11009TIP3    H254519   3.569   6.773   3.674  0.2184 -0.5592 -0.9362
11010TIP3   OH254520   5.170   0.443  13.244  0.0511 -0.0018  0.1345
11010TIP3    H154521   5.221   0.379  13.194 -0.0083 -0.3094  0.4641
11010TIP3    H254522   5.221   0.524  13.238 -0.3055  0.1504 -1.0059
11011TIP3   OH254523   5.660   2.718  15.608  0.4338 -0.8649 -0.1637
11011TIP3    H154524   5.648   2.624  15.597 -0.0937 -1.0368  1.5596
11011TIP3    H254525   5.689   2.729  15.698 -0.0405  0.6603 -0.1554
11012TIP3   OH254526   2.803   5.583   2.642 -0.0607 -0.0135 -0.0506
11012TIP3    H154527   2.786   5.491   2.666  2.7732 -0.8051 -0.6546
11012TIP3    H254528   2.724   5.611   2.597 -0.4526 -2.7462 -1.3078
11013TIP3   OH254529   6.688   4.689   3.634 -0.1771  0.2054  0.2470
11013TIP3    H154530   6.761   4.698   3.573  0.5353 -2.4915  0.6050
11013TIP3    H254531   6.706   4.609   3.683 -3.2311 -0.4610  0.5109
11014TIP3   OH254532   2.871   5.230   5.025  0.5674 -0.4992 -0.0950
11014TIP3    H154533   2.899   5.139   5.027 -0.4786 -0.8575 -0.6662
11014TIP3    H254534   2.949   5.281   5.047  1.0560 -1.5531  0.6541
11015TIP3   OH254535   2.908   5.792  11.822  0.0485  0.0390 -0.3014
11015TIP3    H154536   2.971   5.722  11.835 -0.7355 -1.0370 -2.0411
11015TIP3    H254537   2.921   5.850  11.898  1.4084 -1.4189  0.6389
11016TIP3   OH254538   0.045   4.146   5.347 -0.3837 -0.5726 -0.5248
11016TIP3    H154539  -0.024   4.165   5.412 -0.6829 -1.5524 -0.5479
11016TIP3    H254540   0.102   4.083   5.390  0.8743  0.6781 -0.2782
11017TIP3   OH254541   3.156   0.491  14.402 -0.0595  0.4293  0.0188
11017TIP3    H154542   3.190   0.567  14.450 -0.2780  1.4115 -1.3306
11017TIP3    H254543   3.086   0.527  14.348 -0.0219 -0.7066 -0.8032
11018TIP3   OH254544   6.228   0.559   1.318  0.1864  0.1020  1.0468
11018TIP3    H154545   6.271   0.592   1.397  1.9399  0.1970  0.1033
11018TIP3    H254546   6.267   0.609   1.247  0.8497 -1.9812 -0.1634
11019TIP3   OH254547   5.032   1.179  15.788  0.8946  0.3671 -0.1101
11019TIP3    H154548   5.005   1.254  15.841  0.8123 -1.1451  2.1429
11019TIP3    H254549   5.028   1.104  15.849  2.2135 -1.2541 -1.8922
11020TIP3   OH254550   1.181   0.144   5.943 -0.0683  0.6222 -0.2133
11020TIP3    H154551   1.275   0.159   5.949  0.3648 -1.9290  0.7550
11020TIP3    H254552   1.158   0.101   6.025 -2.1810  1.5128 -0.2674
11021TIP3   OH254553   0.233   3.740  17.032 -0.2538  0.3732  0.0558
11021TIP3    H154554   0.244   3.736  17.127 -0.0634  0.4360  0.0356
11021TIP3    H254555   0.261   3.828  17.008  1.4919 -0.2460 -0.2983
11022TIP3   OH254556   1.476   5.044   3.354  0.0085  0.2705 -0.3611
11022TIP3    H154557   1.389   5.011   3.374  0.3807 -0.2899  0.3813
11022TIP3    H254558   1.494   5.013   3.265  0.1236 -1.0734  0.1083
11023TIP3   OH254559   4.669   4.752   3.040 -0.2919  0.3682 -0.0248
11023TIP3    H154560   4.725   4.697   2.984 -1.5275 -1.2352  0.2487
11023TIP3    H254561   4.724   4.774   3.115  0.2288 -0.5598 -0.1183
11024TIP3   OH254562   6.357   4.725   0.251  0.0747 -0.0464  0.5764
11024TIP3    H154563   6.449   4.700   0.258 -0.5193 -3.2837 -1.2268
11024TIP3    H254564   6.314   4.680   0.324 -0.5155 -1.6519 -0.6915
11025TIP3   OH254565   2.440   6.797  11.800  0.3166 -0.4054 -0.0096
11025TIP3    H154566   2.388   6.743  11.741  1.1399 -1.4331  0.1705
11025TIP3    H254567   2.472   6.737  11.867 -1.0360  0.8264  1.8443
11026TIP3   OH254568   6.505   2.940   0.461 -0.0718 -0.0172  0.2984
11026TIP3    H154569   6.453   2.913   0.386 -1.2275  0.5981  0.8486
11026TIP3    H254570   6.522   3.033   0.446  2.2937 -0.5345 -0.6682
11027TIP3   OH254571   0.691   4.223   3.457 -0.0867  0.2129 -0.0883
11027TIP3    H154572   0.609   4.261   3.425  0.2455  0.7929 -0.2723
11027TIP3    H254573   0.691   4.134   3.423  0.2500  0.7962 -1.7362
11028TIP3   OH254574   6.132   2.678   3.069  0.7103  0.0202 -0.1363
11028TIP3    H154575   6.134   2.631   3.152  0.8316 -2.2874 -1.3549
11028TIP3    H254576   6.213   2.652   3.025 -0.1128 -0.1623 -1.6254
11029TIP3   OH254577   2.846   6.739   5.491 -0.4375  0.5810 -0.2810
11029TIP3    H154578   2.822   6.766   5.580  0.1686 -0.6058  0.2689
11029TIP3    H254579   2.940   6.723   5.496 -0.5356 -0.2295 -0.9453
11030TIP3   OH254580   2.414   6.554  16.170 -0.1402 -0.6416  0.2517
11030TIP3    H154581   2.371   6.581  16.089 -3.7441 -3.2550  1.0791
11030TIP3    H254582   2.480   6.490  16.142 -1.0026 -1.1515 -0.6790
11031TIP3   OH254583   4.556   3.136   0.677  0.3812 -0.2530 -0.3741
11031TIP3    H154584   4.469   3.151   0.713  0.5586 -0.1832  0.0282
11031TIP3    H254585   4.543   3.134   0.582 -0.1383 -0.7714 -0.2965
11032TIP3   OH254586   0.465   4.090   5.684 -0.3011 -0.1072  0.3103
11032TIP3    H154587   0.446   3.998   5.663  0.0672 -0.4175  1.2911
11032TIP3    H254588   0.529   4.116   5.618 -0.0468 -0.7031  0.3081
11033TIP3   OH254589   4.212   1.739  11.112 -0.1543 -0.0720 -0.4969
11033TIP3    H154590   4.185   1.754  11.203 -1.4909  2.8895 -1.2715
11033TIP3    H254591   4.195   1.646  11.098 -1.4504 -0.2805  1.8074
11034TIP3   OH254592   3.977   5.998   5.721 -0.3263  0.4129  0.2183
11034TIP3    H154593   4.008   6.068   5.780  0.6950  0.4839 -0.3781
11034TIP3    H254594   3.909   6.039   5.669 -1.4515  0.2743  1.5205
11035TIP3   OH254595   1.519   0.784  16.087 -0.3664 -0.0863  0.5769
11035TIP3    H154596   1.596   0.799  16.141 -0.8446  1.3044  0.9145
11035TIP3    H254597   1.504   0.690  16.092  1.2437 -0.3718  0.5781
11036TIP3   OH254598   3.723   6.513  15.468  0.2073  0.3676 -0.0267
11036TIP3    H154599   3.644   6.555  15.433  0.3567 -0.7191 -1.8395
11036TIP3    H254600   3.794   6.574  15.446  0.2113  0.0043 -1.1116
11037TIP3   OH254601   1.449   1.235  17.048 -0.4923 -0.8245  0.0729
11037TIP3    H154602   1.479   1.226  17.138 -2.6077  0.9530  1.0548
11037TIP3    H254603   1.357   1.209  17.050 -1.1603  1.2330 -1.0865
11038TIP3   OH254604   2.325   1.596   2.396 -0.4794 -0.1664  0.4301
11038TIP3    H154605   2.373   1.635   2.323  0.8514 -0.3107  1.1955
11038TIP3    H254606   2.357   1.505   2.400 -0.8654 -0.2844  0.9212
11039TIP3   OH254607   6.779   1.149   1.006  0.0746 -0.0157  0.5656
11039TIP3    H154608   6.744   1.063   1.030  0.1979  0.1293  1.3019
11039TIP3    H254609   6.725   1.177   0.932  0.5866 -1.0971 -0.2528
11040TIP3   OH254610   0.942   4.064  14.388  0.6293 -0.4154  0.2902
11040TIP3    H154611   0.863   4.119  14.391 -0.2303 -1.6373  1.8237
11040TIP3    H254612   0.990   4.095  14.311 -0.1451  1.9871  0.6736
11041TIP3   OH254613   0.873   5.831  14.997  0.2285  0.1505 -0.3129
11041TIP3    H154614   0.789   5.846  14.954 -0.7344  0.8701  1.7035
11041TIP3    H254615   0.898   5.743  14.969 -0.1111  0.7253 -2.6099
11042TIP3   OH254616   3.175   3.308   5.453 -0.2894 -0.1096 -0.0886
11042TIP3    H154617   3.163   3.379   5.389 -2.4419  0.5550  0.9666
11042TIP3    H254618   3.087   3.273   5.466  0.3545 -1.2681  1.3794
11043TIP3   OH254619   0.848   0.669   1.697  0.3225 -0.3849 -0.3469
11043TIP3    H154620   0.755   0.674   1.716  0.3617  2.2995 -0.4862
11043TIP3    H254621   0.880   0.595   1.749 -2.0308 -2.1716 -1.2672
11044TIP3   OH254622   4.383   0.690   2.846  0.0482 -0.2314 -0.2609
11044TIP3    H154623   4.455   0.629   2.832 -1.3316 -1.6874 -1.3143
11044TIP3    H254624   4.364   0.725   2.759  0.0968  0.9042  0.1627
11045TIP3   OH254625   4.479   2.561   6.010  0.4946  0.1897  0.0110
11045TIP3    H154626   4.476   2.599   6.098  0.6611 -0.0804  0.1358
11045TIP3    H254627   4.526   2.479   6.022  0.4658  0.1254 -0.3227
11046TIP3   OH254628   4.285   3.464   3.016 -0.0352 -0.1166  0.2053
11046TIP3    H154629   4.211   3.517   3.046  1.0850  2.3017 -0.9504
11046TIP3    H254630   4.302   3.403   3.087 -2.5766 -0.1748  0.8552
11047TIP3   OH254631   3.950   4.276  16.667 -0.6705 -0.4344 -0.1987
11047TIP3    H154632   3.921   4.361  16.635  2.2252  0.3204 -1.1288
11047TIP3    H254633   4.021   4.296  16.727  1.0985 -2.1629 -1.5809
11048TIP3   OH254634   5.090   6.592   2.814  0.4552  0.2253 -0.0344
11048TIP3    H154635   5.108   6.632   2.899 -0.7405  1.5708 -0.3738
11048TIP3    H254636   4.995   6.581   2.813  0.4000  0.6460 -1.3483
11049TIP3   OH254637   5.251   3.044  13.374  0.0434  0.1196 -0.4967
11049TIP3    H154638   5.301   3.046  13.292  0.2903  1.3718 -0.3377
11049TIP3    H254639   5.163   3.017  13.347  0.4090 -0.6134 -0.9966
11050TIP3   OH254640   5.534   2.535   2.229  1.2871 -0.2935  0.6727
11050TIP3    H154641   5.471   2.517   2.299  1.2388 -0.6585  0.5378
11050TIP3    H254642   5.599   2.593   2.269 -0.3823  2.0540  0.1655
11051TIP3   OH254643   6.019   3.725  14.390 -0.3650  0.1550 -0.1641
11051TIP3    H154644   6.040   3.632  14.397 -0.4078 -0.1135 -2.8532
11051TIP3    H254645   5.923   3.728  14.395 -0.3022  0.2506  1.4107
11052TIP3   OH254646   1.484   1.421   2.811  0.6028 -0.0317 -0.2517
11052TIP3    H154647   1.472   1.490   2.876  2.1498  1.7135 -1.6976
11052TIP3    H254648   1.543   1.359   2.853 -0.1555 -0.0859  0.7748
11053TIP3   OH254649   3.805   2.765  16.382  0.3158  0.2197  0.1477
11053TIP3    H154650   3.854   2.692  16.344 -0.2707  0.1018 -0.4140
11053TIP3    H254651   3.731   2.777  16.322  0.6374  1.5568  0.0046
11054TIP3   OH254652   4.901   5.457   1.070 -0.0788 -0.1224  0.3762
11054TIP3    H154653   4.941   5.540   1.096  2.8671 -0.4587 -2.4196
11054TIP3    H254654   4.831   5.482   1.009  0.8606  0.3988 -0.5369
11055TIP3   OH254655   6.274   3.709  12.565 -0.2248 -0.7849  0.3621
11055TIP3    H154656   6.250   3.712  12.472 -2.5112  0.3796  0.9021
11055TIP3    H254657   6.367   3.728  12.567 -0.6406  2.0980 -1.5752
11056TIP3   OH254658   2.986   5.497   5.322 -0.7986 -0.2108  0.0037
11056TIP3    H154659   2.948   5.583   5.340 -3.9330 -1.4108 -0.3332
11056TIP3    H254660   3.040   5.478   5.398  0.7061  2.3562 -0.3047
11057TIP3   OH254661   3.096   1.921   5.446 -0.1764  0.0170  0.1309
11057TIP3    H154662   3.137   1.863   5.383  0.8820  0.2366  0.5975
11057TIP3    H254663   3.082   2.003   5.398 -1.2180 -0.4440 -0.3821
11058TIP3   OH254664   5.915   5.681   5.589 -0.3393 -0.3819  0.3151
11058TIP3    H154665   5.916   5.777   5.593 -0.4075 -0.3703  0.0473
11058TIP3    H254666   5.890   5.654   5.677 -1.2761 -0.1368  0.1334
11059TIP3   OH254667   5.745   3.984   4.071 -0.2148 -0.6980  0.1039
11059TIP3    H154668   5.806   4.003   4.143  1.0131  0.1393 -1.0964
11059TIP3    H254669   5.659   3.986   4.111  0.4015  0.3613  1.4517
11060TIP3   OH254670   0.343   3.393   4.666 -0.1770 -0.3154 -0.1549
11060TIP3    H154671   0.406   3.417   4.598  0.1177  1.3680  0.6678
11060TIP3    H254672   0.272   3.457   4.656  0.1906  0.3873  1.5326
11061TIP3   OH254673   1.032   3.355  10.866 -0.0236  0.2810  0.2029
11061TIP3    H154674   1.097   3.425  10.868  2.2447 -1.6902 -0.4882
11061TIP3    H254675   1.024   3.332  10.773 -0.2406 -0.8051  0.4784
11062TIP3   OH254676   1.070   4.174  11.241 -0.7387 -0.0733  0.5243
11062TIP3    H154677   1.058   4.097  11.298  1.3515 -1.5659 -0.9320
11062TIP3    H254678   1.058   4.140  11.153  0.8549  1.1344 -0.1934
11063TIP3   OH254679   6.277   0.575   3.620  0.3299  0.6141  0.0038
11063TIP3    H154680   6.323   0.659   3.618  2.8377 -0.6933 -0.9977
11063TIP3    H254681   6.346   0.509   3.614 -1.4721 -1.5928  1.6131
11064TIP3   OH254682   2.808   6.259   1.439 -0.2474 -0.1232 -0.0431
11064TIP3    H154683   2.852   6.277   1.356 -0.3176 -0.2313 -0.1040
11064TIP3    H254684   2.870   6.287   1.506 -1.4488  3.1523 -0.1018
11065TIP3   OH254685   5.250   0.413   0.365  0.0129 -0.8159  0.4112
11065TIP3    H154686   5.160   0.415   0.398 -1.1191  2.6746 -2.2978
11065TIP3    H254687   5.247   0.353   0.291  0.1145 -1.1711  0.6892
11066TIP3   OH254688   5.777   0.012   3.027  0.4223  0.3258 -0.0849
11066TIP3    H154689   5.714  -0.044   2.982  0.7612  0.1752 -0.3695
11066TIP3    H254690   5.838   0.039   2.959 -0.0917  1.5569 -0.0887
11067TIP3   OH254691   1.369   6.210   3.313 -0.7143  0.1388  0.3317
11067TIP3    H154692   1.429   6.191   3.385 -0.4398  1.6260  0.5327
11067TIP3    H254693   1.411   6.282   3.265 -1.7777  0.4192 -0.2103
11068TIP3   OH254694   2.685   5.248  14.155 -0.4591  0.3262  0.2360
11068TIP3    H154695   2.780   5.254  14.165 -0.4634  0.1312  0.3952
11068TIP3    H254696   2.657   5.189  14.226 -0.4633 -1.2784 -1.0385
11069TIP3   OH254697   4.597   1.097   5.716  0.6672  0.0677  0.1051
11069TIP3    H154698   4.606   1.189   5.742 -1.5063  0.2872  0.2737
11069TIP3    H254699   4.552   1.056   5.789  0.3276 -0.8093 -0.5792
11070TIP3   OH254700   0.454   3.029  16.955 -0.5431  0.7663  1.1351
11070TIP3    H154701   0.395   3.100  16.930 -1.1300  0.1924  0.8188
11070TIP3    H254702   0.516   3.068  17.016  0.6246  2.1070 -0.8241
11071TIP3   OH254703   6.190   2.784   5.112  0.3629  0.2877 -0.1075
11071TIP3    H154704   6.112   2.759   5.161  0.2737  1.2092  0.2362
11071TIP3    H254705   6.197   2.719   5.042 -1.9194  1.3829 -1.4604
11072TIP3   OH254706   2.272   1.462   1.488 -0.1374 -0.5306  0.3006
11072TIP3    H154707   2.268   1.369   1.463  0.7839 -0.1378 -1.5059
11072TIP3    H254708   2.182   1.493   1.478  0.0138 -0.6237 -1.8956
11073TIP3   OH254709   2.841   6.187   0.412  0.1117  0.1565 -0.3648
11073TIP3    H154710   2.878   6.147   0.491 -1.2238  0.5969  0.5315
11073TIP3    H254711   2.747   6.191   0.430 -0.2964 -0.2082 -2.2080
11074TIP3   OH254712   3.027   6.079  12.937 -0.4749  0.1030  0.3405
11074TIP3    H154713   2.966   6.035  12.879 -0.5656  0.8971 -0.1721
11074TIP3    H254714   2.974   6.142  12.985 -0.3336 -0.2823  1.0278
11075TIP3   OH254715   1.524   5.870  13.783  0.2899  0.0549  0.5664
11075TIP3    H154716   1.504   5.784  13.818  0.8828 -1.8763 -3.2427
11075TIP3    H254717   1.618   5.881  13.800  0.4170 -0.5119  0.2633
11076TIP3   OH254718   5.576   2.646   5.135  0.8675 -0.2797 -1.0184
11076TIP3    H154719   5.559   2.649   5.041 -0.8485  2.3327 -0.7407
11076TIP3    H254720   5.492   2.668   5.175  1.6294 -1.0312  1.1382
11077TIP3   OH254721   6.719   3.118   5.897  0.0242 -0.2658  0.0116
11077TIP3    H154722   6.661   3.063   5.844  1.0357 -1.0015 -0.3740
11077TIP3    H254723   6.668   3.140   5.974 -2.1536  2.2727 -1.9509
11078TIP3   OH254724   0.868   5.778  12.321 -0.1297  0.5466  0.0937
11078TIP3    H154725   0.857   5.701  12.265 -0.5774  0.3263  0.4737
11078TIP3    H254726   0.938   5.829  12.279  2.2992 -1.4960  1.4077
11079TIP3   OH254727   3.912   2.781  13.920 -0.4439 -0.4996 -0.5465
11079TIP3    H154728   3.851   2.718  13.958  1.7525 -1.3627  1.8357
11079TIP3    H254729   3.943   2.739  13.840  1.6176 -3.0279  1.4035
11080TIP3   OH254730   6.095   0.187  11.926 -0.1702 -0.2507  0.0506
11080TIP3    H154731   6.121   0.095  11.929 -1.1039 -0.5053  0.9718
11080TIP3    H254732   6.003   0.185  11.898 -0.4445  0.3319  0.8696
11081TIP3   OH254733   6.786   3.628  14.967  0.2758 -0.1998 -0.0083
11081TIP3    H154734   6.766   3.660  15.055  0.8837 -0.6798  0.3138
11081TIP3    H254735   6.703   3.598  14.932  0.1620 -0.7316  0.7040
11082TIP3   OH254736   4.918   1.569  13.477  0.3911  0.4780 -0.4035
11082TIP3    H154737   4.862   1.528  13.411  1.1444 -0.4852 -0.4640
11082TIP3    H254738   5.007   1.547  13.451  0.6923 -0.5636  1.3158
11083TIP3   OH254739   0.617   2.192  16.039 -0.4037  0.9558 -1.1644
11083TIP3    H154740   0.573   2.212  16.122 -0.7883  0.8488 -1.3435
11083TIP3    H254741   0.548   2.195  15.973 -0.6996 -1.8243 -1.0955
11084TIP3   OH254742   1.859   3.614   4.254 -0.7393 -0.5129  0.4235
11084TIP3    H154743   1.918   3.688   4.237 -1.6750  0.3207  0.7127
11084TIP3    H254744   1.882   3.549   4.187  0.9225 -0.4811  0.9075
11085TIP3   OH254745   6.150   1.521   5.675 -0.1237  0.1202 -0.1649
11085TIP3    H154746   6.098   1.571   5.612  0.9140 -0.8213 -1.8593
11085TIP3    H254747   6.136   1.429   5.650  0.0589 -0.3167  1.2250
11086TIP3   OH254748   4.201   1.357   5.267 -0.0073  0.3324 -0.9081
11086TIP3    H154749   4.110   1.377   5.286 -0.4358 -1.8859 -0.3553
11086TIP3    H254750   4.236   1.437   5.228 -2.2431  1.1449 -1.3599
11087TIP3   OH254751   5.222   2.657   5.507  0.2457  0.1119 -0.2552
11087TIP3    H154752   5.140   2.700   5.484  0.2468 -0.0138 -0.4985
11087TIP3    H254753   5.271   2.723   5.555 -0.3709 -0.0931  0.6895
11088TIP3   OH254754   5.984   5.880   1.346  0.2065 -0.1534  0.5705
11088TIP3    H154755   6.078   5.887   1.357  0.1833 -0.0622  0.7166
11088TIP3    H254756   5.948   5.904   1.432  0.1318 -2.4569  1.2473
11089TIP3   OH254757   3.976   2.579  15.937  0.4453 -0.0260 -0.0232
11089TIP3    H154758   3.895   2.615  15.902  1.5993  2.7191 -0.1481
11089TIP3    H254759   4.034   2.572  15.860  1.4150  1.4130  0.5309
11090TIP3   OH254760   1.284   6.181   4.218  0.2976  0.0596  0.0465
11090TIP3    H154761   1.314   6.270   4.198 -0.4872  0.3625  0.1561
11090TIP3    H254762   1.346   6.124   4.173  1.1178  0.6462  0.4065
11091TIP3   OH254763   4.134   1.632  11.454 -0.2394 -0.0941  0.1142
11091TIP3    H154764   4.227   1.649  11.439  0.2392 -3.1593 -1.2219
11091TIP3    H254765   4.132   1.591  11.541 -0.2212 -0.5154 -0.0776
11092TIP3   OH254766   2.144   2.861   1.057  0.4196  0.8591  0.0937
11092TIP3    H154767   2.228   2.893   1.091  1.0536  0.1015 -0.7127
11092TIP3    H254768   2.116   2.929   0.996 -1.7527  3.2815  3.4312
11093TIP3   OH254769   5.618   2.939  11.348 -0.1055 -0.3403  0.3596
11093TIP3    H154770   5.617   3.022  11.301 -1.1075 -0.7867 -0.4770
11093TIP3    H254771   5.690   2.946  11.410  0.3129  0.8480 -0.2362
11094TIP3   OH254772   6.650   5.411  13.516  0.1866 -0.2052 -0.2705
11094TIP3    H154773   6.738   5.425  13.551 -0.1055  0.4027  0.2422
11094TIP3    H254774   6.628   5.492  13.470 -0.0862 -0.3703 -0.4372
11095TIP3   OH254775   4.988   5.301   4.950  0.0972  0.0370  0.6194
11095TIP3    H154776   4.995   5.309   4.855 -0.0980  1.0700  0.6833
11095TIP3    H254777   5.036   5.221   4.971 -1.0803 -1.0084 -0.4940
11096TIP3   OH254778   5.747   6.006  16.074 -1.0427  0.6588 -0.0065
11096TIP3    H154779   5.784   6.075  16.019  1.8024  0.4391  1.4155
11096TIP3    H254780   5.782   5.925  16.038  1.2298  0.5348  2.1542
11097TIP3   OH254781   2.699   4.416   0.526  0.5433 -0.1844 -0.2773
11097TIP3    H154782   2.656   4.502   0.519  0.2503 -0.2245  0.8696
11097TIP3    H254783   2.791   4.437   0.540  0.2967 -0.0084  1.2416
11098TIP3   OH254784   4.224   6.749  12.479  0.0473 -0.1594  0.2145
11098TIP3    H154785   4.219   6.657  12.452  0.3353 -1.2440  3.4591
11098TIP3    H254786   4.284   6.789  12.416  0.0969 -2.2147 -1.1606
11099TIP3   OH254787   4.047   5.610   1.490 -0.4583  1.0546 -0.0861
11099TIP3    H154788   4.054   5.565   1.406 -0.7162  1.0837 -0.1255
11099TIP3    H254789   4.061   5.542   1.556  0.3629  1.1477 -0.1562
11100TIP3   OH254790   3.562   0.497   0.608 -0.0808  0.1794 -0.3091
11100TIP3    H154791   3.491   0.440   0.638  0.4448 -0.9565 -1.1662
11100TIP3    H254792   3.604   0.528   0.689 -0.7119 -0.2137  0.1720
11101TIP3   OH254793   2.810   2.654  16.938  0.3285  0.2291  0.0240
11101TIP3    H154794   2.875   2.724  16.932  0.3477  0.5365  2.5118
11101TIP3    H254795   2.847   2.593  17.003 -1.5488  0.1221  1.0651
11102TIP3   OH254796   5.719   6.660  15.093 -0.3723  0.6884  0.3896
11102TIP3    H154797   5.800   6.670  15.142 -1.0802  0.0217  1.7634
11102TIP3    H254798   5.739   6.693  15.005  1.5996 -0.2390  0.4450
11103TIP3   OH254799   2.591   6.165   1.292  0.3437 -0.1287 -0.0742
11103TIP3    H154800   2.664   6.219   1.324 -0.1419  0.6422 -0.2596
11103TIP3    H254801   2.609   6.154   1.198 -0.6966  1.5729 -0.5112
11104TIP3   OH254802   5.594   6.336   0.804  0.3268 -0.0864  0.4131
11104TIP3    H154803   5.609   6.242   0.815 -1.0533 -0.2342  1.1238
11104TIP3    H254804   5.596   6.348   0.709  0.7942 -0.7726  0.3204
11105TIP3   OH254805   1.365   4.036   0.239 -0.1841  0.2540 -0.3531
11105TIP3    H154806   1.446   4.002   0.277  0.0996  0.1364 -1.0519
11105TIP3    H254807   1.303   4.039   0.313  0.9463  2.0063  0.5840
11106TIP3   OH254808   5.878   1.625  16.166 -1.4865 -0.8748 -0.2636
11106TIP3    H154809   5.962   1.586  16.187 -1.6041  0.1673  2.5229
11106TIP3    H254810   5.823   1.551  16.140 -0.6485 -2.0713  1.2091
11107TIP3   OH254811   4.270   2.817  10.270 -0.4967  0.0744  0.3149
11107TIP3    H154812   4.270   2.733  10.225  0.4943 -0.3495  1.0661
11107TIP3    H254813   4.274   2.794  10.363 -0.7193  0.9547  0.5541
11108TIP3   OH254814   5.774   2.341   2.165  0.1160 -0.4207  0.1371
11108TIP3    H154815   5.839   2.395   2.120 -0.4071 -0.6614 -0.9405
11108TIP3    H254816   5.733   2.400   2.228  0.6017  0.0275  0.0393
11109TIP3   OH254817   1.788   5.338  12.388 -0.2716  0.4434 -0.4807
11109TIP3    H154818   1.820   5.264  12.439 -3.8646 -0.0741  1.3069
11109TIP3    H254819   1.866   5.393  12.374  2.0323 -2.4152  0.1954
11110TIP3   OH254820   6.407   0.940  15.966  0.2246 -0.2452  0.2357
11110TIP3    H154821   6.479   0.981  16.014  0.2806  1.0161 -0.8553
11110TIP3    H254822   6.357   0.892  16.032  0.0534  1.7542  1.6399
11111TIP3   OH254823   2.689   4.292   0.752  0.2782 -0.1798 -0.7034
11111TIP3    H154824   2.668   4.328   0.666 -0.5595  0.8611 -0.0727
11111TIP3    H254825   2.628   4.219   0.763 -1.3479  1.2165  0.0174
11112TIP3   OH254826   1.951   0.123  12.706  0.0985 -0.3496 -0.0172
11112TIP3    H154827   1.902   0.111  12.788 -0.4272 -1.0148 -0.4217
11112TIP3    H254828   2.042   0.103  12.730  0.2311  1.0247  0.7697
11113TIP3   OH254829   1.522   1.185  14.458 -0.2851 -0.6170 -0.0571
11113TIP3    H154830   1.487   1.104  14.494  0.4128 -0.0539  2.0512
11113TIP3    H254831   1.569   1.158  14.379  0.1971 -2.3260  0.7540
11114TIP3   OH254832   2.046   1.607  14.286  0.7105  0.2198  0.3345
11114TIP3    H154833   2.056   1.650  14.201 -0.1203  0.1291  0.1886
11114TIP3    H254834   2.017   1.677  14.345 -0.7585 -0.1470  0.0714
11115TIP3   OH254835   1.851   2.056   3.633  0.0353 -0.1665 -0.0060
11115TIP3    H154836   1.757   2.070   3.617  0.3901  2.9286 -0.0355
11115TIP3    H254837   1.884   2.019   3.551 -1.2587 -2.1658  0.3140
11116TIP3   OH254838   2.022   3.475  13.938  0.1870  0.7218  0.1887
11116TIP3    H154839   1.950   3.417  13.913  0.9287 -1.1007  1.9677
11116TIP3    H254840   1.992   3.518  14.018  1.0534 -0.1344  1.0044
11117TIP3   OH254841   2.828   3.743   4.530 -0.3014  0.3832 -0.0226
11117TIP3    H154842   2.787   3.809   4.473 -1.0937 -0.2260 -0.1659
11117TIP3    H254843   2.755   3.700   4.574  0.1753 -0.7683 -0.3351
11118TIP3   OH254844   4.253   1.424  10.827 -0.2873 -0.1054  0.0277
11118TIP3    H154845   4.245   1.487  10.755  0.5909  0.0451  0.0464
11118TIP3    H254846   4.290   1.346  10.787 -0.2636 -0.1925  0.2189
11119TIP3   OH254847   4.308   3.305  12.141  0.4492 -0.0046 -0.0361
11119TIP3    H154848   4.307   3.300  12.237 -0.4179 -0.9036 -0.0727
11119TIP3    H254849   4.335   3.394  12.122  0.0966  0.3587  1.0584
11120TIP3   OH254850   2.840   4.504  17.117  0.5093  0.0614 -0.0739
11120TIP3    H154851   2.919   4.543  17.154  0.2910  0.7536 -0.3268
11120TIP3    H254852   2.847   4.411  17.138  1.9595 -0.0871 -1.0739
11121TIP3   OH254853   1.282   5.573   0.734 -0.2396  0.1383  0.4986
11121TIP3    H154854   1.262   5.664   0.712  0.0471  0.0958  0.0403
11121TIP3    H254855   1.227   5.521   0.675  1.2818  0.0204 -0.9140
11122TIP3   OH254856   6.121   3.259   2.638 -0.0679 -0.3757 -0.2234
11122TIP3    H154857   6.142   3.253   2.544  0.0486 -2.1286 -0.1138
11122TIP3    H254858   6.204   3.240   2.682 -0.5249 -1.4740  0.2098
11123TIP3   OH254859   6.083   5.873  13.058 -0.1819 -0.4572 -0.2597
11123TIP3    H154860   6.019   5.944  13.064  1.5004  1.0913 -0.0761
11123TIP3    H254861   6.095   5.860  12.964  2.1883  2.1242 -0.4434
11124TIP3   OH254862   3.426   5.815   3.070 -0.0263  0.1475  0.0074
11124TIP3    H154863   3.340   5.780   3.047 -0.0952  0.1728  0.2189
11124TIP3    H254864   3.480   5.802   2.992 -0.5302  1.1625 -0.5157
11125TIP3   OH254865   5.847   4.169   2.413 -0.0617  0.1911 -0.2225
11125TIP3    H154866   5.919   4.133   2.465 -0.6126 -0.9293 -0.2171
11125TIP3    H254867   5.846   4.262   2.434 -0.6268 -0.3114  2.2059
11126TIP3   OH254868   2.793   0.692  13.378  0.1669  0.2442  0.3407
11126TIP3    H154869   2.780   0.597  13.386  2.0988 -0.1870 -1.0408
11126TIP3    H254870   2.717   0.722  13.327 -0.9175 -0.3718  1.5243
11127TIP3   OH254871   2.153   1.890   2.017 -0.0331 -0.0007  0.0700
11127TIP3    H154872   2.215   1.818   2.028 -1.4546 -1.4535 -0.7385
11127TIP3    H254873   2.196   1.966   2.054  2.7642 -0.6253 -1.6233
11128TIP3   OH254874   1.862   2.983  10.689  0.4555 -0.0199  0.1733
11128TIP3    H154875   1.955   2.959  10.690  0.2380 -1.1144 -1.7725
11128TIP3    H254876   1.820   2.918  10.633 -1.3381  1.0088  0.2219
11129TIP3   OH254877   5.214   1.403  16.132  0.1595 -0.2579  0.5868
11129TIP3    H154878   5.280   1.341  16.100 -0.1494 -0.9903  1.3257
11129TIP3    H254879   5.158   1.420  16.057 -0.1667 -1.4308  0.5562
11130TIP3   OH254880   0.455   0.812  15.789 -0.0003  0.2820  0.2627
11130TIP3    H154881   0.407   0.797  15.870 -0.6129  0.9102  0.0226
11130TIP3    H254882   0.392   0.792  15.720  0.0024  1.3110 -0.0557
11131TIP3   OH254883   2.540   6.374   5.483 -1.0968 -0.3389  0.4710
11131TIP3    H154884   2.485   6.445   5.517 -2.5654  0.8584 -3.8116
11131TIP3    H254885   2.478   6.311   5.445  0.3384 -2.1781  1.0140
11132TIP3   OH254886   2.608   5.203  11.057  0.5374  0.1378  0.9366
11132TIP3    H154887   2.653   5.129  11.018  0.0730  0.8289 -0.9995
11132TIP3    H254888   2.615   5.273  10.993 -2.3967  0.5837  0.9543
11133TIP3   OH254889   2.663   4.589  14.375 -0.3052  0.3966 -0.1676
11133TIP3    H154890   2.605   4.518  14.349 -0.3369 -0.8433  2.8269
11133TIP3    H254891   2.621   4.669  14.341 -3.1306 -0.5559  0.7802
11134TIP3   OH254892   0.890   4.268  12.374  0.6872 -0.3352  0.2325
11134TIP3    H154893   0.804   4.244  12.338  0.9634  0.2689 -0.8532
11134TIP3    H254894   0.953   4.220  12.320  1.0793 -0.0185  0.4086
11135TIP3   OH254895   1.697   1.397   2.455  0.1359 -0.3013 -0.2589
11135TIP3    H154896   1.744   1.440   2.526  0.5278 -1.9846  0.5644
11135TIP3    H254897   1.691   1.463   2.386 -0.6692  1.5512  1.4892
11136TIP3   OH254898   1.455   0.473   2.238 -0.2057 -0.0829  0.1614
11136TIP3    H154899   1.428   0.382   2.248  0.0734 -0.0637  1.1301
11136TIP3    H254900   1.543   0.476   2.276 -0.9550  0.9902  1.9137
11137TIP3   OH254901   1.012   1.330  13.079  0.2535  0.0112  0.0308
11137TIP3    H154902   0.980   1.397  13.018  2.6850  0.0696 -1.2954
11137TIP3    H254903   0.991   1.247  13.037 -0.4785 -0.0347  0.4591
11138TIP3   OH254904   2.643   2.570  15.880 -0.6440 -0.3994  0.2188
11138TIP3    H154905   2.684   2.524  15.953 -1.3357  0.8733  1.4681
11138TIP3    H254906   2.551   2.543  15.882 -1.0778  1.0505  1.0301
11139TIP3   OH254907   5.805   3.499  12.488  0.0085  0.0713 -0.2716
11139TIP3    H154908   5.862   3.472  12.559  0.4886 -0.1299 -0.7256
11139TIP3    H254909   5.789   3.592  12.504 -0.4883 -0.1415  0.5001
11140TIP3   OH254910   6.143   6.385   3.941 -0.3746  0.5186  0.6428
11140TIP3    H154911   6.131   6.345   3.855 -0.7938  0.0605  0.9165
11140TIP3    H254912   6.125   6.316   4.004  0.9122  0.5615  1.1057
11141TIP3   OH254913   2.166   5.776  13.691  0.2792  0.2292  0.1708
11141TIP3    H154914   2.106   5.769  13.765 -0.4813 -0.2272 -0.4753
11141TIP3    H254915   2.204   5.863  13.699  1.4697 -0.3934  2.0308
11142TIP3   OH254916   3.776   3.156  15.090  0.1303  0.7455  0.0832
11142TIP3    H154917   3.795   3.249  15.087  2.6897  0.2778 -0.6111
11142TIP3    H254918   3.861   3.114  15.106 -0.3275 -1.6150 -2.6957
11143TIP3   OH254919   2.533   5.416  12.726  0.3579  0.0961  0.3670
11143TIP3    H154920   2.485   5.495  12.750 -0.1777 -0.3348  0.7544
11143TIP3    H254921   2.572   5.386  12.808  0.2622 -0.2336  0.2930
11144TIP3   OH254922   4.345   2.655   4.211 -0.0126 -0.2794 -0.3681
11144TIP3    H154923   4.365   2.741   4.175  0.3449  0.1492  0.8091
11144TIP3    H254924   4.254   2.639   4.185 -0.6215  1.1850  0.7705
11145TIP3   OH254925   4.829   4.253   4.676 -0.1567 -0.6677 -0.5559
11145TIP3    H154926   4.772   4.306   4.621  0.5165  0.3045 -0.3390
11145TIP3    H254927   4.917   4.288   4.661  0.2259 -1.3373  0.0394
11146TIP3   OH254928   2.399   0.326   5.660  0.7752 -0.0998 -0.0249
11146TIP3    H154929   2.481   0.277   5.658  2.2123  2.0678  1.4110
11146TIP3    H254930   2.366   0.313   5.749  0.6026  0.6191  0.0206
11147TIP3   OH254931   6.333   1.391   5.890 -0.7125  0.2028 -0.1782
11147TIP3    H154932   6.309   1.443   5.967 -0.9603  1.3731 -1.0215
11147TIP3    H254933   6.254   1.389   5.836 -0.2004  0.4302 -0.9648
11148TIP3   OH254934   5.236   1.133  13.628  0.1151  0.1295  0.4201
11148TIP3    H154935   5.321   1.111  13.591 -1.5829 -1.3591 -3.0187
11148TIP3    H254936   5.233   1.229  13.628  1.3442  0.1839 -0.4596
11149TIP3   OH254937   6.433   0.412  15.791  0.4377 -0.4547  0.2919
11149TIP3    H154938   6.511   0.367  15.760  1.3824  1.2990  0.0521
11149TIP3    H254939   6.463   0.498  15.820 -1.3691  0.2162  0.3504
11150TIP3   OH254940   1.828   5.638  15.403  0.0164 -0.2124  0.3086
11150TIP3    H154941   1.755   5.676  15.453  0.1046  0.5660 -0.1285
11150TIP3    H254942   1.787   5.590  15.332 -0.0840  0.3636 -0.0341
11151TIP3   OH254943   4.455   3.470   0.410 -0.2058  0.3450 -0.4516
11151TIP3    H154944   4.503   3.387   0.413 -1.1896 -0.2032  0.7825
11151TIP3    H254945   4.369   3.447   0.375 -0.4567  0.8570 -0.1778
11152TIP3   OH254946   0.287   5.824  16.540 -0.0181  0.0867 -0.3118
11152TIP3    H154947   0.377   5.799  16.562 -0.2453  0.0919  0.6835
11152TIP3    H254948   0.292   5.918  16.523  0.4868 -0.2284 -2.1475
11153TIP3   OH254949   2.693   3.458   3.501  0.0306  0.1762  0.5359
11153TIP3    H154950   2.782   3.492   3.492  0.3094 -0.6175  0.1993
11153TIP3    H254951   2.658   3.503   3.577  0.1751  1.6490 -0.2443
11154TIP3   OH254952   1.281   6.690  13.452 -0.2765 -0.0010  0.7910
11154TIP3    H154953   1.234   6.736  13.521  0.3229 -0.6425  1.6372
11154TIP3    H254954   1.215   6.631  13.414 -0.7277  0.6824  0.4895
11155TIP3   OH254955   2.814   5.463   5.594  0.7199 -0.2865 -0.0603
11155TIP3    H154956   2.808   5.556   5.573  0.1477 -0.7137 -1.9347
11155TIP3    H254957   2.902   5.454   5.632  0.8106  0.9916  0.1047
11156TIP3   OH254958   0.527   6.453   2.706 -0.2292  0.1778 -0.8765
11156TIP3    H154959   0.437   6.450   2.737  0.3348 -2.1585  0.7999
11156TIP3    H254960   0.528   6.393   2.631 -0.0069 -0.1206 -0.6389
11157TIP3   OH254961   3.290   0.386  15.501 -0.5103  0.1096  0.1293
11157TIP3    H154962   3.200   0.411  15.524 -0.7015 -0.6485  0.2322
11157TIP3    H254963   3.344   0.427  15.569 -0.7713  0.5721  0.0676
11158TIP3   OH254964   6.730   5.015   1.613  0.0309 -0.5912 -0.2712
11158TIP3    H154965   6.771   5.087   1.566 -3.5157  1.0065 -1.2635
11158TIP3    H254966   6.727   4.943   1.549  0.7891 -0.5551 -0.3506
11159TIP3   OH254967   4.641   4.326   5.178 -0.2735  0.7366  0.3043
11159TIP3    H154968   4.551   4.316   5.147  0.2212 -0.6395 -0.8207
11159TIP3    H254969   4.695   4.312   5.100  0.9300  1.3490  0.9909
11160TIP3   OH254970   0.324   2.681  13.082  0.0287 -0.4506  0.5266
11160TIP3    H154971   0.230   2.694  13.092 -0.1411 -2.1418  1.4367
11160TIP3    H254972   0.349   2.627  13.157  1.5947 -0.5916 -0.0686
11161TIP3   OH254973   1.191   3.154   3.520 -0.0628 -0.0101  0.1254
11161TIP3    H154974   1.176   3.122   3.609 -0.5635 -0.0805  0.0150
11161TIP3    H254975   1.248   3.230   3.532 -0.8200  0.4969  0.5770
11162TIP3   OH254976   2.916   0.195  12.838 -0.3906 -0.1816  0.1610
11162TIP3    H154977   3.009   0.203  12.858 -0.4376 -1.1543  0.8797
11162TIP3    H254978   2.893   0.276  12.794  0.7474  0.1671  0.1898
11163TIP3   OH254979   3.329   3.569   3.244  0.2533  0.3693 -0.5126
11163TIP3    H154980   3.301   3.534   3.160 -0.9006  1.2757 -0.5352
11163TIP3    H254981   3.373   3.652   3.222 -1.4712  1.4278 -0.1546
11164TIP3   OH254982   2.790   4.972   4.353  0.4354  0.3390  0.1237
11164TIP3    H154983   2.700   4.940   4.357 -0.4235  2.6292  1.1861
11164TIP3    H254984   2.837   4.920   4.418 -0.8031  0.9079  1.5282
11165TIP3   OH254985   4.093   6.065  10.909 -0.7764 -0.2734  0.3896
11165TIP3    H154986   4.032   6.107  10.970 -1.1515  0.7001 -0.6039
11165TIP3    H254987   4.117   6.135  10.848 -0.8497 -1.3306 -0.9001
11166TIP3   OH254988   6.605   0.949  11.447  0.3656 -0.4135 -0.5515
11166TIP3    H154989   6.572   0.903  11.370 -0.6134 -1.5106  0.4669
11166TIP3    H254990   6.614   0.880  11.513  1.1222  0.5123  0.3276
11167TIP3   OH254991   5.195   3.445   5.141  0.3229 -0.1746  0.4034
11167TIP3    H154992   5.128   3.396   5.189 -0.7390  0.3298 -0.5203
11167TIP3    H254993   5.155   3.461   5.055  1.4823  0.4823 -0.0238
11168TIP3   OH254994   2.695   6.720  11.546  0.7521  0.0070  0.6235
11168TIP3    H154995   2.643   6.655  11.499  3.9664 -2.5290  0.1629
11168TIP3    H254996   2.632   6.765  11.602 -1.8403 -3.1620  0.5776
11169TIP3   OH254997   0.499   0.340   0.035 -0.0486 -0.8210  0.2467
11169TIP3    H154998   0.436   0.375   0.098 -2.7090 -2.1426 -1.4550
11169TIP3    H254999   0.468   0.372  -0.050  0.8908 -2.4591 -0.7680
11170TIP3   OH255000   5.324   2.190  11.856 -0.1169 -0.6846  0.2166
11170TIP3    H155001   5.354   2.115  11.805 -0.4067 -1.8009  1.6093
11170TIP3    H255002   5.231   2.197  11.835 -0.7766 -2.5666  2.1904
11171TIP3   OH255003   0.911   4.592   0.118  0.1983 -0.4631 -0.1970
11171TIP3    H155004   0.913   4.594   0.022 -0.4990 -2.5859 -0.2968
11171TIP3    H255005   0.943   4.505   0.141 -1.0325 -0.5269  1.4450
11172TIP3   OH255006   1.932   3.668  14.933 -0.3755  0.1700 -0.3720
11172TIP3    H155007   1.978   3.718  15.000 -0.5238 -0.3094  0.0888
11172TIP3    H255008   1.899   3.591  14.978 -2.1166  0.7663 -0.5566
11173TIP3   OH255009   5.699   6.552   4.945 -0.1366 -0.1267  0.0325
11173TIP3    H155010   5.728   6.600   4.867  3.2585 -0.4244  0.9799
11173TIP3    H255011   5.686   6.462   4.913 -0.6196  0.1266 -0.5226
11174TIP3   OH255012   3.729   0.308   0.027  0.1900  0.4530  0.0164
11174TIP3    H155013   3.740   0.213   0.022 -0.4566  0.3489  0.4708
11174TIP3    H255014   3.644   0.325  -0.014  1.2919  1.0987 -2.1715
11175TIP3   OH255015   4.929   5.741   3.689 -0.4591  0.1240  0.0852
11175TIP3    H155016   4.971   5.669   3.643  0.0819  0.3939  0.1443
11175TIP3    H255017   4.961   5.734   3.779 -2.6179 -1.2687  0.8266
11176TIP3   OH255018   5.231   3.323   5.988  0.2990  0.1200  0.2347
11176TIP3    H155019   5.252   3.250   5.931  2.0492  1.7446 -1.3487
11176TIP3    H255020   5.211   3.395   5.928  0.8449  1.5377  1.6876
11177TIP3   OH255021   4.716   5.991   1.677 -0.3332  0.0126 -0.2460
11177TIP3    H155022   4.674   6.022   1.757 -0.8494 -0.6418 -0.2529
11177TIP3    H255023   4.654   6.011   1.607 -0.5096 -0.6691 -0.2974
11178TIP3   OH255024   5.482   5.722  11.808  0.0800  0.0338 -0.3227
11178TIP3    H155025   5.415   5.657  11.788  1.5525 -1.4213 -0.7129
11178TIP3    H255026   5.521   5.744  11.724 -0.0308  1.0355 -0.1272
11179TIP3   OH255027   4.677   0.151   2.237 -0.0970  0.1130 -0.6410
11179TIP3    H155028   4.748   0.188   2.183 -1.1713 -0.9739 -2.9159
11179TIP3    H255029   4.668   0.061   2.206 -1.2055 -0.3666  0.9746
11180TIP3   OH255030   3.722   5.445  13.539 -0.9326  0.0073 -0.1384
11180TIP3    H155031   3.806   5.459  13.496 -1.3683 -0.2256 -1.1198
11180TIP3    H255032   3.707   5.524  13.590  0.0224 -0.0871  0.3121
11181TIP3   OH255033   1.725   5.277   6.260  0.3530  0.5370 -0.2297
11181TIP3    H155034   1.760   5.219   6.328 -1.1574  0.6517  0.6823
11181TIP3    H255035   1.661   5.224   6.213  0.8849  0.6773 -1.1335
11182TIP3   OH255036   1.437   5.561   5.159 -0.5025  0.6052  0.1438
11182TIP3    H155037   1.385   5.566   5.240 -2.1062 -0.3746 -0.7698
11182TIP3    H255038   1.382   5.604   5.094  0.4149  0.6675 -0.5941
11183TIP3   OH255039   3.850   4.531  14.845  0.3682 -0.0548 -0.2028
11183TIP3    H155040   3.788   4.478  14.896  1.3414 -1.6157 -0.5681
11183TIP3    H255041   3.859   4.612  14.895 -0.5419 -0.5646  0.8315
11184TIP3   OH255042   4.136   2.110   2.989  0.0149 -0.2755  0.1696
11184TIP3    H155043   4.211   2.162   2.962 -0.0337  0.3072  1.0825
11184TIP3    H255044   4.147   2.026   2.945  2.7454 -1.2590  2.3856
11185TIP3   OH255045   3.885   5.319   4.860 -0.2034  0.2450  0.8909
11185TIP3    H155046   3.938   5.385   4.904 -0.5967  1.4096 -0.2990
11185TIP3    H255047   3.857   5.361   4.779 -0.0941 -1.5623 -0.1380
11186TIP3   OH255048   0.552   0.922   2.310 -0.5716  0.1988 -0.1176
11186TIP3    H155049   0.530   0.876   2.391 -2.7236 -1.4450 -1.5312
11186TIP3    H255050   0.536   1.014   2.329 -2.7566 -0.3215  0.8743
11187TIP3   OH255051   0.176   1.102  16.836 -0.2902 -0.2911 -0.3861
11187TIP3    H155052   0.174   1.194  16.862 -0.4253 -0.6726  1.0412
11187TIP3    H255053   0.234   1.100  16.760 -0.7590  1.0536 -0.8092
11188TIP3   OH255054   3.863   5.771  11.096  0.2394 -0.6670 -0.3781
11188TIP3    H155055   3.951   5.747  11.068  0.2191 -0.5879 -0.5064
11188TIP3    H255056   3.870   5.863  11.121  0.1213 -0.5792 -0.6764
11189TIP3   OH255057   2.335   4.271  13.872 -0.0631  0.0905 -0.2520
11189TIP3    H155058   2.427   4.268  13.901 -0.3351 -1.0908  0.5919
11189TIP3    H255059   2.320   4.185  13.832 -0.3323  0.9104 -1.9907
11190TIP3   OH255060   4.766   2.476  14.896  0.1241  0.0031  0.3372
11190TIP3    H155061   4.756   2.569  14.875 -0.2768  0.2209  1.4425
11190TIP3    H255062   4.727   2.466  14.983 -2.2079 -1.6964 -0.7712
11191TIP3   OH255063   6.153   4.452  16.567  0.2700  0.1137 -0.0037
11191TIP3    H155064   6.188   4.438  16.655 -1.4061  0.2130  0.7282
11191TIP3    H255065   6.208   4.521  16.530  0.8168  0.2903  1.0837
11192TIP3   OH255066   3.812   4.361  14.382 -0.2329  0.0586  0.1519
11192TIP3    H155067   3.799   4.311  14.463  2.3112  0.1008  0.6666
11192TIP3    H255068   3.748   4.433  14.388 -1.1296 -0.7843  1.3715
11193TIP3   OH255069   3.082   3.047  14.988 -0.0281  0.0718 -0.1316
11193TIP3    H155070   3.092   2.984  15.059 -1.6203 -0.2330 -0.1474
11193TIP3    H255071   3.118   3.128  15.024  1.1882 -0.5930  0.2180
11194TIP3   OH255072   1.730   5.037  16.120  0.4500 -0.0227  0.2272
11194TIP3    H155073   1.669   4.965  16.106 -1.5884  1.8527 -1.3483
11194TIP3    H255074   1.753   5.066  16.032  0.8568  1.5317  0.8164
11195TIP3   OH255075   2.221   3.601   2.830 -0.0233  0.0513 -0.1441
11195TIP3    H155076   2.272   3.544   2.773  2.5925  1.6345  0.4393
11195TIP3    H255077   2.203   3.548   2.908  1.3889 -0.3332 -0.0686
11196TIP3   OH255078   6.437   2.201  16.200 -0.1864 -0.0307  0.3182
11196TIP3    H155079   6.465   2.181  16.289  1.1175 -0.4836 -0.1803
11196TIP3    H255080   6.506   2.167  16.144 -0.0539  1.8810 -0.7971
11197TIP3   OH255081   3.478   0.757   0.727 -0.2332 -0.1501  0.1969
11197TIP3    H155082   3.388   0.777   0.702 -0.4082 -0.4313  0.5866
11197TIP3    H255083   3.514   0.710   0.652  0.0882  1.3269 -0.6067
11198TIP3   OH255084   1.643   6.835   2.570  0.0792 -0.6696  0.2040
11198TIP3    H155085   1.642   6.927   2.545 -0.9485 -1.0690 -1.3660
11198TIP3    H255086   1.592   6.832   2.652  1.2352  0.2996  0.9963
11199TIP3   OH255087   4.779   1.836  15.980 -0.7764 -0.0401  0.2844
11199TIP3    H155088   4.832   1.860  16.057  2.7871 -1.5552 -1.4590
11199TIP3    H255089   4.765   1.741  15.990  0.9168 -0.5231 -1.5090
11200TIP3   OH255090   0.481   1.061  12.059  0.2493 -0.2123  0.3776
11200TIP3    H155091   0.502   0.990  12.120 -0.9046 -0.2532  0.7565
11200TIP3    H255092   0.461   1.136  12.116  2.0821  0.6515 -0.0158
11201TIP3   OH255093   1.577   2.223   6.454  0.0411  0.0124  0.6489
11201TIP3    H155094   1.542   2.163   6.519  1.3550 -1.1453  0.3170
11201TIP3    H255095   1.667   2.194   6.439  0.0243  0.7222 -1.1006
11202TIP3   OH255096   4.562   2.007  16.824  0.2208  0.1571  0.0309
11202TIP3    H155097   4.507   2.085  16.813  0.0434 -0.0626 -0.7090
11202TIP3    H255098   4.650   2.037  16.802  0.0296 -0.0250 -1.0828
11203TIP3   OH255099   4.065   2.369   4.052 -0.3468  0.6954  0.5660
11203TIP3    H155100   4.008   2.312   4.103  0.5328 -0.3170  0.4496
11203TIP3    H255101   4.153   2.333   4.065  0.3991  2.5780  1.2766
11204TIP3   OH255102   0.847   4.695   1.509  0.1032 -0.1946  0.2454
11204TIP3    H155103   0.929   4.690   1.460 -0.1961  0.9292 -0.4059
11204TIP3    H255104   0.791   4.629   1.468  0.4260 -0.4286  0.1782
11205TIP3   OH255105   0.112   5.992  12.158 -0.3302  0.9276  0.1995
11205TIP3    H155106   0.138   5.904  12.131  0.7264  1.7406 -1.5589
11205TIP3    H255107   0.060   5.978  12.238  0.6876 -1.1925  0.5585
11206TIP3   OH255108   6.356   4.355  16.230  0.2173 -0.1667 -0.7234
11206TIP3    H155109   6.266   4.340  16.199  0.8781 -2.3362 -1.7640
11206TIP3    H255110   6.348   4.361  16.325 -1.5702  4.4109 -0.8755
11207TIP3   OH255111   4.367   3.706   6.026  0.3647  0.6244  0.3074
11207TIP3    H155112   4.337   3.746   6.108 -1.0450  0.5082 -0.1194
11207TIP3    H255113   4.333   3.616   6.030 -0.1101  0.7550 -0.5982
11208TIP3   OH255114   0.939   3.879   4.337 -0.2066 -0.3683  0.0602
11208TIP3    H155115   0.859   3.855   4.291 -1.4427  2.8279  0.2872
11208TIP3    H255116   0.941   3.823   4.414 -2.1039 -0.6833 -0.0777
11209TIP3   OH255117   4.911   1.577   1.529  0.5613 -0.2048  0.1655
11209TIP3    H155118   4.875   1.510   1.587  1.0641 -1.9132 -1.3869
11209TIP3    H255119   4.907   1.537   1.442  1.9041  1.3739 -0.6693
11210TIP3   OH255120   2.011   1.053   2.556  0.4932  0.3566  0.1617
11210TIP3    H155121   2.021   1.139   2.515  0.8026  1.0751  1.6790
11210TIP3    H255122   1.976   1.072   2.643  0.4077 -1.0812  0.4626
11211TIP3   OH255123   2.841   0.351   2.310  0.0951 -0.3401  0.1504
11211TIP3    H155124   2.901   0.421   2.283 -0.1381  0.0297  0.5620
11211TIP3    H255125   2.810   0.379   2.396 -0.6416 -0.5469 -0.0425
11212TIP3   OH255126   0.964   0.651  15.211 -0.1237 -0.0345  0.2667
11212TIP3    H155127   0.969   0.693  15.125 -1.8035 -0.9800 -0.3395
11212TIP3    H255128   1.051   0.614  15.225  0.8611  2.0029  0.0156
11213TIP3   OH255129   5.545   4.291   2.569  0.1627  0.2896  0.4134
11213TIP3    H155130   5.518   4.360   2.630 -0.6129 -0.1581  0.6011
11213TIP3    H255131   5.555   4.335   2.485 -1.3692  0.4720  0.2911
11214TIP3   OH255132   2.636   1.236   2.219 -0.2795 -0.4290  0.4058
11214TIP3    H155133   2.690   1.252   2.296 -2.0246  1.0186  1.4140
11214TIP3    H255134   2.696   1.199   2.154  1.6766  0.1898  1.7797
11215TIP3   OH255135   2.367   3.978  12.058  0.2764  0.0499 -0.4255
11215TIP3    H155136   2.361   3.904  11.998 -2.4093 -0.4712  0.3388
11215TIP3    H255137   2.407   4.048  12.006 -1.2355 -0.6080 -2.6215
11216TIP3   OH255138   4.353   3.592  12.096 -0.0557 -0.2184 -0.6684
11216TIP3    H155139   4.399   3.565  12.017  1.4404  0.3815 -0.0435
11216TIP3    H255140   4.307   3.672  12.071 -0.9332 -0.9165 -1.3457
11217TIP3   OH255141   1.611   3.420  13.042 -0.1312  0.3982 -0.7748
11217TIP3    H155142   1.596   3.440  12.949  0.1343 -2.1142 -1.4392
11217TIP3    H255143   1.701   3.388  13.045 -0.3443 -0.1537  0.2289
11218TIP3   OH255144   2.339   4.842   2.678 -0.7273  0.2916  0.4562
11218TIP3    H155145   2.316   4.892   2.757 -0.5721 -0.4928  1.0126
11218TIP3    H255146   2.254   4.814   2.643 -0.7826  0.3666  0.5255
11219TIP3   OH255147   2.038   5.013   4.453  0.2372 -0.3050  0.6314
11219TIP3    H155148   2.011   5.008   4.362  1.0036 -0.2322  0.3919
11219TIP3    H255149   1.960   5.043   4.500  0.2288  1.0427 -0.1913
11220TIP3   OH255150   0.885   5.053   4.069  0.1221 -0.3395 -0.3069
11220TIP3    H155151   0.945   5.105   4.015  1.3376  1.0947  2.2310
11220TIP3    H255152   0.833   5.119   4.116  0.1582 -1.4474  1.3510
11221TIP3   OH255153   5.260   4.808   5.109  0.1941  0.4415  0.3641
11221TIP3    H155154   5.224   4.787   5.023 -0.4405 -0.9950  0.9439
11221TIP3    H255155   5.302   4.893   5.098 -1.5456  1.1797 -0.8692
11222TIP3   OH255156   4.614   6.479  13.248 -0.5087  0.6084 -0.1902
11222TIP3    H155157   4.604   6.389  13.279  0.0735  0.3383 -0.7482
11222TIP3    H255158   4.655   6.470  13.162  0.0917  1.4281 -0.0040
11223TIP3   OH255159   5.259   2.449  16.984 -0.3841 -0.4061  0.2611
11223TIP3    H155160   5.194   2.429  16.917 -2.3061  0.2985  1.8313
11223TIP3    H255161   5.248   2.382  17.051  1.3185 -0.9340  0.0750
11224TIP3   OH255162   1.226   5.116   1.670  0.6086 -0.7501  0.5115
11224TIP3    H155163   1.180   5.173   1.732 -1.1432 -1.6432  0.1210
11224TIP3    H255164   1.165   5.043   1.655  1.9010 -1.6631 -0.5945
11225TIP3   OH255165   6.745   4.123  16.070  0.0760 -0.0729 -0.1884
11225TIP3    H155166   6.742   4.067  15.992 -1.8025 -1.1165  0.5772
11225TIP3    H255167   6.835   4.113  16.102  0.3104 -1.2055 -1.1008
11226TIP3   OH255168   0.356   1.136  12.803  0.4561  0.1622 -0.4592
11226TIP3    H155169   0.341   1.182  12.886  0.4348 -1.1183  0.2674
11226TIP3    H255170   0.415   1.065  12.825  0.2177 -0.3748 -1.4924
11227TIP3   OH255171   5.552   0.154  13.821  0.2028  0.5492 -0.2457
11227TIP3    H155172   5.582   0.076  13.774  1.4205 -0.4329  1.9814
11227TIP3    H255173   5.509   0.120  13.900  0.3599  2.0993  0.5590
11228TIP3   OH255174   5.481   4.268  12.884 -0.0894 -0.3678 -0.2652
11228TIP3    H155175   5.506   4.355  12.917  0.3357 -0.4558 -0.3405
11228TIP3    H255176   5.515   4.208  12.951  0.5567 -0.5338 -0.7283
11229TIP3   OH255177   1.468   6.055  10.648 -0.2481 -0.3716 -0.7505
11229TIP3    H155178   1.467   6.118  10.719 -0.5855 -0.5610 -0.5877
11229TIP3    H255179   1.554   6.013  10.655  0.0693  0.2230 -1.0015
11230TIP3   OH255180   5.609   6.273   4.953 -0.2976 -0.2374 -0.2093
11230TIP3    H155181   5.584   6.196   5.004  0.0728 -0.1815  0.0635
11230TIP3    H255182   5.526   6.314   4.930 -0.4660 -0.0950  0.6121
11231TIP3   OH255183   4.546   3.815  11.584 -0.2922  0.0150 -0.4052
11231TIP3    H155184   4.476   3.770  11.631  0.3250  0.8213  1.3846
11231TIP3    H255185   4.613   3.831  11.650  0.5272  1.4349 -1.5193
11232TIP3   OH255186   1.410   5.353   2.668 -0.4034 -0.3882 -0.5099
11232TIP3    H155187   1.316   5.363   2.681 -0.2995 -0.2657  0.1669
11232TIP3    H255188   1.450   5.412   2.733  0.1948 -2.6550  1.3095
11233TIP3   OH255189   4.630   3.531   0.155 -0.2890  0.0861 -0.1578
11233TIP3    H155190   4.580   3.469   0.207  0.0158  0.5391  0.7206
11233TIP3    H255191   4.567   3.572   0.097 -0.6737 -0.3414 -0.0397
11234TIP3   OH255192   6.501   0.525   3.835  0.2598  0.1933  0.0967
11234TIP3    H155193   6.463   0.438   3.836  3.1810 -1.2718  2.9629
11234TIP3    H255194   6.460   0.571   3.908 -1.1810  1.2803 -1.3277
11235TIP3   OH255195   6.673   0.111   6.079  0.2105  0.0389 -0.1738
11235TIP3    H155196   6.624   0.030   6.094 -1.2486  0.4785 -2.1856
11235TIP3    H255197   6.678   0.152   6.165 -0.2902 -1.4768  0.6185
11236TIP3   OH255198   3.898   0.861   3.178  0.0481  0.3325 -0.1328
11236TIP3    H155199   3.845   0.782   3.173 -1.2331  1.2333 -1.5372
11236TIP3    H255200   3.919   0.870   3.271 -0.1860 -1.3634  0.1212
11237TIP3   OH255201   2.508   5.742  12.120  0.2071  0.0903  0.2875
11237TIP3    H155202   2.427   5.712  12.077  0.8835 -1.8759  0.2830
11237TIP3    H255203   2.547   5.802  12.057 -0.7457  0.2788 -0.1545
11238TIP3   OH255204   5.057   0.880  15.225 -0.1074 -0.8657  0.0601
11238TIP3    H155205   4.973   0.847  15.258  0.5510 -2.5646  0.1340
11238TIP3    H255206   5.106   0.802  15.203  1.4207  0.1068 -0.1247
11239TIP3   OH255207   4.517   5.715   4.956  0.1255 -0.0011  0.1377
11239TIP3    H155208   4.434   5.737   4.914  0.8257  1.0333 -0.7471
11239TIP3    H255209   4.532   5.623   4.933 -1.8446 -0.9163  2.1988
11240TIP3   OH255210   1.496   5.087  12.472  0.1613  0.6711  0.2100
11240TIP3    H155211   1.433   5.143  12.517  1.1082  1.5954  0.4377
11240TIP3    H255212   1.479   5.101  12.379 -0.2030  0.6364  0.2709
11241TIP3   OH255213   0.907   3.934  13.996 -0.4870 -0.8586 -0.7890
11241TIP3    H155214   0.831   3.897  14.042 -0.3026 -0.2946  0.0026
11241TIP3    H255215   0.971   3.864  13.994 -1.0797 -1.3964 -1.6121
11242TIP3   OH255216   6.014   1.596   5.184  0.6529  0.9878  0.0680
11242TIP3    H155217   5.979   1.507   5.196  0.0737  1.2821  0.6338
11242TIP3    H255218   6.005   1.612   5.090  0.2028  0.6698  0.0503
11243TIP3   OH255219   3.281   3.870  13.586 -0.6194 -0.2995 -0.3343
11243TIP3    H155220   3.275   3.775  13.577 -0.5518 -0.3147 -0.2279
11243TIP3    H255221   3.237   3.889  13.669  2.7045 -0.6823  1.7038
11244TIP3   OH255222   5.804   0.419   1.301 -0.0676 -0.2226  0.0581
11244TIP3    H155223   5.775   0.420   1.393 -0.2465 -2.1621  0.0489
11244TIP3    H255224   5.886   0.370   1.302  0.7928  1.1234 -0.6307
11245TIP3   OH255225   1.290   3.970  16.016 -0.3202  0.6103  0.1873
11245TIP3    H155226   1.310   3.876  16.026  0.9632  0.7190 -0.9709
11245TIP3    H255227   1.362   4.014  16.060 -0.4342  1.0459 -0.0604
11246TIP3   OH255228   3.753   1.430  10.938  0.1393 -0.4926 -0.1611
11246TIP3    H155229   3.828   1.429  10.998 -0.8318  1.2189  1.1756
11246TIP3    H255230   3.776   1.496  10.872 -0.8218  1.2635  1.1954
11247TIP3   OH255231   5.440   5.283  17.071 -0.1137  0.1508  0.8539
11247TIP3    H155232   5.395   5.325  17.145  1.8953 -0.9507  2.8232
11247TIP3    H255233   5.523   5.253  17.108  0.4142 -1.6247 -1.5610
11248TIP3   OH255234   3.629   5.392   2.099  0.1843 -0.3028 -0.0131
11248TIP3    H155235   3.707   5.338   2.094  0.7691  0.2151  2.1871
11248TIP3    H255236   3.609   5.397   2.193 -0.8500  1.8450 -0.2805
11249TIP3   OH255237   2.824   2.265   1.841 -0.1574 -0.2211  0.2869
11249TIP3    H155238   2.858   2.181   1.872  2.7514  0.3577 -1.0403
11249TIP3    H255239   2.875   2.331   1.887 -1.9207  0.8785  0.7893
11250TIP3   OH255240   4.772   6.514   4.016  0.0986 -0.6475 -0.4263
11250TIP3    H155241   4.856   6.546   3.983 -0.1909  0.0203 -0.5372
11250TIP3    H255242   4.707   6.562   3.965 -0.3672  0.7119  1.3444
11251TIP3   OH255243   4.239   4.997  15.800 -0.1339  0.2751 -0.0895
11251TIP3    H155244   4.275   5.079  15.768  0.1897  0.8868  1.7623
11251TIP3    H255245   4.276   4.930  15.741  1.0634  1.2574 -0.4896
11252TIP3   OH255246   4.462   2.643   0.695 -0.2071  0.5415 -0.2609
11252TIP3    H155247   4.453   2.678   0.606 -0.7575  1.6000  0.2051
11252TIP3    H255248   4.387   2.677   0.742  0.3869  0.4563  0.7667
11253TIP3   OH255249   1.299   5.040  13.061  0.1699  0.3348 -0.1992
11253TIP3    H155250   1.288   5.091  12.981  0.7693 -0.8488 -1.0825
11253TIP3    H255251   1.250   4.959  13.044  0.2368  0.1066  0.6659
11254TIP3   OH255252   2.184   3.325   2.855 -0.5202 -0.1751  0.3386
11254TIP3    H155253   2.264   3.273   2.846  1.1732  2.2459  0.4922
11254TIP3    H255254   2.145   3.326   2.767 -1.6191 -3.0599  0.6750
11255TIP3   OH255255   6.822   4.812   0.540  0.5487 -0.1812 -0.2235
11255TIP3    H155256   6.858   4.822   0.452 -0.3245 -0.0747 -0.5790
11255TIP3    H255257   6.776   4.728   0.537  0.1644  0.0205 -0.0013
11256TIP3   OH255258   0.814   4.587   1.978 -0.2871 -0.4818  0.0775
11256TIP3    H155259   0.790   4.630   2.059  1.3757  0.2485  0.2423
11256TIP3    H255260   0.910   4.587   1.979 -0.2370 -1.9865 -1.0946
11257TIP3   OH255261   1.773   0.349   3.358  0.4379 -0.1750 -0.9524
11257TIP3    H155262   1.862   0.313   3.354  0.9104  0.1832  2.6845
11257TIP3    H255263   1.727   0.291   3.418 -0.2783  2.2526  1.0269
11258TIP3   OH255264   2.433   2.019  13.106  0.0576  0.3617  0.1690
11258TIP3    H155265   2.366   2.001  13.040  0.2182  3.5433 -1.0069
11258TIP3    H255266   2.388   2.009  13.189 -1.2566  0.2394 -0.5350
11259TIP3   OH255267   6.428   1.414  13.858 -0.1973  0.1373  0.3882
11259TIP3    H155268   6.485   1.401  13.782  0.3585 -1.5818  1.0484
11259TIP3    H255269   6.414   1.509  13.861  0.8158  0.3745 -1.0880
11260TIP3   OH255270   5.832   2.309   1.243 -0.6948  0.3361 -0.1188
11260TIP3    H155271   5.840   2.250   1.168 -1.1591 -0.0785  0.1491
11260TIP3    H255272   5.922   2.335   1.263 -0.0894 -2.6187  1.6014
11261TIP3   OH255273   4.222   3.924   2.279 -0.1057  0.1225  0.3143
11261TIP3    H155274   4.206   4.006   2.233  1.9247  1.4519  1.8258
11261TIP3    H255275   4.198   3.943   2.370  2.1237 -0.3296  1.0483
11262TIP3   OH255276   5.585   3.561   2.157  0.5891  0.0764 -0.1865
11262TIP3    H155277   5.679   3.567   2.176  0.9225 -0.4591 -1.5164
11262TIP3    H255278   5.571   3.471   2.129 -0.0781  0.4641 -1.1676
11263TIP3   OH255279   4.608   3.468   3.021  0.0743  0.2962  0.6728
11263TIP3    H155280   4.631   3.375   3.018  0.6888  0.4226  1.2119
11263TIP3    H255281   4.602   3.494   2.929  0.4043 -0.1563  0.5178
11264TIP3   OH255282   1.790   6.831  12.552 -0.1914 -0.1142 -0.0466
11264TIP3    H155283   1.716   6.891  12.563 -0.0077  0.2892 -0.9133
11264TIP3    H255284   1.867   6.882  12.579 -0.2164 -0.5360  0.8640
11265TIP3   OH255285   1.702   5.045   5.138  0.3102  0.2124 -0.4892
11265TIP3    H155286   1.767   5.080   5.199  1.2056  0.1910 -1.4137
11265TIP3    H255287   1.752   4.991   5.077 -0.6799 -0.4118 -0.7719
11266TIP3   OH255288   4.751   2.834  13.102 -0.0408  0.5046 -0.3353
11266TIP3    H155289   4.797   2.752  13.090  0.6647  0.7954  0.3378
11266TIP3    H255290   4.782   2.889  13.030  0.4928  0.6195 -0.0225
11267TIP3   OH255291   1.482   4.471   5.537  0.0181  0.1892 -0.0965
11267TIP3    H155292   1.403   4.426   5.568  0.4829 -0.2648  0.4536
11267TIP3    H255293   1.462   4.496   5.447  0.0974 -2.0468 -0.8065
11268TIP3   OH255294   1.091   6.619   5.473 -0.4948 -0.5571 -0.0934
11268TIP3    H155295   1.105   6.703   5.517  1.8484 -0.3422 -1.0762
11268TIP3    H255296   1.124   6.554   5.535  0.8523 -0.4227 -0.6250
11269TIP3   OH255297   5.228   3.943   0.917 -0.4375 -0.2847  0.4285
11269TIP3    H155298   5.141   3.980   0.930 -1.5888 -2.5560 -0.3754
11269TIP3    H255299   5.248   3.900   1.000  0.2874  0.8370  0.8675
11270TIP3   OH255300   5.961   0.043   5.072  0.1546  0.4015  0.2626
11270TIP3    H155301   5.982   0.120   5.019 -0.3859 -0.4955 -1.3286
11270TIP3    H255302   5.981  -0.031   5.015 -1.1490 -0.5932  1.0485
11271TIP3   OH255303   0.162   3.339  15.941 -0.4329  0.1899 -0.0459
11271TIP3    H155304   0.076   3.329  15.899 -0.2342 -0.4738 -0.3020
11271TIP3    H255305   0.186   3.430  15.925 -1.3585  0.5552  0.5445
11272TIP3   OH255306   6.268   1.093   3.392  0.7631  0.0222 -0.4241
11272TIP3    H155307   6.307   1.029   3.332 -1.0751 -1.2760 -0.3106
11272TIP3    H255308   6.180   1.060   3.408 -0.4550  2.8438 -0.7241
11273TIP3   OH255309   4.147   5.698  12.410 -0.0849 -0.2070  0.2421
11273TIP3    H155310   4.075   5.635  12.409 -0.6926  0.4756  0.3666
11273TIP3    H255311   4.107   5.782  12.388  0.8367  0.0294 -0.6303
11274TIP3   OH255312   4.958   4.521   1.728 -0.5226 -0.2717 -0.2850
11274TIP3    H155313   4.979   4.505   1.636  1.5798  0.1953  0.0635
11274TIP3    H255314   4.865   4.542   1.727 -0.2735  1.1539 -2.5329
11275TIP3   OH255315   2.197   3.105   0.887  0.1839  0.2289  0.2635
11275TIP3    H155316   2.281   3.061   0.896 -0.1148 -0.5286 -0.5356
11275TIP3    H255317   2.186   3.118   0.793  0.0689  1.6531  0.4460
11276TIP3   OH255318   3.919   6.635  16.521  0.4276  0.4348 -0.7330
11276TIP3    H155319   3.854   6.706  16.521  0.7023  0.6913 -0.2065
11276TIP3    H255320   3.950   6.631  16.431  1.6252  2.1278 -0.4540
11277TIP3   OH255321   3.502   2.865  12.084 -0.0503  0.7268  0.0835
11277TIP3    H155322   3.541   2.837  12.001  0.2381 -1.2258  0.8359
11277TIP3    H255323   3.417   2.822  12.086  0.0000  0.6427  0.8490
11278TIP3   OH255324   1.503   5.841  12.110 -0.3664  0.2697  0.0717
11278TIP3    H155325   1.469   5.879  12.191 -0.3734 -1.6228  0.9892
11278TIP3    H255326   1.597   5.835  12.124 -0.3924 -0.2722  0.0375
11279TIP3   OH255327   1.926   2.474  14.688 -0.2999  0.0485  0.0637
11279TIP3    H155328   2.014   2.442  14.666 -0.0842  0.5910  0.1276
11279TIP3    H255329   1.935   2.569  14.690 -0.9579  0.1246 -0.2221
11280TIP3   OH255330   1.738   4.289   2.856 -0.3424  0.6662 -0.4088
11280TIP3    H155331   1.760   4.263   2.766 -0.4525 -2.6186  0.4077
11280TIP3    H255332   1.647   4.317   2.851  0.3067  2.7544 -1.6663
11281TIP3   OH255333   4.994   4.473   5.727  0.5743 -0.0995  0.0441
11281TIP3    H155334   4.906   4.440   5.745  0.1875  0.8955  0.0636
11281TIP3    H255335   4.995   4.488   5.632  0.5557  0.3194  0.1058
11282TIP3   OH255336   1.297   6.334   5.303 -0.2038 -0.1036 -0.3167
11282TIP3    H155337   1.271   6.247   5.335  1.6259 -1.3987 -2.0945
11282TIP3    H255338   1.235   6.394   5.345 -1.4454 -2.2218  1.1076
11283TIP3   OH255339   5.266   6.434   5.467 -0.3644 -0.8466  0.2601
11283TIP3    H155340   5.334   6.450   5.533 -1.2418 -0.6415  1.1545
11283TIP3    H255341   5.297   6.359   5.417  0.2332 -1.1365  1.0489
11284TIP3   OH255342   3.269   2.465   4.026 -0.0368 -0.4284 -0.2201
11284TIP3    H155343   3.345   2.435   3.976  1.6130  4.3993 -1.1446
11284TIP3    H255344   3.201   2.482   3.960  0.4580  1.3759 -0.3224
11285TIP3   OH255345   2.575   5.747   2.384  0.5372 -0.1249  0.2542
11285TIP3    H155346   2.594   5.741   2.290  2.9666  0.0506  0.6510
11285TIP3    H255347   2.591   5.839   2.406  1.4070 -0.4579  1.0757
11286TIP3   OH255348   1.002   0.054  12.747 -0.1883  0.2176  0.4577
11286TIP3    H155349   0.911   0.048  12.717  0.4478 -2.3329 -1.3121
11286TIP3    H255350   1.000   0.021  12.837 -0.9186 -0.7101  0.1210
11287TIP3   OH255351   2.527   2.734  10.987  0.0604  0.0688  0.0214
11287TIP3    H155352   2.548   2.818  11.029 -1.7500  0.6885 -0.2073
11287TIP3    H255353   2.603   2.679  11.003  1.5647  1.9496 -0.3340
11288TIP3   OH255354   5.092   1.943   4.077  0.5067  0.1684  0.0451
11288TIP3    H155355   5.131   1.901   4.001  1.0482  1.6633 -0.5311
11288TIP3    H255356   5.166   1.976   4.127  0.0923  0.4863  0.4534
11289TIP3   OH255357   6.699   1.442   4.640  0.3503  0.2067  0.6172
11289TIP3    H155358   6.735   1.498   4.709  0.5164 -0.9669  1.5108
11289TIP3    H255359   6.763   1.448   4.569 -0.8338  3.0717 -0.3505
11290TIP3   OH255360   3.529   3.535  11.714 -0.1512 -0.5622  0.3168
11290TIP3    H155361   3.565   3.460  11.762 -0.4698 -0.3120  0.9689
11290TIP3    H255362   3.435   3.520  11.712 -0.0498 -1.1119 -1.2087
11291TIP3   OH255363   1.834   6.389   2.624  0.4450 -0.3388 -0.3733
11291TIP3    H155364   1.888   6.430   2.557 -0.7710 -1.7383 -2.2973
11291TIP3    H255365   1.781   6.461   2.660  0.4381  0.2798 -1.5921
11292TIP3   OH255366   0.648   4.927  13.057 -0.0218 -0.1156 -0.3144
11292TIP3    H155367   0.716   4.938  12.990 -0.4814 -1.1426 -0.9805
11292TIP3    H255368   0.671   4.989  13.125  3.3615 -2.4489  0.9526
11293TIP3   OH255369   3.478   6.692  15.575  0.0385  0.1068 -0.4114
11293TIP3    H155370   3.543   6.747  15.530 -1.3669  1.6180 -0.7126
11293TIP3    H255371   3.405   6.751  15.591 -1.5195 -1.6769 -0.6327
11294TIP3   OH255372   1.409   4.321   3.191 -0.2033 -0.3888 -0.1237
11294TIP3    H155373   1.374   4.408   3.212 -0.0990  0.2275 -2.2187
11294TIP3    H255374   1.473   4.304   3.260  1.9156  2.5550 -1.1413
11295TIP3   OH255375   4.668   0.168  15.813  0.5443  0.7371  0.4325
11295TIP3    H155376   4.700   0.112  15.884  1.1639  0.1691 -0.2749
11295TIP3    H255377   4.574   0.176  15.829  0.2725 -1.2222  0.0978
11296TIP3   OH255378   3.221   2.200   2.662  0.0889  0.2725 -0.1809
11296TIP3    H155379   3.284   2.136   2.694 -1.2075 -1.5127 -1.0290
11296TIP3    H255380   3.262   2.285   2.679  0.2896 -0.4843  4.5531
11297TIP3   OH255381   3.138   2.059   1.441 -0.5852  0.6978  0.0752
11297TIP3    H155382   3.167   1.970   1.460  0.8443  1.3822  1.2628
11297TIP3    H255383   3.204   2.093   1.380 -2.2016  0.3337 -2.0011
11298TIP3   OH255384   5.781   1.117  11.005 -0.3559  0.8129 -0.7818
11298TIP3    H155385   5.869   1.143  11.034 -0.2037 -0.3511 -0.1219
11298TIP3    H255386   5.795   1.033  10.962 -1.4079 -0.5131  1.3226
11299TIP3   OH255387   3.246   4.492  15.844  0.3312  0.4099  0.1014
11299TIP3    H155388   3.324   4.544  15.866 -1.0300  1.4646  3.0155
11299TIP3    H255389   3.173   4.544  15.877 -1.6507 -0.6691 -2.2738
11300TIP3   OH255390   4.132   3.349  14.545  0.3534 -0.1569 -0.1120
11300TIP3    H155391   4.153   3.352  14.639  0.8902 -0.6869 -0.2113
11300TIP3    H255392   4.045   3.310  14.542 -0.2583  1.1441  0.2443
11301TIP3   OH255393   4.546   2.674   2.862  0.3391 -0.1077  0.4470
11301TIP3    H155394   4.506   2.616   2.796  0.3714 -0.7326  0.9623
11301TIP3    H255395   4.640   2.657   2.855  0.3796  0.1489  0.3585
11302TIP3   OH255396   3.993   4.416   5.308 -0.0091 -0.3910  0.4664
11302TIP3    H155397   4.040   4.332   5.299 -0.1285 -0.4102  0.0249
11302TIP3    H255398   3.995   4.434   5.402  1.1035 -0.2718  0.4382
11303TIP3   OH255399   4.985   5.964  16.651  0.2300 -0.2237 -0.1119
11303TIP3    H155400   4.985   5.876  16.613  0.4946 -1.3524  2.3566
11303TIP3    H255401   4.918   5.962  16.719  0.9390  1.1717  0.6804
11304TIP3   OH255402   0.640   2.595  14.502  0.0024  0.6077  0.6128
11304TIP3    H155403   0.613   2.680  14.468  1.0233 -0.1986 -2.5384
11304TIP3    H255404   0.735   2.601  14.509  0.0848 -0.2446  0.3671
11305TIP3   OH255405   6.170   5.592  16.841 -0.7523  0.4782  0.3042
11305TIP3    H155406   6.097   5.579  16.780 -0.4915  0.3599  0.0115
11305TIP3    H255407   6.136   5.565  16.926 -1.8259  2.7195  0.6427
11306TIP3   OH255408   3.628   3.562  11.184  0.1712  0.1276 -0.0589
11306TIP3    H155409   3.635   3.563  11.280 -1.2550 -0.9546  0.0850
11306TIP3    H255410   3.716   3.539  11.154  0.3801 -0.6111  1.0530
11307TIP3   OH255411   4.805   3.417  10.801 -0.6716 -0.4121  0.5403
11307TIP3    H155412   4.758   3.495  10.832  0.3748  1.4095 -2.0670
11307TIP3    H255413   4.897   3.444  10.803 -0.4629 -0.4102 -3.0757
11308TIP3   OH255414   1.757   5.014   0.553 -0.4635 -0.0379  0.6356
11308TIP3    H155415   1.679   5.069   0.548 -0.4693  0.0642  1.6950
11308TIP3    H255416   1.757   4.980   0.642  0.1166 -0.9198  0.3186
11309TIP3   OH255417   5.106   6.782   1.219 -0.2800 -0.2072 -0.2197
11309TIP3    H155418   5.126   6.777   1.312 -0.9785  0.2577 -0.0367
11309TIP3    H255419   5.116   6.693   1.187 -0.4937 -0.4582  0.4046
11310TIP3   OH255420   2.962   0.749  15.357  0.2626  0.1863  0.4300
11310TIP3    H155421   2.891   0.790  15.405 -0.7252 -1.3813  0.3840
11310TIP3    H255422   3.041   0.769  15.408 -0.8227 -2.0230  3.2221
11311TIP3   OH255423   1.964   0.302   0.091 -0.7211 -0.5999  0.2037
11311TIP3    H155424   1.889   0.290   0.033  0.3037  0.8433 -1.5470
11311TIP3    H255425   1.926   0.322   0.176 -2.4322  2.1437 -1.0674
11312TIP3   OH255426   6.211   3.015   3.973 -0.0078 -0.0622 -0.1839
11312TIP3    H155427   6.230   3.096   3.928  0.3252 -0.4201 -0.6978
11312TIP3    H255428   6.199   2.950   3.903  0.0278 -0.5190  0.2221
11313TIP3   OH255429   5.140   6.585  14.423 -0.0794  0.0464 -0.3158
11313TIP3    H155430   5.167   6.675  14.438  0.4345 -0.3738  1.5500
11313TIP3    H255431   5.207   6.548  14.366  1.0136  0.1912  0.8529
11314TIP3   OH255432   0.834   1.767   2.496 -0.8294  0.4374 -0.0374
11314TIP3    H155433   0.876   1.759   2.411 -1.0337  1.4803 -0.2520
11314TIP3    H255434   0.861   1.688   2.544 -0.6138 -0.0937 -1.0136
11315TIP3   OH255435   5.341   1.529   2.382 -0.2229  0.1210  0.0634
11315TIP3    H155436   5.310   1.441   2.360  0.1406  0.3557 -1.4795
11315TIP3    H255437   5.435   1.520   2.393 -0.3208  0.1261  1.0155
11316TIP3   OH255438   2.682   4.022   6.178  0.2280  0.4378 -0.0816
11316TIP3    H155439   2.622   4.052   6.247  1.4917  0.5033  1.0403
11316TIP3    H255440   2.666   3.928   6.171  1.2547  0.0977  1.5614
11317TIP3   OH255441   3.205   6.109   2.886  0.0143 -0.3576  0.2883
11317TIP3    H155442   3.192   6.056   2.964 -0.2581 -0.2714  0.3020
11317TIP3    H255443   3.219   6.045   2.816 -2.9027 -0.6042 -0.2145
11318TIP3   OH255444   0.061   4.181  12.467  0.1070 -0.3948  0.2123
11318TIP3    H155445   0.120   4.108  12.449  0.8317  0.2062  0.1291
11318TIP3    H255446   0.035   4.168  12.558 -0.8860 -1.5339 -0.1999
11319TIP3   OH255447   6.389   5.774  11.363  0.1729 -0.0802 -0.4010
11319TIP3    H155448   6.427   5.861  11.378 -1.8648  0.7853  0.0602
11319TIP3    H255449   6.448   5.714  11.410  1.0144  1.1724  0.1994
11320TIP3   OH255450   0.220   4.549   5.465 -0.6236  0.1382 -0.1114
11320TIP3    H155451   0.286   4.607   5.502  0.6291 -0.0502 -1.8952
11320TIP3    H255452   0.153   4.608   5.430  0.4650  0.5745 -1.5898
11321TIP3   OH255453   4.459   5.843   1.429  0.0146  0.0461 -0.0150
11321TIP3    H155454   4.444   5.936   1.411  3.0823  0.3905 -1.5477
11321TIP3    H255455   4.510   5.843   1.511 -0.9718 -0.4053  0.6114
11322TIP3   OH255456   0.521   0.347   6.450  0.4172 -0.1976  0.0891
11322TIP3    H155457   0.468   0.427   6.457  1.2391  0.2208  2.6877
11322TIP3    H255458   0.457   0.277   6.436 -0.6735  0.5348  1.2127
11323TIP3   OH255459   3.368   0.292  13.925  0.1161 -0.2150 -0.1824
11323TIP3    H155460   3.315   0.335  13.859 -0.0037 -1.6723 -1.0914
11323TIP3    H255461   3.321   0.210  13.944  1.4407 -1.0089 -0.1775
11324TIP3   OH255462   5.598   5.811   5.446  1.0809  0.7133 -0.5367
11324TIP3    H155463   5.647   5.886   5.480 -0.6879  1.3492  0.7973
11324TIP3    H255464   5.506   5.837   5.453  0.3046 -2.0353  1.1956
11325TIP3   OH255465   0.976   5.237   3.573  0.3197  0.4922 -0.4999
11325TIP3    H155466   1.038   5.203   3.637 -1.2666  0.0235  0.8619
11325TIP3    H255467   0.916   5.164   3.556 -1.0833  1.5125 -0.1792
11326TIP3   OH255468   1.593   6.591  13.044 -0.5539 -0.3551  0.2113
11326TIP3    H155469   1.652   6.516  13.041 -0.3387 -0.4230  3.0334
11326TIP3    H255470   1.648   6.663  13.075 -1.3879  0.2126  0.4116
11327TIP3   OH255471   5.027   3.529   0.015  0.4210  0.0344  0.5006
11327TIP3    H155472   4.999   3.552   0.103  0.0527  3.2752 -0.3363
11327TIP3    H255473   4.948   3.494  -0.027  0.0099  0.5630  0.8258
11328TIP3   OH255474   5.902   2.620   6.220 -0.1469 -0.4001 -0.3492
11328TIP3    H155475   5.966   2.616   6.149 -0.9769 -1.5433 -1.0707
11328TIP3    H255476   5.826   2.574   6.186 -0.9074 -0.1565  0.9551
11329TIP3   OH255477   2.527   6.585   1.205 -0.4534  0.2048  0.1484
11329TIP3    H155478   2.571   6.528   1.267 -0.4869  0.5588  0.5062
11329TIP3    H255479   2.595   6.645   1.175 -0.6366  0.6252  0.5517
11330TIP3   OH255480   2.038   4.567   2.459  0.0240  0.0106 -0.7776
11330TIP3    H155481   2.127   4.532   2.466  0.9266  2.0728 -1.0808
11330TIP3    H255482   1.999   4.548   2.544  0.9193 -0.5244 -0.4692
11331TIP3   OH255483   2.258   5.562   1.635  0.4543 -0.2128 -0.2631
11331TIP3    H155484   2.292   5.489   1.582 -1.2283 -0.8575 -0.5111
11331TIP3    H255485   2.257   5.636   1.575 -2.1572 -1.1131 -1.4695
11332TIP3   OH255486   4.083   0.811  13.970 -0.3278 -0.0745 -0.1865
11332TIP3    H155487   4.043   0.758  14.040 -0.9090  1.3068  0.5673
11332TIP3    H255488   4.177   0.804  13.986 -0.3942 -0.7466 -0.0155
11333TIP3   OH255489   6.372   1.747  15.446  0.0325 -0.4713 -0.0294
11333TIP3    H155490   6.395   1.821  15.503 -0.1275 -0.3011 -0.1825
11333TIP3    H255491   6.431   1.756  15.371  1.0998 -1.4096  0.6748
11334TIP3   OH255492   3.227   6.225  13.685  0.3602 -0.1347  0.0279
11334TIP3    H155493   3.171   6.299  13.664 -0.7918 -0.9573  0.0953
11334TIP3    H255494   3.190   6.152  13.635  0.9652 -0.8566  0.6026
11335TIP3   OH255495   2.741   1.588  10.734 -0.0597  0.5268 -0.3377
11335TIP3    H155496   2.681   1.539  10.678  0.4794  0.5988 -0.9850
11335TIP3    H255497   2.806   1.625  10.674  0.9999 -0.0669  0.4082
11336TIP3   OH255498   1.228   5.810   5.385  0.3846  0.0210  0.2949
11336TIP3    H155499   1.271   5.728   5.363  1.9514  0.9156 -0.1990
11336TIP3    H255500   1.157   5.819   5.322  0.3307 -0.8542  0.2284
11337TIP3   OH255501   4.640   4.175  15.335 -0.6750 -0.0247  0.0042
11337TIP3    H155502   4.697   4.104  15.364 -1.2289  0.0962  1.4701
11337TIP3    H255503   4.552   4.146  15.355 -0.8824  1.2378  1.0802
11338TIP3   OH255504   2.261   1.096   2.370  0.3454  0.1832 -0.3840
11338TIP3    H155505   2.210   1.046   2.307  0.2352 -1.3412  0.8663
11338TIP3    H255506   2.198   1.158   2.408 -0.0445 -0.1915 -0.4126
11339TIP3   OH255507   6.157   4.615   3.601  0.4034  0.5325  0.2555
11339TIP3    H155508   6.167   4.660   3.685  0.7960  2.0857 -0.5933
11339TIP3    H255509   6.070   4.575   3.606  0.4507  0.5482  1.4216
11340TIP3   OH255510   5.330   5.070   4.450 -0.0199  0.2631  0.4279
11340TIP3    H155511   5.254   5.094   4.502 -2.1658 -0.1141 -2.3036
11340TIP3    H255512   5.294   5.031   4.370  3.0147  0.7231 -1.3536
11341TIP3   OH255513   0.833   5.223   4.510 -0.2365 -0.4215  0.1728
11341TIP3    H155514   0.859   5.131   4.518  1.1635 -0.0641  0.0191
11341TIP3    H255515   0.801   5.247   4.597  0.2282 -0.8083  0.4528
11342TIP3   OH255516   2.237   1.376  16.507  0.7492  0.0837 -0.2045
11342TIP3    H155517   2.241   1.470  16.488 -0.2090 -0.1607 -1.8517
11342TIP3    H255518   2.268   1.335  16.426  1.8129 -1.0262  0.7328
11343TIP3   OH255519   1.522   1.617   1.900  0.6583 -0.0840  0.2469
11343TIP3    H155520   1.586   1.546   1.907 -1.2290 -1.8520  0.7457
11343TIP3    H255521   1.452   1.581   1.845  0.3451  2.0082 -0.8365
11344TIP3   OH255522   5.725   2.687   1.420 -0.0557  0.1997  0.2225
11344TIP3    H155523   5.748   2.770   1.462  0.4092 -0.8537  2.1417
11344TIP3    H255524   5.803   2.633   1.429 -0.2091 -0.3381 -1.3864
11345TIP3   OH255525   5.538   1.430  12.493  0.5549 -0.2998 -0.3032
11345TIP3    H155526   5.567   1.488  12.564  0.5897  1.8189 -1.9356
11345TIP3    H255527   5.445   1.450  12.483  0.8036  0.3460 -1.5941
11346TIP3   OH255528   4.037   2.757  10.431 -0.3122 -0.7449  0.2296
11346TIP3    H155529   4.077   2.692  10.488 -0.6355 -1.6584 -0.5590
11346TIP3    H255530   4.055   2.726  10.342  0.1547  0.6216 -0.1861
11347TIP3   OH255531   5.468   4.293   3.496  0.9232  0.2656  0.9484
11347TIP3    H155532   5.444   4.269   3.407  1.2149  2.0596  0.3486
11347TIP3    H255533   5.403   4.249   3.551 -0.9908  1.3555 -0.3314
11348TIP3   OH255534   2.545   4.909  13.368 -0.1820 -0.3100 -0.1079
11348TIP3    H155535   2.640   4.916  13.377 -0.2456 -0.7557  0.9485
11348TIP3    H255536   2.519   4.843  13.432 -1.2829  0.3008  0.0952
11349TIP3   OH255537   4.071   3.960  16.708  0.0559 -0.3923  0.3160
11349TIP3    H155538   4.100   3.913  16.630  0.8726  1.6497 -0.6861
11349TIP3    H255539   4.150   3.968  16.762  0.2147  0.8018 -0.0705
11350TIP3   OH255540   6.139   2.471   4.255 -0.2591  0.4657  0.4513
11350TIP3    H155541   6.228   2.500   4.274  1.0592 -2.1166 -1.2561
11350TIP3    H255542   6.143   2.375   4.258 -2.6614  0.2277 -0.9510
11351TIP3   OH255543   2.562   5.029  15.427  0.4600 -0.1778 -0.1166
11351TIP3    H155544   2.556   5.084  15.349 -1.5022 -0.5714 -0.2952
11351TIP3    H255545   2.477   4.984  15.432  0.4072  0.0350  2.3728
11352TIP3   OH255546   4.283   2.576   5.421  1.0561 -0.0629  0.1257
11352TIP3    H155547   4.286   2.672   5.422 -0.2700  0.0169 -0.4917
11352TIP3    H255548   4.342   2.549   5.492  0.3912  1.2548  1.2383
11353TIP3   OH255549   1.136   2.622  17.058  0.3294 -0.3005  0.4443
11353TIP3    H155550   1.082   2.619  16.979  0.0842  0.1464  0.5909
11353TIP3    H255551   1.119   2.709  17.095 -0.3304 -0.8750  1.5335
11354TIP3   OH255552   5.616   5.707  14.171 -0.2524  0.2935 -0.1940
11354TIP3    H155553   5.532   5.702  14.215  0.2647 -0.3258  0.7440
11354TIP3    H255554   5.599   5.763  14.094 -1.5967 -0.1575 -0.2551
11355TIP3   OH255555   6.184   5.723  11.596  0.0270 -0.3238  0.0586
11355TIP3    H155556   6.214   5.740  11.507 -2.2876 -0.6941 -0.8576
11355TIP3    H255557   6.257   5.679  11.638  1.4395  0.5174 -1.4205
11356TIP3   OH255558   4.811   5.243   1.201  0.2351  0.0215  0.3895
11356TIP3    H155559   4.747   5.296   1.249 -0.7353 -1.1341  0.4151
11356TIP3    H255560   4.861   5.307   1.150 -0.1200  1.0632  1.3157
11357TIP3   OH255561   0.226   6.431  10.366  0.1368  0.1350  0.2143
11357TIP3    H155562   0.145   6.475  10.390  0.8224  0.9292  1.1713
11357TIP3    H255563   0.226   6.352  10.420  1.0471  1.2692  1.9839
11358TIP3   OH255564   6.709   5.888   0.812  0.1844  0.3680 -0.0611
11358TIP3    H155565   6.688   5.899   0.719  0.1992  0.3917 -0.0618
11358TIP3    H255566   6.802   5.910   0.818 -0.1255  1.7102  0.1784
11359TIP3   OH255567   4.136   1.947   6.208  0.5271  0.0693 -0.2295
11359TIP3    H155568   4.088   2.022   6.243 -0.0091 -0.0099 -0.7752
11359TIP3    H255569   4.225   1.980   6.193  0.3076  0.5871 -0.4247
11360TIP3   OH255570   2.733   0.748  12.712  0.1742 -0.0587  0.1272
11360TIP3    H155571   2.705   0.676  12.656  0.1092 -0.1548  0.2817
11360TIP3    H255572   2.654   0.773  12.760  0.1775  0.1710  0.0112
11361TIP3   OH255573   5.361   6.530  11.015  0.2533  0.1004  0.4149
11361TIP3    H155574   5.421   6.480  11.070  0.9279  0.4402  0.0033
11361TIP3    H255575   5.418   6.578  10.955 -0.3888  1.1120  0.5936
11362TIP3   OH255576   1.750   6.709   3.014 -0.1079 -0.2531 -0.0612
11362TIP3    H155577   1.668   6.681   2.973 -0.5489 -1.1269  1.3302
11362TIP3    H255578   1.764   6.798   2.981 -0.2733 -0.9889 -2.2492
11363TIP3   OH255579   6.063   5.320  11.581 -0.0456 -0.3012  0.5001
11363TIP3    H155580   5.967   5.313  11.578 -0.0822  0.3903 -0.9043
11363TIP3    H255581   6.080   5.371  11.659 -0.7928 -0.8306  1.0263
11364TIP3   OH255582   3.984   3.442  16.613  0.1309 -0.7227  0.1957
11364TIP3    H155583   4.046   3.498  16.660 -0.9991 -0.8406  1.9030
11364TIP3    H255584   3.980   3.480  16.525  0.5771  0.9188  0.8424
11365TIP3   OH255585   2.589   3.531   0.581  0.0898 -0.1934 -0.0566
11365TIP3    H155586   2.671   3.504   0.621  0.9898 -0.9250 -2.2451
11365TIP3    H255587   2.524   3.468   0.612  1.0730 -1.6754 -0.9080
11366TIP3   OH255588   1.662   4.568  12.811 -0.1159 -0.6896 -0.7274
11366TIP3    H155589   1.583   4.526  12.845  0.4939 -4.1206 -3.0477
11366TIP3    H255590   1.734   4.528  12.859  0.3846  0.4637 -0.4735
11367TIP3   OH255591   2.605   2.576  16.451 -0.1452 -0.1865 -0.2201
11367TIP3    H155592   2.583   2.617  16.535 -0.4173 -0.6646 -0.0555
11367TIP3    H255593   2.578   2.485  16.461 -2.3134  0.2462 -1.6461
11368TIP3   OH255594   1.753   5.810   4.978 -0.2986  0.1241 -0.4601
11368TIP3    H155595   1.717   5.724   4.960  0.5071  0.3132 -3.6177
11368TIP3    H255596   1.716   5.866   4.910  2.0503  1.3762 -0.8377
11369TIP3   OH255597   6.607   4.636  16.643 -0.5805 -0.0984 -0.4347
11369TIP3    H155598   6.576   4.704  16.583  1.2958  1.7699  0.6054
11369TIP3    H255599   6.596   4.674  16.730  0.8009 -0.9959  0.1530
11370TIP3   OH255600   6.544   0.543  11.539 -0.4496 -0.0759 -0.0430
11370TIP3    H155601   6.599   0.605  11.586  0.4752 -0.4169 -0.6160
11370TIP3    H255602   6.457   0.554  11.575 -0.5011  2.1481 -0.7089
11371TIP3   OH255603   0.092   3.425   4.122 -0.7301  0.1423  0.6533
11371TIP3    H155604   0.136   3.500   4.083  0.3600  0.1035  1.7571
11371TIP3    H255605   0.061   3.373   4.047 -0.3514  1.0170 -0.1205
11372TIP3   OH255606   5.936   4.422   3.626  0.2758 -0.1841 -0.6048
11372TIP3    H155607   5.852   4.416   3.580  0.0718 -2.8108 -0.0106
11372TIP3    H255608   5.914   4.459   3.712 -0.3922 -1.4261 -0.2264
11373TIP3   OH255609   6.770   4.155  15.341 -0.1979  0.2313  0.3934
11373TIP3    H155610   6.831   4.111  15.282  1.5852  3.6493 -0.5991
11373TIP3    H255611   6.705   4.195  15.284 -1.8582 -1.0599  1.2728
11374TIP3   OH255612   5.544   3.176   1.542  0.5492  0.7406  0.1881
11374TIP3    H155613   5.562   3.180   1.448  2.5280  1.6808  0.5709
11374TIP3    H255614   5.479   3.106   1.551  1.5966 -0.5531 -1.7032
11375TIP3   OH255615   1.339   2.844   0.464 -0.2575  0.0467 -0.1446
11375TIP3    H155616   1.382   2.929   0.457  0.5044  0.1202  3.4700
11375TIP3    H255617   1.298   2.844   0.550 -0.5764 -3.1198 -0.1547
11376TIP3   OH255618   2.665   1.972  12.283 -0.3559  0.6651 -0.2545
11376TIP3    H155619   2.693   1.949  12.372  2.0293  0.3990 -0.9835
11376TIP3    H255620   2.707   2.057  12.267  1.0756 -0.2922 -1.8431
11377TIP3   OH255621   3.131   3.621   0.632 -0.3116  0.4730 -0.0229
11377TIP3    H155622   3.223   3.647   0.623 -0.5522  1.0089 -1.0085
11377TIP3    H255623   3.121   3.548   0.570 -0.1030 -0.8087  1.4019
11378TIP3   OH255624   2.371   4.261   0.842 -0.1570 -0.4857 -0.0190
11378TIP3    H155625   2.426   4.314   0.901 -0.2479 -0.5144  0.0915
11378TIP3    H255626   2.289   4.250   0.889  0.0680 -1.2231  0.2186
11379TIP3   OH255627   3.002   3.088   1.561  0.6184 -0.1791  0.2168
11379TIP3    H155628   3.069   3.140   1.606  1.1052 -2.2705  2.1163
11379TIP3    H255629   3.002   3.004   1.608 -2.1604 -0.8584 -0.8244
11380TIP3   OH255630   4.368   0.552  16.785  0.4025  0.0918  0.2782
11380TIP3    H155631   4.319   0.588  16.860  1.9993  0.2238  1.3104
11380TIP3    H255632   4.443   0.509  16.825  0.5332 -1.1148 -1.1953
11381TIP3   OH255633   1.340   3.026  13.000 -0.0137  0.7416 -0.0630
11381TIP3    H155634   1.356   3.011  13.093 -0.9393 -0.6688 -0.1144
11381TIP3    H255635   1.250   3.061  12.997 -0.3383 -0.1220 -0.4953
11382TIP3   OH255636   5.797   1.480   4.662  0.2730  0.4314 -0.3097
11382TIP3    H155637   5.762   1.464   4.575 -0.4324 -0.9806  0.2070
11382TIP3    H255638   5.727   1.527   4.708  1.1699  2.4377 -0.8835
11383TIP3   OH255639   1.426   3.704  13.377  0.1460  0.1731  0.0505
11383TIP3    H155640   1.394   3.762  13.308  0.7470 -0.2818 -0.6341
11383TIP3    H255641   1.359   3.637  13.385  0.3050 -0.0488 -0.4505
11384TIP3   OH255642   4.810   5.348   2.307 -0.1012 -0.1972  0.1070
11384TIP3    H155643   4.792   5.435   2.271  0.5729 -0.2612 -0.4280
11384TIP3    H255644   4.748   5.337   2.378 -1.8418 -0.2459 -1.3382
11385TIP3   OH255645   4.220   2.485  12.174 -0.3267 -0.5003 -0.5909
11385TIP3    H155646   4.283   2.543  12.132 -1.8864  1.8558  0.1291
11385TIP3    H255647   4.274   2.426  12.228  1.3249  0.4933 -1.0846
11386TIP3   OH255648   5.568   4.778  12.149  0.2072  0.5030  0.5264
11386TIP3    H155649   5.655   4.769  12.186 -0.5323 -3.2622  1.7453
11386TIP3    H255650   5.510   4.786  12.225 -0.7351  0.3331 -0.1520
11387TIP3   OH255651   4.226   0.070   4.138 -0.0813 -0.1482 -0.4759
11387TIP3    H155652   4.226   0.164   4.121  0.6184 -0.2057 -0.8173
11387TIP3    H255653   4.312   0.052   4.177 -0.8389 -0.3676  1.2057
11388TIP3   OH255654   1.177   2.681   3.782 -0.2023  0.3476  0.1115
11388TIP3    H155655   1.262   2.654   3.747  0.0086 -0.4088  1.1591
11388TIP3    H255656   1.133   2.723   3.708  0.2440 -1.1318 -1.0445
11389TIP3   OH255657   2.877   4.740   4.446 -0.6497  0.3206 -0.4068
11389TIP3    H155658   2.807   4.675   4.450  0.6607 -1.1631 -0.7237
11389TIP3    H255659   2.906   4.738   4.355 -0.3355  1.0845 -0.3306
11390TIP3   OH255660   3.048   5.488   4.430 -0.0003 -0.3573  0.1717
11390TIP3    H155661   3.121   5.452   4.481 -1.0671  0.5844  2.5339
11390TIP3    H255662   2.972   5.438   4.458 -0.6297  0.1778 -0.5376
11391TIP3   OH255663   5.493   6.174   6.176  0.9383 -0.1147 -0.5902
11391TIP3    H155664   5.453   6.098   6.218  0.0845  0.5168 -0.2319
11391TIP3    H255665   5.435   6.247   6.197  0.1409  0.1660 -3.3669
11392TIP3   OH255666   1.910   3.414   4.933  0.2856 -0.0112 -0.1245
11392TIP3    H155667   1.828   3.404   4.980  0.4699 -0.6314  0.0716
11392TIP3    H255668   1.900   3.496   4.884  0.6810  1.4963  2.1761
11393TIP3   OH255669   6.473   2.740   2.114 -0.0830  0.1311 -0.1705
11393TIP3    H155670   6.484   2.750   2.020 -1.8233 -0.4945 -0.4841
11393TIP3    H255671   6.417   2.813   2.140 -1.0665 -0.6750  0.0406
11394TIP3   OH255672   5.402   3.840  11.042 -0.1473 -0.6308 -0.0173
11394TIP3    H155673   5.335   3.856  10.976 -0.1402  0.3671  0.2131
11394TIP3    H255674   5.375   3.758  11.084  0.4116 -1.9030 -1.9605
11395TIP3   OH255675   6.462   1.264   3.534  0.3132  0.4263  0.0205
11395TIP3    H155676   6.388   1.220   3.492 -0.6805  0.9993  1.0938
11395TIP3    H255677   6.502   1.197   3.589  0.4720  0.1608 -0.4186
11396TIP3   OH255678   3.751   2.947  17.128  0.1793 -0.4694 -0.2995
11396TIP3    H155679   3.747   3.020  17.065  2.7313 -1.6298 -1.9758
11396TIP3    H255680   3.697   2.879  17.088 -1.9232  0.2947  1.0988
11397TIP3   OH255681   3.079   0.051   1.471 -0.1874 -0.0506  0.0010
11397TIP3    H155682   2.985   0.037   1.483 -0.3472  0.1141 -0.9837
11397TIP3    H255683   3.116  -0.037   1.464 -0.0826 -0.1606  1.5653
11398TIP3   OH255684   5.571   5.185  16.550 -0.0575 -0.5424 -0.1192
11398TIP3    H155685   5.657   5.142  16.555 -0.6822 -1.7152  1.4762
11398TIP3    H255686   5.555   5.217  16.639 -0.8750  0.4988 -0.6210
11399TIP3   OH255687   1.825   3.995   5.888 -0.4967 -0.2048  0.3041
11399TIP3    H155688   1.811   4.027   5.977 -2.1112 -2.1584  0.8125
11399TIP3    H255689   1.752   4.033   5.838  0.7228  1.3605 -0.3857
11400TIP3   OH255690   1.044   6.453   3.411  0.8075  0.3481 -0.2180
11400TIP3    H155691   1.123   6.457   3.464 -0.2750  2.5165  1.4260
11400TIP3    H255692   0.974   6.430   3.472  0.0168 -0.6648 -1.4421
11401TIP3   OH255693   2.471   4.230   2.685 -0.0172 -0.0043 -0.4565
11401TIP3    H155694   2.478   4.167   2.757  1.3911 -0.1014 -0.6444
11401TIP3    H255695   2.561   4.242   2.655 -0.3688  1.4586 -0.9958
11402TIP3   OH255696   0.313   4.769  13.706 -0.2215 -0.2146 -0.4796
11402TIP3    H155697   0.313   4.858  13.670  1.0760 -0.0727 -0.1612
11402TIP3    H255698   0.355   4.716  13.638  1.1501 -0.1530  0.2893
11403TIP3   OH255699   1.801   1.678   0.252 -0.4448  0.4209 -0.1929
11403TIP3    H155700   1.856   1.659   0.328 -0.5230  1.1480  0.0517
11403TIP3    H255701   1.739   1.605   0.248  0.4495 -0.3675 -0.4114
11404TIP3   OH255702   3.166   1.934  12.310 -0.0402  0.3008  0.0345
11404TIP3    H155703   3.123   1.917  12.394  1.3083  0.8303  0.8666
11404TIP3    H255704   3.118   1.880  12.247 -0.9009 -0.3284  1.1911
11405TIP3   OH255705   0.500   2.371  10.926  0.1644 -0.1277  0.5106
11405TIP3    H155706   0.466   2.453  10.890 -0.1426 -0.7404 -0.6416
11405TIP3    H255707   0.435   2.305  10.902  0.0598 -0.6108  2.0193
11406TIP3   OH255708   4.195   5.163  11.642  0.7413  0.0115 -0.2915
11406TIP3    H155709   4.137   5.133  11.571 -0.9044  0.9002  0.6245
11406TIP3    H255710   4.258   5.091  11.653  0.4835 -0.5240 -2.0399
11407TIP3   OH255711   1.584   0.917   2.991  0.0756 -0.2421 -0.1174
11407TIP3    H155712   1.493   0.942   2.973 -0.2500  0.5911  2.2917
11407TIP3    H255713   1.632   1.000   2.991  0.9614 -0.7119 -1.7409
11408TIP3   OH255714   5.059   2.686  15.908  0.3691  0.2073  0.0711
11408TIP3    H155715   4.975   2.649  15.883  0.6502  0.1073 -0.7236
11408TIP3    H255716   5.070   2.660  16.000 -0.2609 -0.1412  0.0520
11409TIP3   OH255717   2.548   1.855  12.033  0.1785 -0.4032  0.4961
11409TIP3    H155718   2.518   1.929  11.980  1.8157  0.0618  0.1618
11409TIP3    H255719   2.599   1.896  12.103  2.4334 -1.2571 -0.5796
11410TIP3   OH255720   1.010   4.060  10.421  0.3215  0.3428  0.1851
11410TIP3    H155721   0.951   3.989  10.396 -0.4611  1.2947 -0.7651
11410TIP3    H255722   0.972   4.096  10.502  0.9600 -0.5710  0.9102
11411TIP3   OH255723   1.129   5.881   0.369  0.0127  0.0663  0.6350
11411TIP3    H155724   1.093   5.833   0.444  0.3525  0.4692  1.0630
11411TIP3    H255725   1.096   5.833   0.292 -0.4859 -0.2478  1.0320
11412TIP3   OH255726   5.649   4.403   1.337 -0.0488 -0.3656 -0.1218
11412TIP3    H155727   5.668   4.423   1.429 -0.6944  1.6865 -0.3968
11412TIP3    H255728   5.727   4.429   1.290 -0.0951 -0.4940 -0.2703
11413TIP3   OH255729   5.051   5.046   3.857 -0.3435 -0.0188 -0.3308
11413TIP3    H155730   5.050   4.988   3.934 -1.7618 -0.5140 -0.6908
11413TIP3    H255731   5.104   5.121   3.884  3.2757 -2.2723 -0.4909
11414TIP3   OH255732   4.917   6.129  14.846  0.3357  0.9823 -0.2238
11414TIP3    H155733   4.836   6.156  14.801  0.7900  0.6721 -1.2443
11414TIP3    H255734   4.886   6.080  14.922 -0.4449  0.3767 -0.9047
11415TIP3   OH255735   4.788   1.956   4.098 -0.8448  0.1807 -0.6262
11415TIP3    H155736   4.758   2.043   4.070 -0.1643  0.5891 -0.1260
11415TIP3    H255737   4.883   1.963   4.099 -0.8105  0.2148  1.7858
11416TIP3   OH255738   0.275   1.533  13.359  0.0815 -0.1210 -0.4209
11416TIP3    H155739   0.255   1.626  13.358  0.4737 -0.0362 -0.7022
11416TIP3    H255740   0.371   1.530  13.357  0.0809 -0.5219  0.0411
11417TIP3   OH255741   1.526   6.245   0.449  0.0348 -0.6402  0.2626
11417TIP3    H155742   1.518   6.277   0.359 -0.5728 -0.1041  0.4976
11417TIP3    H255743   1.620   6.228   0.460  0.2524  0.2159 -0.1600
11418TIP3   OH255744   4.409   4.277  13.739  0.0968  0.3100  0.7622
11418TIP3    H155745   4.436   4.277  13.647 -0.4698  0.2081  0.5965
11418TIP3    H255746   4.467   4.341  13.780  2.7379 -2.0631  1.0574
11419TIP3   OH255747   1.054   3.590  15.405 -0.0349  0.1606 -0.1360
11419TIP3    H155748   1.078   3.559  15.493 -2.2028  0.5922  0.6602
11419TIP3    H255749   0.975   3.541  15.384 -0.7124  1.5623 -0.9607
11420TIP3   OH255750   5.115   3.622  15.098  0.1480 -0.1672 -0.0291
11420TIP3    H155751   5.203   3.645  15.068 -0.0390  0.5219 -0.0620
11420TIP3    H255752   5.129   3.575  15.180  0.6020 -1.0165 -0.5846
11421TIP3   OH255753   0.999   5.633  14.869  0.0304  0.3192  0.5477
11421TIP3    H155754   0.997   5.539  14.888  2.2604 -0.2321 -1.4863
11421TIP3    H255755   0.968   5.640  14.779  0.3807  1.4957  0.5004
11422TIP3   OH255756   1.699   1.050   0.971 -0.1669 -0.6230 -0.4268
11422TIP3    H155757   1.775   1.068   0.916 -0.1388  2.6951  0.4428
11422TIP3    H255758   1.735   1.012   1.051  0.7860  1.5762  0.2754
11423TIP3   OH255759   5.236   5.031   3.381  0.6937 -0.3170 -0.6688
11423TIP3    H155760   5.224   5.006   3.472  1.9065 -1.0683 -0.6858
11423TIP3    H255761   5.303   4.971   3.349 -0.5028 -0.8197 -2.3696
11424TIP3   OH255762   0.818   5.887  11.924  0.1304 -0.6790 -0.7374
11424TIP3    H155763   0.889   5.873  11.987  0.6407  2.6337 -0.3665
11424TIP3    H255764   0.742   5.843  11.963  1.0374 -0.8658  0.9282
11425TIP3   OH255765   5.941   0.837  12.874  0.3342  0.1194 -0.7755
11425TIP3    H155766   6.034   0.838  12.851  0.2946  1.1678 -0.9463
11425TIP3    H255767   5.906   0.919  12.838 -0.2341  0.7089  0.9778
11426TIP3   OH255768   6.796   6.258  13.624 -0.0728  0.1160 -0.8285
11426TIP3    H155769   6.761   6.340  13.657 -0.6655 -0.5042  0.1339
11426TIP3    H255770   6.749   6.243  13.542  0.3931  0.9668 -1.2642
11427TIP3   OH255771   0.095   6.695   1.907 -0.3969 -0.1249 -0.2384
11427TIP3    H155772   0.175   6.721   1.861  1.3591 -2.9346  0.9567
11427TIP3    H255773   0.091   6.753   1.983  0.6891 -0.1035 -0.1801
11428TIP3   OH255774   2.942   5.351  11.632 -0.2013  1.0691 -0.2834
11428TIP3    H155775   2.924   5.267  11.591 -0.1966  1.1999 -0.5540
11428TIP3    H255776   2.892   5.414  11.581  0.1661  1.2929 -0.3706
11429TIP3   OH255777   4.333   6.270  11.710  0.2684  0.3183  0.0759
11429TIP3    H155778   4.292   6.269  11.624  1.6437 -0.8402 -0.5980
11429TIP3    H255779   4.299   6.193  11.755  2.6367 -1.4992 -1.0159
11430TIP3   OH255780   0.676   5.992  17.074  0.6204 -0.4307 -0.1715
11430TIP3    H155781   0.771   5.984  17.082  0.7015  1.4017  1.0741
11430TIP3    H255782   0.643   5.909  17.108  1.7672 -2.0658 -2.7000
11431TIP3   OH255783   6.606   3.982  14.199  0.6066  1.0857  0.1890
11431TIP3    H155784   6.615   3.901  14.149 -0.4488  0.8583  0.3491
11431TIP3    H255785   6.688   4.030  14.182  1.3744 -0.1311  0.3335
11432TIP3   OH255786   6.341   5.210  16.645  0.3843 -0.2157  0.0620
11432TIP3    H155787   6.378   5.298  16.646 -0.3893  0.1158  0.0732
11432TIP3    H255788   6.318   5.193  16.736 -1.3340  0.3859 -0.2351
11433TIP3   OH255789   5.014   4.630   2.260  0.1474  0.3755 -0.0793
11433TIP3    H155790   5.093   4.582   2.235  0.7450  1.4057 -0.2371
11433TIP3    H255791   4.942   4.570   2.241  0.8595 -0.4281 -0.3166
11434TIP3   OH255792   3.027   2.415  14.743 -0.3710  0.2696 -0.4597
11434TIP3    H155793   3.122   2.417  14.726 -0.0613 -0.1544  1.0616
11434TIP3    H255794   2.987   2.438  14.659  1.0762  0.3123 -1.1679
11435TIP3   OH255795   4.396   4.722   1.476 -0.1248  0.0437  0.8413
11435TIP3    H155796   4.430   4.653   1.532  0.2831 -0.0387  0.5010
11435TIP3    H255797   4.437   4.802   1.509 -1.0454  0.2102  1.6006
11436TIP3   OH255798   2.573   6.456  15.925  0.9271  0.0406 -0.7226
11436TIP3    H155799   2.561   6.429  15.834  1.4657 -0.9812 -0.5049
11436TIP3    H255800   2.663   6.431  15.945  0.4335 -0.8935  0.4577
11437TIP3   OH255801   1.144   3.541  15.664 -0.0289  0.3386 -0.9300
11437TIP3    H155802   1.218   3.597  15.688  0.4930  0.0843 -1.9014
11437TIP3    H255803   1.179   3.452  15.667 -0.9154 -0.0064  0.8291
11438TIP3   OH255804   6.747   5.709   1.445 -0.0574 -0.1561 -0.2628
11438TIP3    H155805   6.676   5.762   1.483  0.1700  0.6006 -0.8652
11438TIP3    H255806   6.711   5.620   1.442 -0.0262 -0.2906  1.8352
11439TIP3   OH255807   2.373   6.458   5.890 -0.1473  0.3320  0.6699
11439TIP3    H155808   2.400   6.367   5.878 -3.0849 -0.4183 -1.3151
11439TIP3    H255809   2.453   6.509   5.876  1.3456 -1.8725  0.7295
11440TIP3   OH255810   3.244   2.465  12.403 -0.2569 -0.4703  0.0919
11440TIP3    H155811   3.220   2.550  12.365  2.7466  0.7102  0.4726
11440TIP3    H255812   3.224   2.474  12.496 -2.5493 -1.3143 -0.2637
11441TIP3   OH255813   6.750   1.642  13.765  0.0624 -0.2176 -0.7687
11441TIP3    H155814   6.678   1.655  13.827  0.2116  0.3117 -0.7026
11441TIP3    H255815   6.777   1.551  13.778 -1.2438 -0.7443 -1.4884
11442TIP3   OH255816   5.487   6.420   5.854  0.3472  0.0156 -0.2729
11442TIP3    H155817   5.481   6.355   5.784 -2.3237 -0.1296 -0.0226
11442TIP3    H255818   5.403   6.466   5.851  1.1781  1.7397  1.2096
11443TIP3   OH255819   1.050   3.741   4.543 -0.6618  0.1357  0.4478
11443TIP3    H155820   1.034   3.800   4.616 -0.4401  0.2799  0.3806
11443TIP3    H255821   1.145   3.731   4.541 -0.7293 -0.6073  0.7618
11444TIP3   OH255822   3.463   0.734  14.945 -0.6696  0.1554 -0.0938
11444TIP3    H155823   3.506   0.716  14.862 -2.1280 -0.2249 -0.7925
11444TIP3    H255824   3.496   0.821  14.971  1.2329 -0.5188 -0.0808
11445TIP3   OH255825   5.044   6.259  13.510 -0.4747  0.0274 -0.8301
11445TIP3    H155826   5.014   6.278  13.421 -0.5116 -0.4235 -0.9155
11445TIP3    H255827   5.134   6.229  13.500 -0.4966 -0.0756 -0.7182
11446TIP3   OH255828   1.510   0.939   6.571 -0.4637  1.0810 -0.5970
11446TIP3    H155829   1.540   1.024   6.602 -1.1306  0.6054  1.5118
11446TIP3    H255830   1.552   0.928   6.486  1.6167  2.4194  0.1940
11447TIP3   OH255831   5.864   4.790  13.498 -1.0267  0.2448  0.4048
11447TIP3    H155832   5.868   4.797  13.403 -0.4379 -0.2513  0.3855
11447TIP3    H255833   5.870   4.696  13.516  0.4103  0.4066  0.9795
11448TIP3   OH255834   0.869   0.809   5.065 -0.0860  0.1134 -0.1620
11448TIP3    H155835   0.806   0.744   5.095 -0.2120  1.1322  1.9296
11448TIP3    H255836   0.876   0.872   5.137  1.5136  1.3476 -1.3075
11449TIP3   OH255837   3.058   0.120   5.110  0.0778 -0.2867 -0.3889
11449TIP3    H155838   2.995   0.163   5.053  0.1373 -0.4087 -0.5461
11449TIP3    H255839   3.007   0.053   5.156 -0.7956  1.9858  2.2604
11450TIP3   OH255840   4.824   6.229   1.432  0.1046 -0.5435 -0.2351
11450TIP3    H155841   4.778   6.260   1.510  0.9170  2.9572 -0.9486
11450TIP3    H255842   4.917   6.245   1.451  0.6931 -3.1960 -0.5546
11451TIP3   OH255843   3.736   1.586  10.706  0.2816 -0.5240 -0.6183
11451TIP3    H155844   3.660   1.542  10.668 -0.6163  1.2048 -0.9176
11451TIP3    H255845   3.793   1.605  10.632  0.2815 -0.4552 -0.6008
11452TIP3   OH255846   1.201   0.864   0.382 -0.1871  0.4550  0.2325
11452TIP3    H155847   1.150   0.783   0.379  0.1662  0.2582 -0.7539
11452TIP3    H255848   1.257   0.860   0.305 -0.0043  1.5410  0.2962
11453TIP3   OH255849   5.292   2.614  11.943 -0.0320  0.3608 -0.6609
11453TIP3    H155850   5.370   2.631  11.996 -0.4855  2.4053 -0.5518
11453TIP3    H255851   5.322   2.555  11.874  1.1510 -0.3696  0.4458
11454TIP3   OH255852   1.218   1.302  13.634  0.0915  0.1533 -0.1693
11454TIP3    H155853   1.232   1.394  13.656 -0.9425  0.7001 -1.6699
11454TIP3    H255854   1.199   1.302  13.540 -0.5590 -1.5198 -0.0718
11455TIP3   OH255855   4.783   0.349  12.220 -0.7379 -0.0009 -0.5551
11455TIP3    H155856   4.786   0.258  12.248 -0.1746 -0.0207 -0.6585
11455TIP3    H255857   4.737   0.395  12.291  3.0016  0.4417  1.9152
11456TIP3   OH255858   4.476   5.485   5.137 -0.0767  0.5082 -0.3573
11456TIP3    H155859   4.543   5.490   5.205 -1.9165 -3.3286  2.1178
11456TIP3    H255860   4.523   5.465   5.057  1.8877 -1.4852  1.1736
11457TIP3   OH255861   1.716   4.893  11.362 -0.1118 -0.6723  0.5884
11457TIP3    H155862   1.790   4.857  11.312 -1.0043 -1.1382 -0.4553
11457TIP3    H255863   1.650   4.823  11.360 -0.3458 -0.5298  2.0821
11458TIP3   OH255864   1.242   0.285   0.371  0.0837 -0.4957  0.3830
11458TIP3    H155865   1.189   0.281   0.292  0.4000 -0.5478  0.1706
11458TIP3    H255866   1.180   0.303   0.441 -0.1846 -0.3380  0.1064
11459TIP3   OH255867   4.602   1.263  13.887  0.3002  0.0672 -0.1626
11459TIP3    H155868   4.687   1.307  13.890  0.4426 -0.2573  1.1080
11459TIP3    H255869   4.545   1.326  13.842  0.4596  1.7012  1.7429
11460TIP3   OH255870   2.477   1.626  15.295  0.1366 -0.1550  0.0869
11460TIP3    H155871   2.413   1.618  15.224 -1.1747 -0.3376  1.2528
11460TIP3    H255872   2.480   1.719  15.314  0.8436 -0.0467 -0.4940
11461TIP3   OH255873   1.928   3.802   0.423  0.2085  0.0167  0.5042
11461TIP3    H155874   1.912   3.813   0.329 -2.2948  0.1511  0.8674
11461TIP3    H255875   1.968   3.715   0.431 -0.6823 -0.5214 -0.6162
11462TIP3   OH255876   2.736   4.855   4.650  0.3898  0.0662 -0.2023
11462TIP3    H155877   2.788   4.800   4.592  0.7886 -2.5004  2.3842
11462TIP3    H255878   2.649   4.856   4.609  0.4890 -2.1621 -0.5942
11463TIP3   OH255879   3.172   1.709  15.155 -0.0897  0.7744 -0.5266
11463TIP3    H155880   3.248   1.694  15.099 -0.1312  1.1482 -0.6781
11463TIP3    H255881   3.164   1.804  15.162  1.1195  0.7859  1.7305
11464TIP3   OH255882   1.674   4.049  12.145 -0.2900  0.1055  0.2469
11464TIP3    H155883   1.724   4.030  12.224  0.9558 -0.5743 -0.6684
11464TIP3    H255884   1.625   4.129  12.166  0.6091  0.3694  1.4342
11465TIP3   OH255885   3.236   3.057  15.940 -0.1888  0.0232 -1.0210
11465TIP3    H155886   3.213   2.964  15.940  0.4961 -0.3475  3.3765
11465TIP3    H255887   3.331   3.059  15.952 -0.3242  1.2402  0.0671
11466TIP3   OH255888   0.207   3.234   0.128 -0.3299  0.4978  0.4754
11466TIP3    H155889   0.170   3.235   0.040 -0.9685 -1.0876  0.6815
11466TIP3    H255890   0.301   3.245   0.114  0.0376 -2.8855 -0.7709
11467TIP3   OH255891   6.364   6.477   0.760  0.0045 -0.2868  0.2700
11467TIP3    H155892   6.429   6.459   0.693 -0.2017 -1.7192  0.4275
11467TIP3    H255893   6.382   6.413   0.829  0.2781  1.2034  1.6568
11468TIP3   OH255894   4.651   5.144   3.370 -0.9566 -0.0957  0.1398
11468TIP3    H155895   4.711   5.193   3.427 -0.1541  1.1443 -1.6719
11468TIP3    H255896   4.669   5.178   3.282 -2.0336 -2.0511 -0.8886
11469TIP3   OH255897   2.031   6.384   6.947 -0.2372 -0.0137  0.1395
11469TIP3    H155898   1.965   6.358   6.884  1.5486 -3.3277 -0.6069
11469TIP3    H255899   2.113   6.387   6.897  0.6271  1.3653  1.5225
11470TIP3   OH255900   3.399   6.048   0.236 -0.1048  0.3654  0.3796
11470TIP3    H155901   3.366   6.135   0.261  0.3307  1.0254 -1.2339
11470TIP3    H255902   3.321   5.998   0.213 -0.3589  0.2911  1.3375
11471TIP3   OH255903   3.969   3.354  15.560  0.5317  0.7895 -0.1030
11471TIP3    H155904   3.881   3.360  15.598  0.4081 -1.2177  0.0276
11471TIP3    H255905   3.958   3.388  15.471  0.0499  2.2597  0.4889
11472TIP3   OH255906   2.964   6.218   4.538 -0.3125  0.4475 -0.4893
11472TIP3    H155907   3.006   6.291   4.583 -0.4771  0.8295 -0.9474
11472TIP3    H255908   2.877   6.212   4.579 -0.1760  0.2900 -0.2202
11473TIP3   OH255909   6.781   3.674   6.174  0.0895 -0.0781  0.6714
11473TIP3    H155910   6.793   3.616   6.250  0.8352  1.0354  1.4343
11473TIP3    H255911   6.852   3.650   6.115 -1.0780 -1.6475 -0.1795
11474TIP3   OH255912   2.913   1.270  11.772  0.4607  0.3731 -0.2587
11474TIP3    H155913   2.985   1.277  11.709  0.4676 -2.2870 -0.6653
11474TIP3    H255914   2.952   1.228  11.848 -0.1603  1.0635  0.4490
11475TIP3   OH255915   6.174   1.063  13.194 -0.2202  0.0908 -0.7362
11475TIP3    H155916   6.260   1.044  13.231 -1.0558 -2.3961  0.1400
11475TIP3    H255917   6.115   1.002  13.238 -2.4290  1.5910 -1.4370
11476TIP3   OH255918   6.526   3.542   4.798 -0.0229 -0.4267 -0.3111
11476TIP3    H155919   6.585   3.617   4.786 -0.3945 -0.4056 -2.2954
11476TIP3    H255920   6.585   3.469   4.817  0.3794  0.2371  1.1547
11477TIP3   OH255921   2.520   0.513  16.535  0.5785  0.1794 -0.1924
11477TIP3    H155922   2.570   0.550  16.608  0.8809  0.5889 -0.6006
11477TIP3    H255923   2.489   0.589  16.486  2.3668 -0.0587 -1.8430
11478TIP3   OH255924   2.030   2.627  12.957 -0.0502 -0.8788 -0.3875
11478TIP3    H155925   1.956   2.684  12.937 -0.4378 -0.9494  0.7735
11478TIP3    H255926   1.994   2.538  12.948 -0.5311 -0.9221  1.5198
11479TIP3   OH255927   2.139   4.242   4.935  0.9245  0.2731 -0.1301
11479TIP3    H155928   2.215   4.228   4.879  0.9916 -0.5694  0.1609
11479TIP3    H255929   2.064   4.227   4.877  0.9834  0.3611 -0.2306
11480TIP3   OH255930   3.010   0.279   0.795  0.0104 -0.3505  0.3020
11480TIP3    H155931   2.991   0.373   0.798 -0.0432 -0.3544  0.0738
11480TIP3    H255932   2.974   0.250   0.712  2.4795 -0.0239 -0.9844
11481TIP3   OH255933   3.450   5.293   4.808 -0.1284 -0.1991 -0.5944
11481TIP3    H155934   3.449   5.238   4.730  1.2712  1.4833 -1.8464
11481TIP3    H255935   3.524   5.261   4.859  0.6781  0.4787 -1.3159
11482TIP3   OH255936   1.683   3.261   2.791 -0.5158 -0.7647  0.5477
11482TIP3    H155937   1.604   3.230   2.746  0.4738 -1.7204 -0.5869
11482TIP3    H255938   1.677   3.357   2.785 -0.7027 -0.8429 -1.1814
11483TIP3   OH255939   0.938   1.751   1.153  0.1281  0.2482 -0.1642
11483TIP3    H155940   0.903   1.758   1.242  1.1730 -2.1689  0.5267
11483TIP3    H255941   0.864   1.723   1.100  0.2544 -1.9515  0.7175
11484TIP3   OH255942   1.126   0.629  14.714 -0.0193  0.1655 -0.2045
11484TIP3    H155943   1.202   0.572  14.710  1.5097  2.1455 -0.9011
11484TIP3    H255944   1.059   0.577  14.759  1.4075 -1.9665 -0.4029
11485TIP3   OH255945   4.531   4.574  12.265  0.2957 -0.2702 -0.1129
11485TIP3    H155946   4.594   4.601  12.197  1.2457 -1.3935  0.2920
11485TIP3    H255947   4.545   4.637  12.336  0.1540  0.1747 -0.4734
11486TIP3   OH255948   2.286   4.464  17.060  0.2427  0.1411 -0.0989
11486TIP3    H155949   2.301   4.372  17.036  0.4320  0.6596 -2.2069
11486TIP3    H255950   2.200   4.464  17.101 -0.9089 -0.7136 -2.3180
11487TIP3   OH255951   3.282   1.409   2.145  0.0268  0.4486  0.3250
11487TIP3    H155952   3.371   1.422   2.111 -0.0809 -0.2814 -0.2592
11487TIP3    H255953   3.245   1.496   2.150  1.1500  0.8889  1.5978
11488TIP3   OH255954   6.835   0.092  15.451  0.7266 -0.2956 -0.7094
11488TIP3    H155955   6.812  -0.001  15.446  0.2691 -0.1427 -1.7005
11488TIP3    H255956   6.924   0.092  15.484  0.4518 -1.0544  0.0725
11489TIP3   OH255957   6.393   0.045   3.641  0.4175  0.1107  0.2315
11489TIP3    H155958   6.306   0.009   3.628  0.7075 -0.4408 -0.2347
11489TIP3    H255959   6.437   0.033   3.556  1.1725 -0.2686  0.6673
11490TIP3   OH255960   3.078   5.574  11.957 -0.1035  0.5467 -0.1943
11490TIP3    H155961   3.119   5.554  12.042 -1.2766  0.7260  0.4323
11490TIP3    H255962   2.994   5.530  11.960 -0.1146  0.4676 -1.3292
11491TIP3   OH255963   2.151   1.814  14.128 -0.0914 -0.3522  0.2785
11491TIP3    H155964   2.135   1.899  14.087  1.4201  0.0891  0.5482
11491TIP3    H255965   2.239   1.790  14.101 -0.7095 -2.1390 -0.2647
11492TIP3   OH255966   1.562   5.320  16.031 -0.0746 -0.2410  0.4257
11492TIP3    H155967   1.496   5.359  15.974 -0.9675 -0.8463  1.0248
11492TIP3    H255968   1.617   5.269  15.972  0.6028  1.2067 -0.2454
11493TIP3   OH255969   5.934   5.114   4.007  0.1856 -0.2252  0.1658
11493TIP3    H155970   5.986   5.182   4.051 -0.6489  1.6508 -1.5658
11493TIP3    H255971   5.860   5.098   4.065  0.7627 -0.2000  0.9233
11494TIP3   OH255972   5.326   3.986  15.594 -0.0313 -0.1239 -0.4847
11494TIP3    H155973   5.414   3.997  15.630 -0.4800 -1.0642  1.0101
11494TIP3    H255974   5.329   3.902  15.548 -0.7974 -1.6273  1.9699
11495TIP3   OH255975   0.176   1.488   2.614  0.0167 -0.0133  0.4019
11495TIP3    H155976   0.157   1.464   2.705  0.6928 -1.5535  0.1660
11495TIP3    H255977   0.187   1.404   2.569 -1.7441  0.6771 -1.4416
11496TIP3   OH255978   6.795   1.446   1.436 -0.4229 -0.0234 -0.1622
11496TIP3    H155979   6.737   1.522   1.428 -0.0546  0.2572 -0.1635
11496TIP3    H255980   6.780   1.397   1.355 -1.0525 -0.2315  0.0753
11497TIP3   OH255981   1.285   5.343   5.590 -0.5584  0.1197 -0.3588
11497TIP3    H155982   1.227   5.272   5.619  0.8957 -0.6513  0.8059
11497TIP3    H255983   1.360   5.337   5.649  0.3718  1.5512 -1.3628
11498TIP3   OH255984   0.961   3.721  12.145  0.0160 -0.1109 -0.5925
11498TIP3    H155985   1.015   3.644  12.128 -0.5492 -0.5376 -0.5040
11498TIP3    H255986   1.018   3.795  12.127  0.2737 -0.5467 -1.6804
11499TIP3   OH255987   0.247   0.270  13.130  0.3454 -0.0362 -0.3813
11499TIP3    H155988   0.207   0.324  13.198  1.9051  1.3609 -0.4968
11499TIP3    H255989   0.298   0.205  13.177 -0.8987 -0.9443 -0.2424
11500TIP3   OH255990   5.616   0.565  11.532  0.2567  0.5271 -0.1265
11500TIP3    H155991   5.642   0.623  11.461  1.4572 -0.0947 -0.2191
11500TIP3    H255992   5.530   0.597  11.559  1.0869  2.6170  0.1591
11501TIP3   OH255993   6.582   4.318   4.282 -0.5538  0.0159 -0.1058
11501TIP3    H155994   6.583   4.238   4.334  0.4876  0.0664 -0.0419
11501TIP3    H255995   6.493   4.352   4.292 -0.8467 -0.8527  0.2879
11502TIP3   OH255996   6.310   0.010  14.241 -0.3767  0.1321 -0.0609
11502TIP3    H155997   6.308  -0.057  14.173 -0.1275  0.7073 -0.6407
11502TIP3    H255998   6.238   0.069  14.219  0.5439  1.0726 -0.6071
11503TIP3   OH255999   2.493   1.778  16.625  0.0370 -0.2821 -0.2599
11503TIP3    H156000   2.526   1.778  16.715  1.2850 -0.2925 -0.6886
11503TIP3    H256001   2.567   1.810  16.573 -1.4978  2.4466 -0.9925
11504TIP3   OH256002   3.182   1.033   3.396  0.5448  0.0174  0.1943
11504TIP3    H156003   3.211   0.953   3.439 -1.3638 -1.3140 -0.8233
11504TIP3    H256004   3.227   1.032   3.311  1.8974  1.0160  0.8560
11505TIP3   OH256005   4.847   3.308  16.667  0.1747 -0.3196 -0.1511
11505TIP3    H156006   4.825   3.249  16.595 -1.7457  1.1178 -0.8465
11505TIP3    H256007   4.801   3.272  16.743 -0.8501  0.1524 -0.5330
11506TIP3   OH256008   0.953   6.581  14.113  0.4752 -0.5765 -0.3412
11506TIP3    H156009   0.875   6.546  14.070 -0.2531 -0.6750  1.0328
11506TIP3    H256010   0.930   6.670  14.139  1.3078 -0.1047 -1.1357
11507TIP3   OH256011   5.190   0.049   5.879 -0.1641 -0.1917  1.0447
11507TIP3    H156012   5.221   0.086   5.796 -0.6957 -2.1420 -0.0732
11507TIP3    H256013   5.270   0.042   5.932  0.1835  1.0700  0.7443
11508TIP3   OH256014   1.534   3.523   5.386 -0.3139  0.4488  0.1239
11508TIP3    H156015   1.626   3.550   5.392 -0.0197 -0.5718  0.4436
11508TIP3    H256016   1.485   3.605   5.377  0.3289  1.3178  3.2781
11509TIP3   OH256017   3.558   5.287  15.254  0.0542 -1.0428 -0.1149
11509TIP3    H156018   3.526   5.216  15.198 -0.9452 -0.7034  0.0012
11509TIP3    H256019   3.478   5.327  15.290  0.6442 -0.5745  0.7064
11510TIP3   OH256020   5.908   3.614   0.444 -0.7261 -0.8207 -0.0529
11510TIP3    H156021   5.830   3.564   0.469 -2.3101  0.8364 -1.4613
11510TIP3    H256022   5.969   3.600   0.517 -3.0433 -0.6352  2.0403
11511TIP3   OH256023   5.743   3.970  16.718  0.0084 -0.1109 -0.2224
11511TIP3    H156024   5.789   4.001  16.640  0.5166 -0.1943  0.0395
11511TIP3    H256025   5.652   3.997  16.704 -0.1391 -1.0896 -1.3633
11512TIP3   OH256026   5.093   0.152  12.186  0.5684 -0.1775 -0.0033
11512TIP3    H156027   5.066   0.213  12.255 -0.1550 -1.9463  1.3427
11512TIP3    H256028   5.037   0.174  12.112 -0.1791  0.3317  0.6903
11513TIP3   OH256029   1.980   1.019  13.117  0.2332 -0.2401  0.1356
11513TIP3    H156030   2.042   1.007  13.189 -0.2170 -0.0186  0.5579
11513TIP3    H256031   1.974   0.932  13.077 -0.1744 -0.5740  0.9009
11514TIP3   OH256032   1.026   4.902  11.109 -0.6414  0.7717  0.0723
11514TIP3    H156033   1.109   4.916  11.154 -0.4374 -0.6336  0.1897
11514TIP3    H256034   1.048   4.907  11.016 -0.4244  0.4670  0.1043
11515TIP3   OH256035   0.974   4.029   0.142  0.5775 -0.1652  0.6433
11515TIP3    H156036   0.951   4.002   0.053  0.3546 -0.2232  0.7184
11515TIP3    H256037   0.924   4.109   0.157 -0.9310 -1.1970  1.4250
11516TIP3   OH256038   5.877   1.374  14.702  0.9845  0.5119 -0.2953
11516TIP3    H156039   5.861   1.358  14.609  0.4133  1.8203 -0.4465
11516TIP3    H256040   5.917   1.293  14.734  0.8656 -0.0846 -1.5960
11517TIP3   OH256041   3.296   1.659  10.754 -0.0407 -0.3187 -0.0674
11517TIP3    H156042   3.217   1.606  10.769  0.4898 -0.9317  0.6386
11517TIP3    H256043   3.263   1.745  10.728 -0.9322 -0.7145 -0.2704
11518TIP3   OH256044   5.340   2.693   2.681 -0.7352  0.5511 -0.4450
11518TIP3    H156045   5.357   2.626   2.747  0.5988  0.2196 -1.0668
11518TIP3    H256046   5.291   2.647   2.613 -0.5208  0.4120 -0.5068
11519TIP3   OH256047   5.823   0.804  11.108 -0.0055  0.7012  0.1204
11519TIP3    H156048   5.912   0.769  11.104 -0.0933  0.5055 -0.2200
11519TIP3    H256049   5.787   0.786  11.021 -0.3684  0.8036  0.2481
11520TIP3   OH256050   3.708   5.563   5.931 -0.3126  0.0439 -0.5460
11520TIP3    H156051   3.796   5.583   5.900 -0.7910  0.2841 -1.8343
11520TIP3    H256052   3.675   5.498   5.869 -1.8787  1.7146 -1.5847
11521TIP3   OH256053   2.556   2.492  13.119  0.3567 -0.2284 -0.1292
11521TIP3    H156054   2.464   2.475  13.140  1.1535 -1.4680  2.8907
11521TIP3    H256055   2.569   2.585  13.139 -0.3160  0.0741 -1.0402
11522TIP3   OH256056   2.471   4.931   3.988 -0.0850  0.4874  0.4044
11522TIP3    H156057   2.454   4.858   4.047  1.7172  0.6485  1.1763
11522TIP3    H256058   2.481   5.006   4.046  1.7242  0.6462 -0.0742
11523TIP3   OH256059   0.395   5.948   6.125 -0.4226  0.0750  0.5094
11523TIP3    H156060   0.374   6.037   6.155 -1.9989 -0.4074  0.9360
11523TIP3    H256061   0.317   5.921   6.077 -0.1079 -1.2283  0.7067
11524TIP3   OH256062   2.713   0.279  11.990  0.1875  0.0652  0.3127
11524TIP3    H156063   2.729   0.219  11.917  0.0289  0.0166  0.3180
11524TIP3    H256064   2.627   0.255  12.022  0.1787  0.2102  0.3981
11525TIP3   OH256065   3.824   6.039  14.698  0.0619  0.0870 -0.7863
11525TIP3    H156066   3.799   6.124  14.661 -1.3031  0.1642  0.2261
11525TIP3    H256067   3.759   6.023  14.766  1.4193 -0.9020  0.3313
11526TIP3   OH256068   5.812   2.694  11.969 -0.0936 -0.4368 -0.5013
11526TIP3    H156069   5.878   2.718  11.905 -0.2473 -0.8734 -0.8324
11526TIP3    H256070   5.857   2.697  12.053  0.7871 -2.2248 -0.8537
11527TIP3   OH256071   3.615   2.770  11.865  0.1138 -0.1517 -0.0379
11527TIP3    H156072   3.585   2.684  11.836  1.6881 -0.4631 -0.8712
11527TIP3    H256073   3.702   2.754  11.900  0.3308  1.0700  0.0179
11528TIP3   OH256074   1.759   1.484   1.911 -0.0577  0.1623 -0.0571
11528TIP3    H156075   1.851   1.480   1.938  0.3480  2.4643 -0.8892
11528TIP3    H256076   1.718   1.411   1.956  2.1684 -0.9332  0.3610
11529TIP3   OH256077   4.788   0.873   5.005 -0.0553 -0.1934 -0.0516
11529TIP3    H156078   4.816   0.916   4.925  0.1284 -0.1555  0.0319
11529TIP3    H256079   4.749   0.791   4.976 -2.3248  0.9282 -0.3795
11530TIP3   OH256080   5.047   4.689  13.222  0.0287 -0.4721 -0.1382
11530TIP3    H156081   5.027   4.643  13.304  1.4196 -1.2600 -0.2063
11530TIP3    H256082   5.071   4.777  13.250 -0.8794 -0.3021  0.1585
11531TIP3   OH256083   4.857   6.773  11.560 -0.1559 -0.8867  0.1718
11531TIP3    H156084   4.770   6.807  11.536 -0.0071 -0.0708  0.7548
11531TIP3    H256085   4.910   6.851  11.577 -0.0541 -1.3646  2.4451
11532TIP3   OH256086   5.987   4.738   0.421 -0.9855 -0.4415  0.6466
11532TIP3    H156087   5.909   4.684   0.433 -1.5768 -0.7033 -3.0318
11532TIP3    H256088   5.973   4.814   0.477 -4.3793 -0.0632 -0.5093
11533TIP3   OH256089   4.709   0.748  12.442  0.3942  0.2119 -0.2567
11533TIP3    H156090   4.639   0.813  12.452 -1.2461 -1.6227  1.0904
11533TIP3    H256091   4.749   0.743  12.528 -0.4565 -1.5200  0.0783
11534TIP3   OH256092   3.408   1.421  13.090  0.2060  0.4132  0.2175
11534TIP3    H156093   3.353   1.343  13.093  0.4425  0.2007 -0.8873
11534TIP3    H256094   3.378   1.474  13.164  0.9922 -1.3402  1.8929
11535TIP3   OH256095   0.373   4.304   4.035 -0.2123 -0.4643  0.0516
11535TIP3    H156096   0.340   4.226   4.079  0.3134  0.3831  2.0616
11535TIP3    H256097   0.467   4.286   4.023 -0.5016 -1.0364 -1.5661
11536TIP3   OH256098   6.205   5.292   6.608 -0.1306  1.0602 -0.2804
11536TIP3    H156099   6.233   5.347   6.534  0.9651 -0.1849 -0.8175
11536TIP3    H256100   6.138   5.345   6.652 -1.6600  1.4066 -2.7794
11537TIP3   OH256101   2.253   3.156   4.082  0.1014  0.0816 -0.1570
11537TIP3    H156102   2.301   3.084   4.039  0.3417  0.0462  0.1633
11537TIP3    H256103   2.320   3.200   4.135 -0.3103 -0.2251  0.6256
11538TIP3   OH256104   1.751   2.088   4.633  0.5187  0.9295  0.3108
11538TIP3    H156105   1.786   2.033   4.703 -0.7073  0.6086  0.6815
11538TIP3    H256106   1.829   2.131   4.596  1.2028  1.0500  1.8006
11539TIP3   OH256107   4.080   3.454  15.101 -0.9507  0.5617  0.3374
11539TIP3    H156108   4.112   3.540  15.073 -2.8535  1.3548  0.4090
11539TIP3    H256109   3.998   3.473  15.147 -0.1414 -1.1000  2.6408
11540TIP3   OH256110   6.561   0.457   0.190 -0.1247  0.3293  0.1139
11540TIP3    H156111   6.525   0.450   0.278  1.0085 -0.3989  0.5415
11540TIP3    H256112   6.623   0.530   0.195  0.6484 -0.3157  0.1928
11541TIP3   OH256113   6.551   4.713   5.719 -0.2412  0.6527 -0.1537
11541TIP3    H156114   6.494   4.667   5.658 -0.5913  0.1980  0.4938
11541TIP3    H256115   6.499   4.788   5.749 -0.1529  0.7544 -0.2554
11542TIP3   OH256116   4.626   2.280  13.046 -0.1575  0.0719 -0.0868
11542TIP3    H156117   4.617   2.278  13.142  0.8481 -0.6326  0.0037
11542TIP3    H256118   4.701   2.337  13.030 -1.2522  1.4547 -0.5589
11543TIP3   OH256119   0.302   0.160   3.120 -0.6904 -0.3216  0.0997
11543TIP3    H156120   0.229   0.204   3.163 -0.0167  0.6765  0.2607
11543TIP3    H256121   0.265   0.123   3.040 -1.2614  0.6521 -0.1033
11544TIP3   OH256122   2.205   6.420  13.955  0.5402  0.6728  0.0532
11544TIP3    H156123   2.200   6.505  13.997 -0.5926  0.7054 -0.1316
11544TIP3    H256124   2.191   6.438  13.862  0.2377  0.2815  0.0199
11545TIP3   OH256125   5.333   1.231   0.143 -0.3637 -0.0464  0.0423
11545TIP3    H156126   5.406   1.238   0.205 -0.2823 -0.8301  0.0532
11545TIP3    H256127   5.256   1.218   0.198 -0.7426  2.0962  0.0966
11546TIP3   OH256128   3.567   2.836   3.989 -0.5050 -0.1935 -0.1256
11546TIP3    H156129   3.580   2.916   4.041  1.6221 -0.8921  0.5146
11546TIP3    H256130   3.512   2.781   4.044 -0.5425  0.1531  0.1938
11547TIP3   OH256131   6.595   3.645   1.112 -0.5250 -0.5546 -0.1908
11547TIP3    H156132   6.688   3.626   1.097  0.2036  1.6251  1.1030
11547TIP3    H256133   6.593   3.739   1.128 -2.9231 -0.6474  0.2762
11548TIP3   OH256134   6.722   1.115   5.976  0.0280 -0.2089  0.7844
11548TIP3    H156135   6.703   1.207   5.958  2.4200  0.6966  2.5192
11548TIP3    H256136   6.684   1.098   6.062 -0.5649 -0.9490  0.4001
11549TIP3   OH256137   1.921   2.244  12.533 -0.1537 -0.2905  0.0291
11549TIP3    H156138   1.879   2.303  12.595 -0.4438  0.8759 -1.2541
11549TIP3    H256139   1.993   2.295  12.496  0.0909 -1.0110 -0.5136
11550TIP3   OH256140   4.270   2.720  12.946  0.1608 -0.2565 -0.0476
11550TIP3    H156141   4.294   2.630  12.969 -0.8102 -0.7989 -1.0336
11550TIP3    H256142   4.352   2.769  12.950  0.7610 -1.2537  0.1853
11551TIP3   OH256143   4.560   3.896  16.846  0.3161 -0.1146  0.1883
11551TIP3    H156144   4.566   3.849  16.762 -0.0716 -0.8149  0.5467
11551TIP3    H256145   4.614   3.844  16.906  1.4510  0.9651  0.1186
11552TIP3   OH256146   2.527   3.950  11.598 -0.4186  0.6347  0.0181
11552TIP3    H156147   2.459   3.973  11.661  0.7178 -0.1056  1.5696
11552TIP3    H256148   2.600   4.009  11.619 -0.0154  0.3659 -0.6033
11553TIP3   OH256149   3.424   6.765   1.641  0.3040 -0.0631  0.2087
11553TIP3    H156150   3.460   6.799   1.559  1.8643 -1.5698  0.2250
11553TIP3    H256151   3.407   6.673   1.624 -0.0550 -0.2282  1.3612
11554TIP3   OH256152   2.393   5.004  14.172 -0.1550 -0.3209  0.2789
11554TIP3    H156153   2.392   5.092  14.209 -0.1999 -1.0680  2.1511
11554TIP3    H256154   2.301   4.979  14.166 -0.1042 -0.8203  1.2924
11555TIP3   OH256155   0.151   3.904  13.084 -0.2827  0.0583 -1.0115
11555TIP3    H156156   0.211   3.830  13.090 -1.3727 -0.8874 -1.4004
11555TIP3    H256157   0.082   3.884  13.148 -0.7024  0.6306 -1.2779
11556TIP3   OH256158   3.579   6.792   5.619 -0.1392  0.6151 -0.2653
11556TIP3    H156159   3.562   6.840   5.700  0.7512 -0.8502  0.8398
11556TIP3    H256160   3.627   6.854   5.564  2.2274  0.6482  1.6578
11557TIP3   OH256161   5.731   0.734  13.935  0.2544  0.1869 -0.1056
11557TIP3    H156162   5.726   0.716  14.029  0.3340  2.2273  0.3403
11557TIP3    H256163   5.824   0.747  13.918  0.4158 -1.5739 -0.8109
11558TIP3   OH256164   5.937   1.783  13.690 -0.4078 -0.1265  0.2730
11558TIP3    H156165   5.928   1.700  13.643  0.2242 -0.3879  0.5860
11558TIP3    H256166   6.031   1.801  13.688 -0.5743  0.7454 -0.0546
11559TIP3   OH256167   5.990   5.780  14.260  0.3591  0.5547 -0.1684
11559TIP3    H156168   5.941   5.727  14.322 -0.4209  1.1466 -0.2764
11559TIP3    H256169   5.980   5.733  14.176 -0.2233  0.8008 -0.2387
11560TIP3   OH256170   1.256   3.988  14.306  0.3433 -0.0945 -0.3801
11560TIP3    H156171   1.295   3.926  14.245 -1.3093  0.5517 -2.2256
11560TIP3    H256172   1.287   3.961  14.392  1.8865 -1.7359 -1.3943
11561TIP3   OH256173   1.961   3.497  11.047 -0.2157 -0.1317 -0.0314
11561TIP3    H156174   1.949   3.576  10.994 -0.9355 -0.4409 -0.3429
11561TIP3    H256175   1.990   3.430  10.986  3.3171  0.5723  0.6989
11562TIP3   OH256176   1.065   2.891   1.224  0.5031 -0.8106 -0.2446
11562TIP3    H156177   0.982   2.870   1.267  0.0762 -0.0832 -0.6909
11562TIP3    H256178   1.113   2.943   1.289 -0.6461  1.3455 -1.0320
11563TIP3   OH256179   6.183   0.190  13.947 -0.0567 -0.2666 -0.4467
11563TIP3    H156180   6.126   0.262  13.973  0.6490  0.5120 -0.9922
11563TIP3    H256181   6.157   0.171  13.856 -2.1181 -2.5783  0.5095
11564TIP3   OH256182   3.932   5.896  16.480 -0.1836 -0.8319 -0.0508
11564TIP3    H156183   3.899   5.809  16.503 -0.0237 -1.0310 -0.5613
11564TIP3    H256184   3.909   5.951  16.555 -0.2662 -1.3177  0.2838
11565TIP3   OH256185   4.580   5.593   0.355  0.2399  0.1213  0.3662
11565TIP3    H156186   4.545   5.514   0.315  0.8545 -0.4710  0.9535
11565TIP3    H256187   4.527   5.606   0.434  0.3649  0.0858  0.4577
11566TIP3   OH256188   4.136   5.516  16.994 -0.2415 -0.1003 -0.3404
11566TIP3    H156189   4.112   5.601  16.958  0.7997 -0.6397 -2.4902
11566TIP3    H256190   4.054   5.480  17.027 -0.6712  1.7598  0.7482
11567TIP3   OH256191   1.972   6.331   1.475  0.4668 -0.3820  0.2403
11567TIP3    H156192   1.970   6.299   1.384 -3.0021 -0.1099  0.0982
11567TIP3    H256193   1.999   6.255   1.526  0.9569 -0.9812 -0.8707
11568TIP3   OH256194   0.148   4.591  12.644 -0.0515  0.0491  0.0090
11568TIP3    H156195   0.070   4.558  12.689  1.1112 -1.6147  0.8641
11568TIP3    H256196   0.153   4.539  12.564 -0.1426  0.5856 -0.3511
11569TIP3   OH256197   1.223   2.082  14.211 -0.3149  0.0966  0.2369
11569TIP3    H156198   1.174   2.028  14.273 -0.4636 -1.0056 -0.8049
11569TIP3    H256199   1.157   2.136  14.168 -0.0536  2.0225  2.0609
11570TIP3   OH256200   4.390   2.805   0.209 -0.3764  0.1442 -0.0835
11570TIP3    H156201   4.472   2.847   0.183 -0.3681 -0.2957 -0.8166
11570TIP3    H256202   4.416   2.737   0.270  0.0357 -1.1209 -1.5850
11571TIP3   OH256203   5.540   5.610  16.342  0.3090 -0.2350  0.0094
11571TIP3    H156204   5.479   5.607  16.268  1.7254  2.0187 -1.3724
11571TIP3    H256205   5.498   5.557  16.410 -2.7453  0.4365 -1.1780
11572TIP3   OH256206   3.213   0.833   0.963  0.5731  0.3028  0.0202
11572TIP3    H156207   3.246   0.914   1.002 -1.1049  0.8728  0.3373
11572TIP3    H256208   3.165   0.861   0.886  1.3717 -0.5674 -0.8211
11573TIP3   OH256209   4.401   6.358   0.689  0.1508 -0.3406 -0.2509
11573TIP3    H156210   4.394   6.415   0.612 -1.7985  0.3571  0.3919
11573TIP3    H256211   4.378   6.271   0.657 -0.3207 -0.1139 -0.5348
11574TIP3   OH256212   3.682   0.819   0.915  0.2457  0.1632 -0.0862
11574TIP3    H156213   3.605   0.825   0.858 -0.2428 -0.8076  0.4435
11574TIP3    H256214   3.646   0.806   1.003  1.0211 -0.5333  0.1375
11575TIP3   OH256215   4.990   5.648   4.273  0.0929  0.4196  0.3095
11575TIP3    H156216   4.960   5.610   4.356 -1.4584 -0.7401 -0.7319
11575TIP3    H256217   5.071   5.601   4.254 -0.2100 -0.2191  0.5550
11576TIP3   OH256218   6.612   2.613   3.573 -0.5918  0.1448  0.1750
11576TIP3    H156219   6.667   2.686   3.603  0.1983 -0.3392 -0.0482
11576TIP3    H256220   6.559   2.591   3.650 -1.1749  1.2392  0.1077
11577TIP3   OH256221   1.034   5.211  11.160 -0.1141 -0.1567 -0.0065
11577TIP3    H156222   1.023   5.143  11.227 -0.8140  1.3234  1.4524
11577TIP3    H256223   1.094   5.172  11.096 -0.3992 -2.0853  0.8327
11578TIP3   OH256224   5.147   4.475  14.149  0.4585 -0.5304 -0.3215
11578TIP3    H156225   5.225   4.529  14.140 -0.0917  0.2817 -0.2466
11578TIP3    H256226   5.175   4.402  14.204  1.0458 -0.0000  0.0959
11579TIP3   OH256227   5.816   1.681  15.838  0.0223  0.4756 -0.3325
11579TIP3    H156228   5.836   1.722  15.922 -0.8073  0.9698 -0.3646
11579TIP3    H256229   5.895   1.631  15.816  0.3226  0.5075  0.6359
11580TIP3   OH256230   3.143   4.662  13.754  0.0112 -0.1930 -0.0754
11580TIP3    H156231   3.218   4.619  13.794 -0.4640 -0.5405  0.4521
11580TIP3    H256232   3.075   4.595  13.752 -1.0099  0.7315  1.5041
11581TIP3   OH256233   1.557   3.791   3.605  0.8724 -0.5321  0.0795
11581TIP3    H156234   1.565   3.729   3.678 -4.2164  0.3124  1.7338
11581TIP3    H256235   1.602   3.870   3.635 -1.5996  0.0122  2.8181
11582TIP3   OH256236   6.031   2.741   1.609 -0.0904  0.0344  0.4739
11582TIP3    H156237   6.102   2.712   1.550 -1.4761 -1.0205 -0.7514
11582TIP3    H256238   5.981   2.803   1.556 -1.1385 -0.6401  0.6576
11583TIP3   OH256239   4.677   5.243   5.639 -0.3296  0.7391 -0.0838
11583TIP3    H156240   4.757   5.295   5.645 -0.3910  0.7611  0.7196
11583TIP3    H256241   4.662   5.231   5.545  1.0381  0.0574 -0.2354
11584TIP3   OH256242   0.829   0.436   1.887 -0.3567  0.9402 -0.0263
11584TIP3    H156243   0.850   0.347   1.856 -0.8185  0.6893  0.3709
11584TIP3    H256244   0.810   0.425   1.980  0.8159  1.6575  0.3171
11585TIP3   OH256245   6.130   2.667  17.070 -0.3677 -0.2128  0.6159
11585TIP3    H156246   6.130   2.581  17.112  0.3424 -1.0349 -0.9981
11585TIP3    H256247   6.192   2.659  16.998 -0.7592  1.4707  0.0415
11586TIP3   OH256248   2.492   5.259   1.065  0.1438  0.6169 -0.2614
11586TIP3    H156249   2.581   5.250   1.031  0.0156 -1.4220 -0.1923
11586TIP3    H256250   2.440   5.289   0.991  0.3600 -1.1566 -1.1802
11587TIP3   OH256251   2.296   6.106  12.344  0.3628  0.3251  0.1761
11587TIP3    H156252   2.253   6.020  12.345  0.4777  0.2571  1.9008
11587TIP3    H256253   2.276   6.141  12.257 -0.1199 -1.2201 -0.3810
11588TIP3   OH256254   3.390   1.620   1.044  0.1141 -0.2041  0.0138
11588TIP3    H156255   3.358   1.687   1.105 -0.3935 -0.3692 -0.0637
11588TIP3    H256256   3.451   1.568   1.096  0.7742  0.5218 -0.0215
11589TIP3   OH256257   0.508   3.616  13.895 -0.3923  0.1021 -0.4657
11589TIP3    H156258   0.491   3.692  13.840 -1.0647  0.6792  0.5140
11589TIP3    H256259   0.590   3.638  13.941  0.5702 -0.6899 -1.7379
11590TIP3   OH256260   4.623   5.379  13.735 -0.2834 -0.4203 -0.5052
11590TIP3    H156261   4.568   5.302  13.722 -0.8538 -0.5136  1.9006
11590TIP3    H256262   4.686   5.352  13.802  1.2379  0.4145 -1.5527
11591TIP3   OH256263   5.127   5.817   2.841 -0.7769  0.0099 -0.1578
11591TIP3    H156264   5.050   5.871   2.822 -0.7369  0.0482 -0.2138
11591TIP3    H256265   5.152   5.841   2.930 -0.0228  1.0018 -0.6113
11592TIP3   OH256266   0.970   2.499  14.040 -0.2926  0.5507 -0.1616
11592TIP3    H156267   0.899   2.497  14.103 -0.7388 -1.9701 -0.6363
11592TIP3    H256268   0.928   2.482  13.955  0.6375  1.0929 -0.7603
11593TIP3   OH256269   3.806   2.219  12.929  0.6256  0.2461 -0.5062
11593TIP3    H156270   3.835   2.139  12.885 -1.7071 -0.1842 -1.4344
11593TIP3    H256271   3.848   2.290  12.881  1.5372 -0.3697 -0.6368
11594TIP3   OH256272   6.020   4.177   1.518 -0.7625 -0.5845  0.5422
11594TIP3    H156273   6.096   4.233   1.500 -0.7178 -0.8924 -0.2730
11594TIP3    H256274   5.968   4.226   1.582 -0.2418 -0.0498  0.5610
11595TIP3   OH256275   1.459   2.414  10.640 -0.0107 -0.3096  0.7547
11595TIP3    H156276   1.512   2.425  10.561  1.2041  1.1746  1.7294
11595TIP3    H256277   1.428   2.323  10.635  0.6100 -0.4605 -1.0624
11596TIP3   OH256278   4.238   1.822  14.875 -0.5754  0.0779 -0.1494
11596TIP3    H156279   4.298   1.840  14.802  0.6259  0.4825  0.9173
11596TIP3    H256280   4.152   1.819  14.833  0.0964  0.1106 -1.6239
11597TIP3   OH256281   0.530   1.126  13.645  0.5474 -0.0113 -0.1529
11597TIP3    H156282   0.587   1.157  13.574 -0.5730 -0.7937 -1.4516
11597TIP3    H256283   0.532   1.030  13.637 -0.4716 -0.0692  0.1446
11598TIP3   OH256284   1.187   1.858   1.155  0.6004  0.4100  0.0506
11598TIP3    H156285   1.108   1.826   1.199  0.7929 -0.3309 -0.1319
11598TIP3    H256286   1.237   1.901   1.224 -0.2545  1.4557  0.0390
11599TIP3   OH256287   5.252   3.114  16.229 -0.1253  0.5293 -0.1864
11599TIP3    H156288   5.335   3.139  16.269 -0.5210 -0.7810  1.5562
11599TIP3    H256289   5.193   3.187  16.249  0.1802  0.7381 -0.0373
11600TIP3   OH256290   5.497   0.477   1.951  0.4162 -0.3983 -0.1516
11600TIP3    H156291   5.453   0.518   2.026  3.3333 -0.3129  1.6466
11600TIP3    H256292   5.470   0.530   1.876 -0.0685  1.5358  1.3044
11601TIP3   OH256293   6.365   2.193   3.512 -0.2440 -0.3274  0.2138
11601TIP3    H156294   6.375   2.166   3.603  0.6658  0.3501  0.3331
11601TIP3    H256295   6.333   2.116   3.467  1.4245 -1.3540  0.6967
11602TIP3   OH256296   0.563   1.409  13.709  1.0722  0.1457  0.3709
11602TIP3    H156297   0.594   1.397  13.619  2.7809 -1.1210  1.0679
11602TIP3    H256298   0.616   1.348  13.760  0.2582  0.9755  2.2693
11603TIP3   OH256299   6.645   6.243   2.634  0.6906 -0.1598 -0.4503
11603TIP3    H156300   6.660   6.320   2.579 -0.2854  1.1693  1.0499
11603TIP3    H256301   6.705   6.254   2.708  1.7859 -1.7742 -1.0374
11604TIP3   OH256302   4.112   0.316  11.166 -0.3319 -0.6243  0.1456
11604TIP3    H156303   4.167   0.239  11.157  0.7039 -0.0881  1.6052
11604TIP3    H256304   4.170   0.384  11.200 -1.1902  0.8474 -1.1796
11605TIP3   OH256305   2.961   2.339   5.211  0.1101 -0.3358 -0.4534
11605TIP3    H156306   2.870   2.326   5.238 -0.2095  0.5383 -1.0542
11605TIP3    H256307   2.973   2.434   5.215  1.6858 -0.5708  1.7703
11606TIP3   OH256308   0.657   2.812  12.362  0.1967 -0.1476 -0.4100
11606TIP3    H156309   0.626   2.779  12.447  0.8159  0.6813  0.1605
11606TIP3    H256310   0.731   2.868  12.385  0.6466 -0.2561 -1.5475
11607TIP3   OH256311   1.098   0.159   5.056 -0.2863 -0.4964 -0.0245
11607TIP3    H156312   1.168   0.199   5.004  1.7493  0.7574  3.3802
11607TIP3    H256313   1.025   0.221   5.049 -0.3822 -0.7423 -1.8757
11608TIP3   OH256314   1.830   2.166   6.379  0.1547 -0.2521 -0.6050
11608TIP3    H156315   1.920   2.196   6.367  1.0681 -1.5479  2.0990
11608TIP3    H256316   1.836   2.070   6.373 -0.7862 -0.4309  0.8809
11609TIP3   OH256317   4.562   0.929   3.926  0.6441 -0.4466 -0.2039
11609TIP3    H156318   4.640   0.876   3.944  0.6772  0.1756  1.6297
11609TIP3    H256319   4.518   0.936   4.010 -0.7429  0.2809 -0.9608
11610TIP3   OH256320   1.690   6.572  12.607 -0.1145  0.0996 -0.0188
11610TIP3    H156321   1.742   6.647  12.577 -0.2681  0.0735 -0.3548
11610TIP3    H256322   1.753   6.516  12.653 -0.3656  1.3878  2.0373
11611TIP3   OH256323   1.012   3.729   5.362  0.3410 -0.2203 -0.4509
11611TIP3    H156324   1.089   3.753   5.413  0.5249 -0.9486 -0.3845
11611TIP3    H256325   1.043   3.666   5.298 -0.6008 -2.5129  1.1913
11612TIP3   OH256326   3.884   1.538   5.968  0.2532  0.3305 -0.3232
11612TIP3    H156327   3.797   1.530   5.928  0.7016 -0.7149 -1.1241
11612TIP3    H256328   3.944   1.545   5.893  1.3389 -3.7102 -0.0468
11613TIP3   OH256329   5.345   6.527  12.663 -0.4057 -0.5495 -0.1766
11613TIP3    H156330   5.406   6.591  12.627  0.5836 -1.1638  0.3727
11613TIP3    H256331   5.273   6.580  12.698 -0.0897  0.1917 -0.6198
11614TIP3   OH256332   0.479   1.646   5.602  0.4386 -0.0615  0.2882
11614TIP3    H156333   0.409   1.711   5.613 -0.9220 -1.2493 -0.9951
11614TIP3    H256334   0.474   1.592   5.680 -0.4154 -0.4322 -0.0139
11615TIP3   OH256335   4.347   0.226  12.566 -0.0056  0.8806 -0.1268
11615TIP3    H156336   4.368   0.300  12.509 -0.2500 -0.3522 -1.8782
11615TIP3    H256337   4.269   0.187  12.527 -0.2878  0.0732  1.1640
11616TIP3   OH256338   6.028   6.151  14.024  0.2055  0.8161 -0.0973
11616TIP3    H156339   6.078   6.231  14.041  0.3883  0.7937 -0.5261
11616TIP3    H256340   6.020   6.109  14.110  1.1508  0.6906 -0.0610
11617TIP3   OH256341   6.550   3.658   2.998  0.6910 -0.2312  0.6241
11617TIP3    H156342   6.633   3.636   3.040  0.3165 -2.6511  0.2244
11617TIP3    H256343   6.483   3.627   3.058  0.0417  1.2123  0.6916
11618TIP3   OH256344   5.442   5.101   3.924 -0.6150 -0.4768  0.2233
11618TIP3    H156345   5.484   5.133   4.004  0.9151 -1.8017  0.0130
11618TIP3    H256346   5.485   5.151   3.854 -2.2160  0.9529  0.1930
11619TIP3   OH256347   4.925   5.788   1.821 -0.3597  0.0879 -0.1707
11619TIP3    H156348   4.992   5.782   1.753 -0.4937 -0.2078 -0.2789
11619TIP3    H256349   4.874   5.865   1.796  1.0751  1.4747  0.9617
11620TIP3   OH256350   4.083   4.570   1.792 -0.5889 -0.1267  0.3110
11620TIP3    H156351   4.127   4.652   1.772 -2.5049  1.3021  1.6375
11620TIP3    H256352   4.076   4.526   1.707  0.9882  0.7830 -0.3331
11621TIP3   OH256353   2.403   5.560  13.198  0.3409  0.3152 -0.2556
11621TIP3    H156354   2.490   5.592  13.223  0.4107 -0.3303  0.3559
11621TIP3    H256355   2.374   5.509  13.273 -0.4406  0.2721 -0.5853
11622TIP3   OH256356   4.274   6.297   3.531 -0.3613  0.6871  0.1296
11622TIP3    H156357   4.297   6.213   3.490  1.3856  0.7151  0.9538
11622TIP3    H256358   4.327   6.362   3.484  1.3079  0.7795  2.0164
11623TIP3   OH256359   3.935   0.729   5.438 -0.2278 -0.3852  0.1127
11623TIP3    H156360   3.849   0.690   5.425 -1.5494  2.0033  1.0760
11623TIP3    H256361   3.920   0.800   5.500  2.4627  0.0837  0.3463
11624TIP3   OH256362   6.007   3.336  17.111  0.1227  0.6593 -0.1149
11624TIP3    H156363   6.067   3.392  17.062 -1.7551  1.5083 -1.6163
11624TIP3    H256364   6.003   3.374  17.198  2.3655  0.0571  0.2977
11625TIP3   OH256365   4.230   6.613  11.401  0.2166 -0.0083  0.2107
11625TIP3    H156366   4.282   6.556  11.345  0.3928 -0.3523  0.7234
11625TIP3    H256367   4.247   6.701  11.368  1.0213 -0.1262  0.2909
11626TIP3   OH256368   0.461   3.960  16.427 -0.6246 -0.4324 -0.0674
11626TIP3    H156369   0.435   4.044  16.464 -0.1202 -0.3624  0.1337
11626TIP3    H256370   0.424   3.961  16.338  0.3861  0.5191 -0.5113
11627TIP3   OH256371   3.097   3.618  16.538  0.1522  0.5345  0.6396
11627TIP3    H156372   3.019   3.671  16.553  0.7423  1.3566  0.8618
11627TIP3    H256373   3.138   3.656  16.459  0.5960  0.4375  0.8178
11628TIP3   OH256374   5.420   4.716  13.425 -0.2367  0.2682 -0.0584
11628TIP3    H156375   5.427   4.754  13.337 -1.4792 -0.2366 -0.4043
11628TIP3    H256376   5.478   4.769  13.479 -0.3968  1.3817 -0.9325
11629TIP3   OH256377   1.870   3.625  16.562 -0.0290  0.0947 -0.2258
11629TIP3    H156378   1.804   3.572  16.607 -0.2042  1.1843  0.8799
11629TIP3    H256379   1.877   3.705  16.616 -0.2857  1.5064 -2.1754
11630TIP3   OH256380   0.637   0.594  11.719 -0.2835  0.5679  0.4246
11630TIP3    H156381   0.638   0.644  11.801 -0.7319  1.3160 -0.0204
11630TIP3    H256382   0.551   0.610  11.682 -0.2796 -0.2139  0.0719
11631TIP3   OH256383   3.714   2.373  10.443 -0.1054  0.1730  0.2806
11631TIP3    H156384   3.763   2.378  10.362  1.4023 -0.9424  1.0768
11631TIP3    H256385   3.634   2.326  10.421  0.0661  0.3099 -0.6465
11632TIP3   OH256386   1.320   3.086   5.055  0.0593 -0.3476 -0.5079
11632TIP3    H156387   1.271   3.040   4.987 -0.9346 -1.0061  0.6040
11632TIP3    H256388   1.268   3.073   5.135  1.8572 -0.7716  0.6545
11633TIP3   OH256389   1.306   5.190   0.515 -0.2922 -0.0797 -0.0479
11633TIP3    H156390   1.222   5.223   0.547  0.2695  2.7614 -1.2154
11633TIP3    H256391   1.283   5.120   0.454 -1.7071 -0.2433  0.6344
11634TIP3   OH256392   4.606   6.118   0.279 -0.1739  0.5457 -0.2589
11634TIP3    H156393   4.662   6.041   0.274  0.1981  0.6242  1.9398
11634TIP3    H256394   4.517   6.084   0.276 -0.0251 -0.1016  1.6626
11635TIP3   OH256395   2.195   4.121   2.560 -0.4587  0.0851  0.1815
11635TIP3    H156396   2.282   4.149   2.587 -0.5428 -1.5064  2.4005
11635TIP3    H256397   2.196   4.026   2.571 -2.1537 -0.0934 -0.7971
11636TIP3   OH256398   4.007   6.828  16.815  0.7960  0.4315 -0.3576
11636TIP3    H156399   3.918   6.854  16.840  1.4772  0.4260  2.3692
11636TIP3    H256400   4.007   6.733  16.819  0.9828  0.4403 -0.1430
11637TIP3   OH256401   2.432   4.326   3.488  0.3317 -0.4496  0.9883
11637TIP3    H156402   2.484   4.294   3.561  0.0523 -1.3212  0.8189
11637TIP3    H256403   2.496   4.348   3.420  0.5819  0.2322  1.4300
11638TIP3   OH256404   5.365   0.727  17.047  0.5445  0.3373 -0.0913
11638TIP3    H156405   5.431   0.705  17.114 -0.0036  0.2338  0.4246
11638TIP3    H256406   5.286   0.747  17.097 -0.4606 -1.6652 -0.7435
11639TIP3   OH256407   5.578   3.087  13.551  0.1615  0.4080  0.7353
11639TIP3    H156408   5.483   3.095  13.560  0.0211 -0.2520 -0.0932
11639TIP3    H256409   5.592   2.998  13.518  0.9088  1.2414 -1.3585
11640TIP3   OH256410   0.109   1.949  15.804 -0.7219 -0.0857  0.2381
11640TIP3    H156411   0.033   1.893  15.789 -1.5315  0.5783  1.6480
11640TIP3    H256412   0.075   2.024  15.852  0.0832  2.4046 -2.7783
11641TIP3   OH256413   1.764   6.408  17.106 -0.0499 -0.7393 -0.2651
11641TIP3    H156414   1.836   6.346  17.117 -0.1828 -0.9339 -0.4819
11641TIP3    H256415   1.746   6.408  17.012  0.6724  0.4618 -0.4233
11642TIP3   OH256416   4.529   5.129   4.963 -0.0601  1.1581  0.8737
11642TIP3    H156417   4.601   5.066   4.951  0.2178  1.5046  0.7120
11642TIP3    H256418   4.516   5.132   5.058 -1.7203 -0.9797  0.7842
11643TIP3   OH256419   5.128   6.798   0.120  0.2403  0.0613 -0.1388
11643TIP3    H156420   5.034   6.818   0.114 -0.1464 -1.1527  1.2337
11643TIP3    H256421   5.131   6.702   0.128  1.4158  0.2371  2.3630
11644TIP3   OH256422   6.533   0.498  10.706 -0.5229  0.1768  0.5216
11644TIP3    H156423   6.579   0.427  10.662 -0.6169 -0.1708  0.9843
11644TIP3    H256424   6.498   0.459  10.786 -0.6111  0.7320  0.7584
11645TIP3   OH256425   4.209   6.040  11.327  0.2395 -0.5929  0.1371
11645TIP3    H156426   4.185   5.969  11.385  0.0238 -2.0969 -1.6843
11645TIP3    H256427   4.175   6.119  11.370 -0.4704 -1.6944  1.6896
11646TIP3   OH256428   2.831   3.042   4.037  0.2251 -0.4023  0.3242
11646TIP3    H156429   2.788   2.967   3.995  0.6768 -0.1543 -0.6059
11646TIP3    H256430   2.804   3.036   4.128 -1.4770 -0.4990 -0.1340
11647TIP3   OH256431   5.185   1.117   5.724 -0.1554 -0.0510 -0.5027
11647TIP3    H156432   5.194   1.042   5.783  0.1021  0.1136 -0.3327
11647TIP3    H256433   5.274   1.134   5.693 -0.2845 -0.1185 -0.9168
11648TIP3   OH256434   1.611   1.062  11.931  0.4180  0.5688 -0.1816
11648TIP3    H156435   1.568   1.107  11.858  0.2111  0.6985  0.0198
11648TIP3    H256436   1.638   1.132  11.990  0.5808  0.4637 -0.1317
11649TIP3   OH256437   5.110   2.252   1.001  0.0730 -0.2655  0.3629
11649TIP3    H156438   5.039   2.197   1.032  0.3008 -1.3486 -0.9347
11649TIP3    H256439   5.118   2.320   1.067 -1.1736 -0.9657  1.2852
11650TIP3   OH256440   5.584   2.726   1.882 -0.6348 -0.1204  0.0253
11650TIP3    H156441   5.588   2.655   1.817  0.3458 -0.4178  0.4073
11650TIP3    H256442   5.635   2.694   1.956 -2.3546 -0.0987  1.2837
11651TIP3   OH256443   1.495   3.346  14.594 -0.2571 -0.3005 -0.5971
11651TIP3    H156444   1.562   3.282  14.570  0.0579 -0.8341  1.4823
11651TIP3    H256445   1.500   3.350  14.689 -1.8386  1.1503 -0.5410
11652TIP3   OH256446   0.096   2.915   6.048  0.5704  0.3389  0.2168
11652TIP3    H156447   0.066   3.005   6.055 -1.4708 -0.3396  1.1037
11652TIP3    H256448   0.143   2.911   5.965 -1.7609  1.5832 -1.2845
11653TIP3   OH256449   1.275   2.183  14.500  0.3936 -0.0151 -0.5000
11653TIP3    H156450   1.239   2.125  14.433 -1.3273  1.7185 -1.1968
11653TIP3    H256451   1.348   2.228  14.457 -0.1688  0.4734 -0.9726
11654TIP3   OH256452   1.822   3.933   2.973 -0.5381 -0.8238  0.3416
11654TIP3    H156453   1.850   3.848   2.940  1.7483 -0.3442  0.8446
11654TIP3    H256454   1.878   3.996   2.928 -2.2958  0.4725 -0.1462
11655TIP3   OH256455   1.209   0.773   5.732  0.2048 -0.0748  0.1263
11655TIP3    H156456   1.203   0.769   5.827 -0.0854  2.8455  0.3125
11655TIP3    H256457   1.128   0.734   5.701 -0.3767  0.3040  1.1284
11656TIP3   OH256458   0.110   0.591  16.599  0.1226  0.1569 -0.6263
11656TIP3    H156459   0.068   0.675  16.583  0.2021 -0.1132 -2.3435
11656TIP3    H256460   0.122   0.552  16.513 -1.9096 -2.6159  0.1960
11657TIP3   OH256461   2.485   0.557   6.229  0.1272  0.3739  0.1441
11657TIP3    H156462   2.523   0.475   6.198 -1.1740 -0.0836 -0.2990
11657TIP3    H256463   2.435   0.591   6.155 -0.5162  0.8328  0.7670
11658TIP3   OH256464   5.392   6.061   0.871 -0.0247 -0.2337 -0.0155
11658TIP3    H156465   5.346   6.091   0.949  1.3955 -1.6520  1.4419
11658TIP3    H256466   5.338   6.092   0.798 -1.3261  1.2482  1.4994
11659TIP3   OH256467   4.108   2.603   0.289  0.0640  0.2726 -0.0541
11659TIP3    H156468   4.161   2.579   0.365 -2.2374 -0.1417  1.5450
11659TIP3    H256469   4.164   2.584   0.213  1.8588 -0.8685  1.4678
11660TIP3   OH256470   2.796   5.454   1.841 -0.3131 -0.1844 -0.5746
11660TIP3    H156471   2.867   5.517   1.851 -0.6372 -0.0408  1.0653
11660TIP3    H256472   2.839   5.370   1.828  0.1318  0.0979 -0.9460
11661TIP3   OH256473   0.535   1.037  15.917 -0.3421  0.1384 -0.5917
11661TIP3    H156474   0.507   0.959  15.869  1.6426 -0.5045 -0.8005
11661TIP3    H256475   0.628   1.022  15.935 -0.2912  1.7680  0.7453
11662TIP3   OH256476   1.331   6.411   0.974  0.8233 -0.6366 -0.3500
11662TIP3    H156477   1.333   6.433   1.067  3.3273 -1.7985 -0.0414
11662TIP3    H256478   1.279   6.480   0.934  0.2804  0.2893  1.8051
11663TIP3   OH256479   6.514   4.505  15.286 -0.4728  0.5625  0.3745
11663TIP3    H156480   6.524   4.475  15.376  1.8175  3.1072  1.0749
11663TIP3    H256481   6.421   4.530  15.280 -1.1816 -1.5994  1.2850
11664TIP3   OH256482   2.844   4.344  11.388  0.3504  0.0604  0.0742
11664TIP3    H156483   2.925   4.389  11.414  0.7912  0.3695 -1.7303
11664TIP3    H256484   2.874   4.261  11.350 -0.3594 -1.0012  1.7237
11665TIP3   OH256485   6.538   0.699   6.289  0.2036 -0.6633  0.0932
11665TIP3    H156486   6.513   0.608   6.302 -0.9325 -0.5121 -0.9000
11665TIP3    H256487   6.520   0.741   6.374 -0.4787 -1.1018  0.1764
11666TIP3   OH256488   2.559   6.642  13.607  0.1956 -0.0168  0.9319
11666TIP3    H156489   2.608   6.582  13.664 -0.9547 -0.7247  1.2045
11666TIP3    H256490   2.513   6.585  13.546  3.5050  0.7565 -2.6573
11667TIP3   OH256491   4.548   6.177  15.937  0.1651 -0.2896 -0.0217
11667TIP3    H156492   4.556   6.093  15.892  2.1033  0.0748 -0.4545
11667TIP3    H256493   4.504   6.234  15.874 -0.3992 -0.7450 -0.0472
11668TIP3   OH256494   6.038   5.696  15.501  0.1542  0.0983  0.1948
11668TIP3    H156495   6.087   5.748  15.565 -0.5266 -0.2466  1.0167
11668TIP3    H256496   5.979   5.642  15.554 -2.2019  1.5586 -0.7907
11669TIP3   OH256497   4.722   3.131  16.213  0.1632  0.3441  0.2915
11669TIP3    H156498   4.678   3.191  16.153 -0.3369  1.4792  1.7214
11669TIP3    H256499   4.652   3.098  16.269  0.1125 -3.0192 -1.5114
11670TIP3   OH256500   6.128   1.763   0.254  0.1394 -0.4149  0.0166
11670TIP3    H156501   6.039   1.738   0.276  0.5136 -1.0672  0.8427
11670TIP3    H256502   6.168   1.788   0.338  0.3946  1.0082 -0.4920
11671TIP3   OH256503   0.063   4.221  14.473 -0.4421 -0.0844 -0.7835
11671TIP3    H156504   0.014   4.140  14.488 -1.1294  0.4915  0.1917
11671TIP3    H256505   0.146   4.192  14.435 -0.4322 -1.2985  0.1038
11672TIP3   OH256506   4.204   1.938   3.664  0.0804 -0.0516 -0.2843
11672TIP3    H156507   4.254   1.856   3.666 -0.8468 -0.6446 -0.6978
11672TIP3    H256508   4.116   1.911   3.639 -0.8423  0.7769  1.8644
11673TIP3   OH256509   2.699   2.085   5.758 -0.0533 -0.2993  0.2012
11673TIP3    H156510   2.734   1.997   5.770 -0.4935 -0.8791 -2.2340
11673TIP3    H256511   2.610   2.080   5.792  0.6338 -0.1332  2.1066
11674TIP3   OH256512   0.450   6.493   3.963 -0.2121  0.7270 -0.4102
11674TIP3    H156513   0.485   6.419   3.913 -1.2816  0.4337 -0.7545
11674TIP3    H256514   0.381   6.529   3.908 -0.2742  1.4681  0.1266
11675TIP3   OH256515   5.878   4.653   3.087  0.6026  0.0083 -0.2340
11675TIP3    H156516   5.858   4.560   3.086 -0.1615  0.1726 -1.2083
11675TIP3    H256517   5.954   4.660   3.146 -0.9985 -0.8700  2.1118
11676TIP3   OH256518   4.253   3.124   2.147  0.4523 -0.4888  0.1999
11676TIP3    H156519   4.286   3.208   2.115  1.7655 -1.2594 -0.5715
11676TIP3    H256520   4.309   3.103   2.222 -1.0595  0.1571  1.5778
11677TIP3   OH256521   3.384   1.262  14.032  0.1648  0.0054  0.3598
11677TIP3    H156522   3.441   1.326  14.075  0.4477  1.3305 -1.8084
11677TIP3    H256523   3.311   1.314  13.998 -1.3454 -1.3801  1.3567
11678TIP3   OH256524   2.811   1.217   1.963  0.3385  0.4400 -0.2138
11678TIP3    H156525   2.876   1.256   2.021  1.2713 -0.5290 -0.5740
11678TIP3    H256526   2.806   1.277   1.888  0.9342  0.4619 -0.2434
11679TIP3   OH256527   0.125   4.269   4.936  0.4535 -0.4572 -0.4418
11679TIP3    H156528   0.178   4.339   4.898 -1.2056  0.3975 -1.3404
11679TIP3    H256529   0.180   4.230   5.003  1.6424  1.3675 -0.2839
11680TIP3   OH256530   5.550   5.045   4.705  0.0908 -0.0455 -0.5450
11680TIP3    H156531   5.581   4.990   4.777  0.9298  0.4676 -0.4986
11680TIP3    H256532   5.615   5.031   4.636 -1.2005 -1.2743 -1.5855
11681TIP3   OH256533   6.343   2.478   3.515  0.2720 -0.6461 -0.5926
11681TIP3    H156534   6.321   2.386   3.499  1.4166 -0.8432 -1.1773
11681TIP3    H256535   6.426   2.490   3.468 -0.4700  1.0118 -1.5521
11682TIP3   OH256536   4.551   3.486  13.278  0.1270  0.0975 -0.1510
11682TIP3    H156537   4.645   3.493  13.264  0.0598 -0.6296 -1.0742
11682TIP3    H256538   4.529   3.559  13.335  0.8146  1.9628 -2.1510
11683TIP3   OH256539   5.647   3.358  15.870 -0.3166  0.0252 -0.1148
11683TIP3    H156540   5.661   3.341  15.963  0.1753 -0.0735 -0.2019
11683TIP3    H256541   5.724   3.410  15.844  0.6104 -1.6901 -0.9361
11684TIP3   OH256542   4.211   0.209  13.431 -0.2039 -0.4477 -0.1702
11684TIP3    H156543   4.143   0.147  13.455 -0.4078 -1.0256 -2.0779
11684TIP3    H256544   4.200   0.223  13.337  2.1618 -0.4026 -0.5159
11685TIP3   OH256545   5.637   5.795   6.016  0.3049  0.0349 -0.1302
11685TIP3    H156546   5.556   5.769   5.972 -0.6732 -0.2205  1.7090
11685TIP3    H256547   5.675   5.713   6.047 -0.0884  0.3301  1.2067
11686TIP3   OH256548   5.936   5.217  14.135  0.0355  0.3870 -0.2178
11686TIP3    H156549   5.922   5.176  14.050  1.7173  0.8150 -0.7481
11686TIP3    H256550   5.882   5.166  14.196 -1.0063 -0.0764 -1.4794
11687TIP3   OH256551   6.139   1.475  14.477 -0.3130 -0.5278  0.2136
11687TIP3    H156552   6.046   1.479  14.459  0.0344 -2.2597 -2.3576
11687TIP3    H256553   6.170   1.564  14.462 -1.6205  0.3388  2.1516
11688TIP3   OH256554   6.752   0.798   2.555  0.7145 -0.4239 -0.2002
11688TIP3    H156555   6.664   0.812   2.521 -0.2666 -0.9414  1.9105
11688TIP3    H256556   6.809   0.806   2.479 -1.2312 -1.0053 -1.8145
11689TIP3   OH256557   3.315   3.880  11.864  0.3081 -0.4553  0.5540
11689TIP3    H156558   3.236   3.904  11.913 -0.3937 -1.0586 -0.2543
11689TIP3    H256559   3.365   3.826  11.925 -0.2606 -0.6974  0.8159
11690TIP3   OH256560   1.301   1.537  13.720 -0.0935 -0.0805 -0.0767
11690TIP3    H156561   1.379   1.495  13.685 -0.7778 -0.6542 -0.9651
11690TIP3    H256562   1.328   1.570  13.805  1.2646  0.2099 -0.5828
11691TIP3   OH256563   6.419   5.900   5.576 -0.1795  0.1368 -0.1828
11691TIP3    H156564   6.349   5.847   5.614 -3.3478  2.4385 -2.2571
11691TIP3    H256565   6.411   5.985   5.619  0.6985  0.7231 -1.1332
11692TIP3   OH256566   3.006   1.442   6.174  0.0533 -0.4079 -0.9610
11692TIP3    H156567   2.961   1.527   6.175 -0.6780 -0.7687 -1.6462
11692TIP3    H256568   2.936   1.378   6.181  0.6781 -0.9669  0.5775
11693TIP3   OH256569   5.536   2.663  12.902 -0.4490 -0.5297 -0.4971
11693TIP3    H156570   5.512   2.619  12.983 -2.3323  0.8767 -0.1966
11693TIP3    H256571   5.512   2.602  12.832 -0.9077 -0.8872 -0.0293
11694TIP3   OH256572   3.888   0.728   0.755 -0.0554  0.1580  0.5102
11694TIP3    H156573   3.819   0.766   0.811  1.7581  2.1330  1.5577
11694TIP3    H256574   3.922   0.655   0.805 -0.3519  0.1435  0.6945
11695TIP3   OH256575   2.976   3.187   2.740  0.0419  0.0922  0.7649
11695TIP3    H156576   2.913   3.193   2.669  0.1393 -1.6049  0.4946
11695TIP3    H256577   2.924   3.192   2.820 -0.0532  2.1513  0.6170
11696TIP3   OH256578   5.909   6.663   3.546 -0.4125 -0.2238 -0.0807
11696TIP3    H156579   5.814   6.673   3.555 -0.4318  0.6656 -1.0116
11696TIP3    H256580   5.922   6.648   3.452  0.3525 -0.5478  0.0756
11697TIP3   OH256581   0.571   0.692   1.767 -0.0361 -0.2077  0.5701
11697TIP3    H156582   0.562   0.693   1.863 -0.6417  0.9546  0.5125
11697TIP3    H256583   0.485   0.718   1.734  0.5234  0.6462 -0.2609
11698TIP3   OH256584   6.276   5.792  15.714  0.0890  0.0153 -0.5480
11698TIP3    H156585   6.326   5.722  15.755 -0.8264  0.8736  2.2185
11698TIP3    H256586   6.282   5.865  15.775 -1.0546  1.5497 -2.1569
11699TIP3   OH256587   1.951   5.686   0.862 -0.4606  0.2395 -0.3075
11699TIP3    H156588   1.943   5.661   0.954  0.3226 -0.4747 -0.4243
11699TIP3    H256589   1.985   5.608   0.819 -1.1328  0.4633 -1.2671
11700TIP3   OH256590   0.234   3.870   2.602 -0.3252  0.1695  0.1112
11700TIP3    H156591   0.227   3.966   2.602  0.1670  0.2124  0.4137
11700TIP3    H256592   0.184   3.842   2.525  0.1172  0.7157 -0.3841
11701TIP3   OH256593   2.153   3.179   6.277  0.2856 -0.2581 -0.3478
11701TIP3    H156594   2.202   3.247   6.323  0.6316 -0.1639 -0.8367
11701TIP3    H256595   2.179   3.097   6.320 -0.6471 -0.0322  0.6825
11702TIP3   OH256596   0.925   2.368   5.238  0.5444  0.7546  0.0163
11702TIP3    H156597   1.015   2.337   5.238  0.4804  0.5497 -0.5893
11702TIP3    H256598   0.933   2.463   5.224  0.6738  0.7654  0.1644
11703TIP3   OH256599   5.553   3.219   1.275 -1.3927  0.3414 -0.4565
11703TIP3    H156600   5.488   3.263   1.221 -0.6534  0.2807 -1.4143
11703TIP3    H256601   5.626   3.280   1.279 -0.8996 -0.2290 -0.6703
11704TIP3   OH256602   4.068   6.044   3.543  0.0569  0.3590 -0.0351
11704TIP3    H156603   4.082   6.072   3.633  0.2503 -0.0281  0.0588
11704TIP3    H256604   4.066   6.125   3.493  2.2020  0.5086  0.0020
11705TIP3   OH256605   5.655   4.790  16.594  0.3414  0.2852  0.2631
11705TIP3    H156606   5.724   4.753  16.539  2.7705  1.7609  2.1218
11705TIP3    H256607   5.694   4.794  16.682 -1.9275  1.7086  1.2970
11706TIP3   OH256608   3.544   2.673   1.865 -0.3290  0.4666  0.5168
11706TIP3    H156609   3.520   2.738   1.931 -0.0785  0.3358  0.7378
11706TIP3    H256610   3.580   2.725   1.792  3.8532  0.4765  2.2812
11707TIP3   OH256611   0.600   0.263  14.200 -0.0263 -0.0238 -0.0921
11707TIP3    H156612   0.544   0.298  14.132 -0.0803  0.0321 -0.0186
11707TIP3    H256613   0.604   0.169  14.184 -1.1859 -0.2195  0.6696
11708TIP3   OH256614   4.452   2.634   3.700 -0.1540  0.0645 -0.7449
11708TIP3    H156615   4.414   2.711   3.657  0.5190  0.8811  0.0654
11708TIP3    H256616   4.535   2.620   3.656 -0.5960 -0.6567 -1.3685
11709TIP3   OH256617   4.640   0.987  15.903  0.2885 -0.2141 -0.6049
11709TIP3    H156618   4.601   1.042  15.972 -1.7168 -3.0018  0.6720
11709TIP3    H256619   4.632   1.040  15.824 -3.5098  0.6839  0.1332
11710TIP3   OH256620   6.414   4.188  11.224  0.4199 -0.2344  0.1129
11710TIP3    H156621   6.380   4.245  11.156 -0.7945 -2.5078 -1.3328
11710TIP3    H256622   6.346   4.187  11.291  1.6177  2.0079  1.4536
11711TIP3   OH256623   5.993   1.267   5.822 -0.0244 -0.1522  0.2196
11711TIP3    H156624   5.900   1.279   5.803  0.1546  0.7675 -0.0803
11711TIP3    H256625   6.002   1.290   5.914 -0.5939 -3.0501  1.1235
11712TIP3   OH256626   4.931   2.633  16.439  0.1855 -0.1033  0.5552
11712TIP3    H156627   4.846   2.619  16.398 -0.3100 -1.7616  2.0241
11712TIP3    H256628   4.938   2.563  16.504  2.3924  0.3922  0.9333
11713TIP3   OH256629   1.040   4.400  10.612  0.0258  0.3984  0.0852
11713TIP3    H156630   1.114   4.417  10.669 -0.9588  0.2786  1.4363
11713TIP3    H256631   1.078   4.394  10.524  1.5396  0.7573  0.6917
11714TIP3   OH256632   2.215   4.759   2.313  0.1257  0.0108 -0.0769
11714TIP3    H156633   2.143   4.704   2.343 -0.1333  0.2549 -0.2406
11714TIP3    H256634   2.293   4.706   2.326 -0.1429 -0.4757 -0.4234
11715TIP3   OH256635   0.821   0.588  13.477 -0.4964  0.6638  0.1533
11715TIP3    H156636   0.784   0.501  13.493  1.1182  0.0195  0.5345
11715TIP3    H256637   0.863   0.612  13.559 -0.7111  1.7236 -0.0270
11716TIP3   OH256638   3.338   3.507  15.484  0.0191 -0.2553  0.6710
11716TIP3    H156639   3.243   3.500  15.476 -0.2704  2.1612  1.1790
11716TIP3    H256640   3.372   3.480  15.399 -1.3334  1.5058 -0.4975
11717TIP3   OH256641   4.470   0.390  15.006 -0.2205 -0.0695  0.0718
11717TIP3    H156642   4.532   0.320  15.024 -0.1920  0.0944  0.6398
11717TIP3    H256643   4.502   0.465  15.056 -0.8176  0.0479  0.2933
11718TIP3   OH256644   0.171   2.236  12.190  0.1982 -0.3290  0.5370
11718TIP3    H156645   0.149   2.190  12.108  1.3819  0.8421 -0.4867
11718TIP3    H256646   0.208   2.319  12.161 -1.9645  1.3806  2.3244
11719TIP3   OH256647   4.079   4.768  15.588 -0.2215  0.3713  0.2467
11719TIP3    H156648   4.010   4.826  15.558 -0.9765 -0.7672 -0.2876
11719TIP3    H256649   4.049   4.737  15.673 -0.6818 -0.6049 -0.2599
11720TIP3   OH256650   1.077   4.042   0.910  0.2582 -0.2980 -0.0755
11720TIP3    H156651   0.992   4.034   0.867  0.5418 -0.7954 -0.5610
11720TIP3    H256652   1.095   3.953   0.941  0.2931 -0.0537  0.6336
11721TIP3   OH256653   4.497   2.691   6.253 -0.7798 -0.2456 -0.3584
11721TIP3    H156654   4.488   2.785   6.269  2.3454  0.3078 -1.1563
11721TIP3    H256655   4.541   2.657   6.331 -1.4177 -0.9685 -0.2982
11722TIP3   OH256656   5.658   3.988   0.824 -0.6831  0.2805 -0.0431
11722TIP3    H156657   5.692   3.976   0.735 -0.1346  0.9506  0.0650
11722TIP3    H256658   5.737   3.989   0.879 -1.0636 -0.9245  0.5541
11723TIP3   OH256659   5.949   1.805   3.446 -0.4852 -0.6215 -0.9021
11723TIP3    H156660   6.040   1.775   3.445 -0.7486 -1.5387  0.3091
11723TIP3    H256661   5.932   1.830   3.538 -0.6113  2.3245 -1.6137
11724TIP3   OH256662   5.589   6.518   1.875 -0.0917  0.8231 -0.1934
11724TIP3    H156663   5.586   6.596   1.930 -0.8522  0.4586  0.3043
11724TIP3    H256664   5.608   6.447   1.936  1.7325  0.7309 -0.7943
11725TIP3   OH256665   0.759   4.693  13.663  0.4162  0.0917  0.0404
11725TIP3    H156666   0.698   4.707  13.591  1.2501  2.1137 -0.3352
11725TIP3    H256667   0.706   4.703  13.742 -0.4552 -1.9149 -0.2190
11726TIP3   OH256668   2.935   3.971   5.844  0.1161 -0.5304  0.5419
11726TIP3    H156669   2.963   3.986   5.935  0.1225 -0.7645  0.5792
11726TIP3    H256670   2.948   4.055   5.801 -2.3946  0.3680  1.3991
11727TIP3   OH256671   5.413   0.616   5.632 -0.1643 -0.8106 -0.3684
11727TIP3    H156672   5.453   0.695   5.670  0.2508 -1.6141  0.9223
11727TIP3    H256673   5.321   0.640   5.620 -0.1135 -0.2221  0.3054
11728TIP3   OH256674   6.307   2.087   4.657 -0.0461 -0.0598 -0.3623
11728TIP3    H156675   6.364   2.113   4.730  0.0971 -0.2156 -0.4184
11728TIP3    H256676   6.238   2.034   4.698 -0.1100  0.0684 -0.3040
11729TIP3   OH256677   0.644   1.364   1.568 -0.3020  0.1353 -0.3389
11729TIP3    H156678   0.678   1.435   1.623 -0.7237  0.0113  0.0937
11729TIP3    H256679   0.688   1.375   1.484  2.1675 -1.0865  0.6969
11730TIP3   OH256680   6.614   2.668  10.313 -0.2603 -0.2266  0.1359
11730TIP3    H156681   6.610   2.587  10.262  2.5791  1.1837 -2.7234
11730TIP3    H256682   6.692   2.657  10.369 -1.5903 -0.5398  2.0232
11731TIP3   OH256683   6.528   6.697  15.001  0.3202 -0.7133  0.1029
11731TIP3    H156684   6.586   6.672  14.928  2.3468 -0.2399  1.4851
11731TIP3    H256685   6.562   6.781  15.031 -2.7630  0.9406 -0.6722
11732TIP3   OH256686   6.391   5.529  17.083  0.1739 -0.2013  0.7179
11732TIP3    H156687   6.464   5.478  17.118  0.3995 -1.6720 -1.7233
11732TIP3    H256688   6.428   5.579  17.011 -0.2872  2.7585  2.3305
11733TIP3   OH256689   0.295   3.568  11.652 -0.0968 -0.1190  0.3812
11733TIP3    H156690   0.209   3.543  11.620 -1.7956  2.8691  2.1696
11733TIP3    H256691   0.336   3.613  11.578 -1.2461  0.8668  0.3146
11734TIP3   OH256692   4.526   0.423  16.017  0.6443  0.4814  0.0898
11734TIP3    H156693   4.567   0.478  16.085 -0.0816  0.4101  0.5940
11734TIP3    H256694   4.522   0.480  15.940  1.2969  0.6302  0.1583
11735TIP3   OH256695   2.160   0.085  11.819 -0.1585  0.4629 -0.2959
11735TIP3    H156696   2.201   0.166  11.788  0.7724  0.3388  0.5855
11735TIP3    H256697   2.130   0.042  11.738  0.5356  1.0418 -0.8774
11736TIP3   OH256698   4.118   4.534  12.917 -0.1180  0.1343 -0.3516
11736TIP3    H156699   4.105   4.597  12.988 -1.0420 -1.2921  0.8046
11736TIP3    H256700   4.141   4.588  12.841  1.0988  1.6896  1.0463
11737TIP3   OH256701   5.432   0.380   4.761 -0.2383 -0.0849  0.9006
11737TIP3    H156702   5.346   0.364   4.799 -0.5428  0.0397  0.2870
11737TIP3    H256703   5.493   0.335   4.819 -0.6215  0.6029  1.8622
11738TIP3   OH256704   1.388   0.020   3.878 -0.4525 -0.0860 -0.0391
11738TIP3    H156705   1.402   0.115   3.876 -0.6500 -0.0331  0.9690
11738TIP3    H256706   1.303   0.009   3.920 -0.1887 -0.7376  0.3396
11739TIP3   OH256707   0.002   1.706   2.951  0.2927  0.7143 -0.3322
11739TIP3    H156708   0.062   1.744   2.887  0.8694 -1.6893 -1.3036
11739TIP3    H256709  -0.084   1.709   2.908  0.6860 -0.9473 -1.3269
11740TIP3   OH256710   3.613   6.026   3.872 -0.2034 -0.2027 -0.6430
11740TIP3    H156711   3.527   5.986   3.883 -1.2389  1.7397 -1.0919
11740TIP3    H256712   3.649   6.031   3.961 -0.9555 -0.2220 -0.3280
11741TIP3   OH256713   5.297   6.159   5.970 -0.6905 -0.0945 -0.0400
11741TIP3    H156714   5.345   6.110   5.903 -0.8930 -0.1231 -0.1669
11741TIP3    H256715   5.364   6.204   6.021 -0.4873 -0.6247  0.1706
11742TIP3   OH256716   1.046   4.636  14.079  0.2447  0.0821  0.3843
11742TIP3    H156717   1.101   4.636  14.158 -0.0179 -2.4802  0.6679
11742TIP3    H256718   0.973   4.695  14.101  0.9326  0.5692  1.4644
11743TIP3   OH256719   3.545   1.266   1.422 -0.3084 -0.7733 -0.0561
11743TIP3    H156720   3.591   1.280   1.504 -1.0563 -0.8455  0.3889
11743TIP3    H256721   3.581   1.184   1.388  0.1851 -0.6103  0.0635
11744TIP3   OH256722   6.127   5.818   3.471 -0.0988  0.6958  0.1744
11744TIP3    H156723   6.070   5.878   3.519  1.9067  0.5769  2.9651
11744TIP3    H256724   6.214   5.856   3.479  0.7961 -1.0672 -0.6154
11745TIP3   OH256725   6.149   3.823  16.907  0.4383  1.1038  0.6761
11745TIP3    H156726   6.202   3.812  16.986 -0.6595  0.3914  1.3288
11745TIP3    H256727   6.060   3.832  16.939  0.0015  1.0403 -0.4860
11746TIP3   OH256728   2.282   0.137  15.410  0.0020  0.8029 -0.2326
11746TIP3    H156729   2.367   0.097  15.395  0.3609  1.1243  0.8498
11746TIP3    H256730   2.256   0.174  15.326  0.1099 -0.8389 -1.0199
11747TIP3   OH256731   1.775   3.430   1.256 -0.0711  0.1602 -0.3178
11747TIP3    H156732   1.707   3.468   1.311 -1.4071  0.0313 -1.8184
11747TIP3    H256733   1.840   3.500   1.248 -0.3361  0.5259  0.5758
11748TIP3   OH256734   6.261   6.081  11.513  0.5444  0.1929 -0.1251
11748TIP3    H156735   6.261   6.175  11.531 -0.0087  0.2458 -0.3734
11748TIP3    H256736   6.215   6.072  11.430 -1.4484 -0.4830  0.9834
11749TIP3   OH256737   2.682   1.178  15.005 -0.4822  0.2921 -0.3313
11749TIP3    H156738   2.706   1.132  14.924 -1.5688 -0.8659 -0.0358
11749TIP3    H256739   2.740   1.141  15.071  1.3516  2.2076 -0.7676
11750TIP3   OH256740   2.830   1.613   2.920 -0.3699 -0.2615 -0.2311
11750TIP3    H156741   2.867   1.702   2.916  0.6977 -0.7125 -0.8082
11750TIP3    H256742   2.777   1.606   2.841 -1.1274  0.1350  0.2300
11751TIP3   OH256743   6.555   1.827   5.025  0.7586 -0.0377  0.7258
11751TIP3    H156744   6.547   1.899   5.087  1.7115  1.1000 -0.4238
11751TIP3    H256745   6.482   1.839   4.965  2.3720  1.6080 -1.0343
11752TIP3   OH256746   1.432   1.581  12.190  0.0399  0.1829 -0.1274
11752TIP3    H156747   1.371   1.655  12.185 -0.5654 -0.3568 -1.1307
11752TIP3    H256748   1.382   1.511  12.231 -0.1609 -0.3754 -1.2837
11753TIP3   OH256749   4.474   2.907  12.904 -0.5189 -0.1570  0.5661
11753TIP3    H156750   4.483   2.950  12.989 -0.5906  0.1926  0.3994
11753TIP3    H256751   4.521   2.964  12.843 -0.9138 -0.1253  0.2830
11754TIP3   OH256752   5.743   6.529  13.711 -0.4980 -0.0470  0.1414
11754TIP3    H156753   5.699   6.448  13.737 -0.6630  0.0459  0.1530
11754TIP3    H256754   5.836   6.510  13.721 -0.3837 -1.0978 -2.3480
11755TIP3   OH256755   0.487   2.289  12.437  0.2306 -0.1278 -0.0589
11755TIP3    H156756   0.460   2.216  12.381 -4.6193  0.2304  1.3210
11755TIP3    H256757   0.581   2.279  12.447  0.2004 -4.5887 -2.0844
11756TIP3   OH256758   3.469   2.744   2.906  0.2053  0.5429  0.2655
11756TIP3    H156759   3.484   2.733   2.812  0.1781  1.0106  0.2027
11756TIP3    H256760   3.555   2.762   2.942  0.1375  0.9094  0.2478
11757TIP3   OH256761   0.753   5.378   1.529 -0.4792 -0.2826  0.0685
11757TIP3    H156762   0.729   5.384   1.621 -2.0163 -0.9863 -0.2513
11757TIP3    H256763   0.731   5.288   1.504  0.1350 -0.1740 -0.9277
11758TIP3   OH256764   5.684   0.487   5.554 -0.3251  0.2455 -0.7229
11758TIP3    H156765   5.761   0.490   5.610 -0.2809  2.1355 -0.8044
11758TIP3    H256766   5.611   0.471   5.614  0.0080 -0.4914 -0.5086
11759TIP3   OH256767   5.955   6.130   5.885  0.2311  0.0952  0.0753
11759TIP3    H156768   5.944   6.194   5.956  1.1762 -1.1229  1.3628
11759TIP3    H256769   5.874   6.079   5.887  0.5587 -0.4045  0.7729
11760TIP3   OH256770   4.945   1.346   5.486 -0.7209  0.4113 -0.1835
11760TIP3    H156771   4.909   1.407   5.422 -0.4344  1.8575  0.9788
11760TIP3    H256772   4.876   1.282   5.501 -1.5548  1.2507 -0.4024
11761TIP3   OH256773   3.490   0.112  12.414  0.4962  0.4398 -0.3659
11761TIP3    H156774   3.463   0.021  12.408 -1.2818  0.9569 -1.3017
11761TIP3    H256775   3.508   0.127  12.506 -2.8230  0.0099  0.4954
11762TIP3   OH256776   6.216   0.449  11.088  0.4098 -0.3939  0.1302
11762TIP3    H156777   6.170   0.492  11.160 -2.2991 -1.1296 -1.0629
11762TIP3    H256778   6.147   0.420  11.028  2.4510 -1.4493 -1.8715
11763TIP3   OH256779   5.026   4.088  11.109  0.3774 -0.1646  0.2297
11763TIP3    H156780   4.996   4.156  11.048  0.9544 -0.8335 -0.8453
11763TIP3    H256781   5.094   4.041  11.060  1.1235 -0.4894  1.5469
11764TIP3   OH256782   1.194   0.708   3.395 -0.5715 -0.2086  0.0652
11764TIP3    H156783   1.283   0.690   3.365 -0.9454  0.0752 -1.2459
11764TIP3    H256784   1.148   0.738   3.317 -1.3620  1.3622  1.1041
11765TIP3   OH256785   2.847   1.668  13.061 -0.4644 -0.2346  0.1798
11765TIP3    H156786   2.811   1.580  13.067  1.2747 -0.9189  1.2612
11765TIP3    H256787   2.772   1.726  13.075 -1.7206 -1.4973 -0.9876
11766TIP3   OH256788   2.482   1.900  16.198 -0.5078  0.3742  0.0335
11766TIP3    H156789   2.405   1.888  16.141 -0.0603  0.2279 -0.5549
11766TIP3    H256790   2.518   1.813  16.208 -0.8933  0.3150  1.0100
11767TIP3   OH256791   2.342   5.112  13.445  0.1202  0.2858 -0.4819
11767TIP3    H156792   2.409   5.045  13.431  0.5444  0.7324 -0.6486
11767TIP3    H256793   2.355   5.140  13.536 -0.7566 -0.6016 -0.0734
11768TIP3   OH256794   0.094   3.411  16.671  0.5528 -0.2053  0.3814
11768TIP3    H156795   0.142   3.468  16.731  2.4541  1.1371 -2.2088
11768TIP3    H256796   0.006   3.405  16.709  2.0264 -0.9298  4.1556
11769TIP3   OH256797   3.094   5.403  16.560 -0.1380  0.5481 -0.3552
11769TIP3    H156798   2.999   5.400  16.549 -0.1825  0.9581 -0.1009
11769TIP3    H256799   3.109   5.375  16.650  0.1440 -1.5886 -0.9943
11770TIP3   OH256800   6.188   3.237  11.635  0.1728 -0.1380  0.4263
11770TIP3    H156801   6.233   3.215  11.717  1.7375  0.2152 -0.2971
11770TIP3    H256802   6.153   3.325  11.650  2.7018  1.0618 -0.0900
11771TIP3   OH256803   2.250   4.772  14.758 -0.1186 -0.2304 -0.0674
11771TIP3    H156804   2.212   4.685  14.770  0.2778 -0.6141 -1.3968
11771TIP3    H256805   2.322   4.759  14.696 -2.0431  1.4852 -2.8995
11772TIP3   OH256806   6.685   2.007   3.342  0.4476  0.3432 -0.3284
11772TIP3    H156807   6.683   2.015   3.438  0.9279 -1.2119 -0.1570
11772TIP3    H256808   6.714   1.917   3.326 -0.3481  0.3375 -1.9438
11773TIP3   OH256809   4.480   2.242  14.483 -0.1538  0.5449 -0.3449
11773TIP3    H156810   4.551   2.236  14.419 -1.3855  2.1488 -1.9742
11773TIP3    H256811   4.524   2.267  14.564  1.2061  1.0641 -1.1882
11774TIP3   OH256812   2.906   4.065   1.884 -0.0928  0.0696  0.4561
11774TIP3    H156813   2.935   4.054   1.793  0.4857 -0.4101  0.6846
11774TIP3    H256814   2.988   4.070   1.934 -0.3802  1.9068  0.7890
11775TIP3   OH256815   6.060   2.862   1.878  0.5754  0.0125  0.3543
11775TIP3    H156816   6.037   2.798   1.945 -0.2961 -0.9952 -0.8475
11775TIP3    H256817   6.033   2.821   1.796  1.2168  1.3821 -0.5798
11776TIP3   OH256818   5.112   2.128   6.075  0.2941  0.3645 -0.5537
11776TIP3    H156819   5.087   2.215   6.106  2.2821  1.1611 -0.9993
11776TIP3    H256820   5.196   2.110   6.117  0.2876 -1.0153 -1.0615
11777TIP3   OH256821   3.196   0.626  12.496 -0.3581  0.3869 -0.5190
11777TIP3    H156822   3.222   0.701  12.441 -1.8503  1.5209  0.2668
11777TIP3    H256823   3.239   0.642  12.580 -1.3977  0.8687 -0.0617
11778TIP3   OH256824   5.642   3.146   5.639 -0.1821  0.5628 -0.2209
11778TIP3    H156825   5.550   3.153   5.614 -0.7480  0.1886  1.6493
11778TIP3    H256826   5.647   3.185   5.726  0.7330 -2.4806  1.2112
11779TIP3   OH256827   2.240   3.035  12.261 -0.1440 -0.2104  0.4715
11779TIP3    H156828   2.180   2.964  12.284 -1.9360  0.5001 -1.6246
11779TIP3    H256829   2.225   3.049  12.167  4.4848 -1.0560 -0.6847
11780TIP3   OH256830   1.181   4.327  13.680 -0.8038  0.0242  0.0448
11780TIP3    H156831   1.095   4.297  13.652 -0.8296 -0.0943  0.2490
11780TIP3    H256832   1.163   4.390  13.750 -0.6731 -2.3222  2.3512
11781TIP3   OH256833   2.567   4.574   4.332  0.8338 -0.1495 -0.0624
11781TIP3    H156834   2.571   4.494   4.385  0.8717  0.2195  0.5013
11781TIP3    H256835   2.588   4.545   4.243 -0.4572 -1.0045 -0.1248
11782TIP3   OH256836   0.673   5.632  15.102 -0.1229 -0.5157 -0.0616
11782TIP3    H156837   0.612   5.655  15.032  1.6524  1.1884 -1.1148
11782TIP3    H256838   0.622   5.645  15.183 -1.5558 -0.5200 -0.9297
11783TIP3   OH256839   3.812   4.751   2.282 -0.3489  0.3535  0.3590
11783TIP3    H156840   3.882   4.693   2.255 -0.3332  1.4433 -2.2311
11783TIP3    H256841   3.840   4.785   2.367  1.8298  0.0802 -0.1974
11784TIP3   OH256842   0.964   5.443  12.594 -0.7012 -0.2453 -0.3313
11784TIP3    H156843   0.968   5.423  12.688 -2.6689  0.3420 -0.0824
11784TIP3    H256844   1.008   5.529  12.587 -0.3860 -0.3731  0.0104
11785TIP3   OH256845   3.567   0.101   0.382 -0.7507  0.4042  0.0657
11785TIP3    H156846   3.603   0.064   0.301 -2.5390  1.2379 -1.1918
11785TIP3    H256847   3.608   0.188   0.389 -1.6241  0.9061 -0.7598
11786TIP3   OH256848   6.617   0.852  13.920  0.4912 -0.3444  0.1573
11786TIP3    H156849   6.563   0.923  13.954  2.6727  1.7669 -0.5035
11786TIP3    H256850   6.658   0.814  13.998  0.1388 -0.1857  0.4254
11787TIP3   OH256851   4.703   5.941  17.141  0.5151  0.1615  0.5455
11787TIP3    H156852   4.727   5.880  17.211  0.2350 -0.7674 -0.1478
11787TIP3    H256853   4.616   5.972  17.166  0.4927 -0.0245  0.7083
11788TIP3   OH256854   1.201   2.185   4.651  0.6971  0.6616 -0.7567
11788TIP3    H156855   1.234   2.179   4.562 -0.1866  1.5087 -1.1516
11788TIP3    H256856   1.180   2.095   4.675 -0.0803  0.5529 -1.7977
11789TIP3   OH256857   6.358   5.593  12.821  0.3175  0.2692  0.0959
11789TIP3    H156858   6.289   5.529  12.834 -0.2296  1.0664  1.3066
11789TIP3    H256859   6.312   5.672  12.791  1.0112  0.0350 -1.6959
11790TIP3   OH256860   5.046   4.812  10.854 -0.0707  0.6262 -0.1319
11790TIP3    H156861   4.977   4.845  10.911 -1.5736 -1.6165 -0.5202
11790TIP3    H256862   5.043   4.869  10.777 -0.5062  1.4402  0.4776
11791TIP3   OH256863   2.852   3.216  14.872  0.3744  0.2924  0.2426
11791TIP3    H156864   2.837   3.223  14.966  0.9807  1.1038  0.2854
11791TIP3    H256865   2.778   3.164  14.839 -0.8433  1.5835  0.8840
11792TIP3   OH256866   3.761   4.113  16.007  0.3991 -0.6636 -0.0451
11792TIP3    H156867   3.670   4.087  15.991 -0.1508 -0.0257  1.7589
11792TIP3    H256868   3.769   4.199  15.966 -0.7594  0.6183  2.1799
11793TIP3   OH256869   4.783   0.189   3.331 -0.2692  0.3036  0.4163
11793TIP3    H156870   4.807   0.279   3.352 -2.1302  0.7594  0.7246
11793TIP3    H256871   4.785   0.185   3.236 -1.0337  0.9330  0.3679
11794TIP3   OH256872   4.674   2.282  15.073 -0.2737  0.3249  0.4053
11794TIP3    H156873   4.637   2.198  15.103 -1.4250  0.9718  0.8809
11794TIP3    H256874   4.760   2.286  15.114  0.9174 -1.7506 -1.6207
11795TIP3   OH256875   5.580   3.256   5.870  0.2041  0.0934 -0.3682
11795TIP3    H156876   5.593   3.333   5.924 -0.3760 -0.4620  0.5933
11795TIP3    H256877   5.507   3.279   5.812 -0.2286  0.1426  0.1824
11796TIP3   OH256878   4.635   1.458   6.525 -0.0606 -0.0279  0.3397
11796TIP3    H156879   4.545   1.472   6.554 -1.0756 -3.7648 -0.4890
11796TIP3    H256880   4.634   1.486   6.433 -0.0102  0.9621  0.6223
11797TIP3   OH256881   4.304   4.811   4.498 -0.3222 -0.9419  0.3041
11797TIP3    H156882   4.312   4.886   4.556  0.8690 -0.6895 -0.1412
11797TIP3    H256883   4.288   4.848   4.412  0.7439 -1.1492 -0.0021
11798TIP3   OH256884   4.211   6.037   2.846 -0.7351  0.4168  0.0600
11798TIP3    H156885   4.163   6.069   2.923  0.2930  4.3761 -0.7141
11798TIP3    H256886   4.263   5.964   2.879 -0.5817  1.7284  3.0765
11799TIP3   OH256887   1.180   4.212   0.610 -0.0255  0.4499 -0.1421
11799TIP3    H156888   1.193   4.201   0.516  0.5119 -1.8127  0.1268
11799TIP3    H256889   1.248   4.157   0.650  1.2813  3.1394  1.6483
11800TIP3   OH256890   3.746   6.543   1.866  0.0992  0.4168 -0.1274
11800TIP3    H156891   3.823   6.593   1.839  0.6303 -0.5714 -0.4856
11800TIP3    H256892   3.730   6.483   1.793 -1.2560  0.8698 -0.2273
11801TIP3   OH256893   5.162   0.307  15.688  0.1232 -0.0286  0.4702
11801TIP3    H156894   5.090   0.265  15.735  0.3401  0.3853  1.1922
11801TIP3    H256895   5.137   0.301  15.596 -0.7241 -0.0983  0.6947
11802TIP3   OH256896   0.408   0.428   3.311 -0.4694  0.0772 -0.2638
11802TIP3    H156897   0.418   0.353   3.370 -0.6010  0.5310  0.3534
11802TIP3    H256898   0.427   0.504   3.366  3.5664  0.3841 -1.7631
11803TIP3   OH256899   3.722   1.457  15.414  0.4208  0.6017  0.4832
11803TIP3    H156900   3.666   1.429  15.487  0.4667  0.6292  0.5286
11803TIP3    H256901   3.666   1.449  15.336  0.5405  0.0255  0.4460
11804TIP3   OH256902   0.479   6.692   3.632 -0.2475 -0.2310  0.4454
11804TIP3    H156903   0.430   6.617   3.665  1.7655 -1.2988  1.2176
11804TIP3    H256904   0.432   6.719   3.554 -2.0282 -1.1644  1.1332
11805TIP3   OH256905   1.790   6.216  11.805  0.6821 -0.0019  0.0219
11805TIP3    H156906   1.751   6.143  11.853 -0.1216  1.0673  1.0511
11805TIP3    H256907   1.845   6.174  11.738 -2.8555 -1.6518 -2.1434
11806TIP3   OH256908   6.646   6.299   0.739 -0.8024 -0.1382 -0.2953
11806TIP3    H156909   6.687   6.386   0.740  1.0989 -0.9240 -1.9047
11806TIP3    H256910   6.679   6.256   0.818 -0.1618 -0.0395 -0.5000
11807TIP3   OH256911   1.425   0.931  13.901  0.2442  0.4655 -0.1522
11807TIP3    H156912   1.449   1.023  13.888  1.0315  0.2015 -0.6033
11807TIP3    H256913   1.362   0.913  13.831 -1.1509  1.0835  0.8784
11808TIP3   OH256914   5.577   3.521  14.568 -0.1385 -0.4151  0.1733
11808TIP3    H156915   5.649   3.495  14.626 -0.0815 -2.5690 -0.7645
11808TIP3    H256916   5.539   3.438  14.539 -1.1400  0.6313 -1.6688
11809TIP3   OH256917   3.308   3.924  13.106 -0.4265 -0.2432 -0.6644
11809TIP3    H156918   3.315   3.978  13.028 -0.2663 -1.1238 -1.2716
11809TIP3    H256919   3.348   3.977  13.175 -1.0575  0.7621 -1.0500
11810TIP3   OH256920   3.727   5.874  12.866  0.5679  0.0181  0.2041
11810TIP3    H156921   3.787   5.919  12.926  0.5368 -0.2490  0.4391
11810TIP3    H256922   3.671   5.821  12.923 -1.4657  2.0328  0.1953
11811TIP3   OH256923   4.393   5.045   0.728  0.0777  0.1958  0.5520
11811TIP3    H156924   4.474   5.092   0.749 -0.2026  0.2880  1.4658
11811TIP3    H256925   4.403   4.960   0.770  0.1829 -0.2291 -0.3125
11812TIP3   OH256926   4.336   4.131  15.633 -0.0242 -0.3138  0.0009
11812TIP3    H156927   4.392   4.204  15.656 -2.4431  1.6776 -0.0005
11812TIP3    H256928   4.351   4.117  15.540 -0.7552  1.3784 -0.4006
11813TIP3   OH256929   4.752   4.540  15.018 -0.6181 -0.0284  0.1614
11813TIP3    H156930   4.719   4.463  14.970 -0.1216 -0.1406 -0.0039
11813TIP3    H256931   4.842   4.518  15.040 -0.9637 -0.1837  1.5776
11814TIP3   OH256932   0.649   4.339   3.971  0.4588  0.2236 -0.9887
11814TIP3    H156933   0.636   4.423   4.015  0.6657 -0.7217  0.9944
11814TIP3    H256934   0.740   4.315   3.990 -0.3833 -1.7633  1.0371
11815TIP3   OH256935   4.764   3.916  11.255 -0.0321 -0.1941 -0.4043
11815TIP3    H156936   4.798   3.860  11.326  0.3595 -1.0290 -1.2269
11815TIP3    H256937   4.674   3.886  11.243 -0.1873  0.1358 -0.0822
11816TIP3   OH256938   0.504   1.184   0.699  0.1747 -0.3359  0.7770
11816TIP3    H156939   0.486   1.180   0.605  0.4942  0.0059  0.6974
11816TIP3    H256940   0.597   1.207   0.705  0.2334 -0.6571  1.1773
11817TIP3   OH256941   5.086   2.327   2.363 -0.5352 -0.1162 -0.2402
11817TIP3    H156942   5.026   2.266   2.318 -0.7722 -0.4213  0.4822
11817TIP3    H256943   5.170   2.313   2.320 -0.6919 -0.6150 -0.3966
11818TIP3   OH256944   3.546   5.777   3.325 -0.0090 -0.5657 -0.4707
11818TIP3    H156945   3.506   5.775   3.412  1.8053  3.4680  0.7023
11818TIP3    H256946   3.473   5.798   3.266 -0.8762 -1.0938  0.3791
11819TIP3   OH256947   2.064   0.971  11.859 -0.4094  0.2039  0.0534
11819TIP3    H156948   2.156   0.989  11.879 -1.1853  2.0670  2.4488
11819TIP3    H256949   2.027   1.055  11.836 -2.1993  0.2225  2.5530
11820TIP3   OH256950   2.172   1.971  13.013 -0.3286 -0.4889  0.7619
11820TIP3    H156951   2.143   2.057  13.044 -0.6858 -0.2678 -0.1458
11820TIP3    H256952   2.114   1.908  13.056 -0.5578 -0.2174  0.8476
11821TIP3   OH256953   5.681   4.819   2.106  0.2502  0.1287 -0.2328
11821TIP3    H156954   5.589   4.844   2.117  0.8696  2.7287 -0.3498
11821TIP3    H256955   5.692   4.812   2.011 -0.0106 -1.0791 -0.1877
11822TIP3   OH256956   3.097   6.153  14.973 -0.5481  0.2391 -0.2717
11822TIP3    H156957   3.115   6.130  14.882  1.7714 -0.1134  0.1944
11822TIP3    H256958   3.126   6.076  15.023 -0.3465  1.0071  0.8458
11823TIP3   OH256959   5.609   3.209  13.260 -0.3609  0.7240  0.2233
11823TIP3    H156960   5.646   3.192  13.346  0.4189 -1.3386 -0.4554
11823TIP3    H256961   5.550   3.284  13.273 -0.5462  0.2294  2.5905
11824TIP3   OH256962   1.328   4.357   4.331  0.0995  0.6265 -0.2571
11824TIP3    H156963   1.237   4.351   4.302  0.4840  0.3555 -1.4649
11824TIP3    H256964   1.378   4.312   4.262  0.9546 -1.0628  1.3676
11825TIP3   OH256965   0.357   2.820  11.064  0.4168 -0.3634 -0.0289
11825TIP3    H156966   0.270   2.799  11.096  0.0204 -1.4344 -1.6502
11825TIP3    H256967   0.342   2.864  10.980  1.3936 -2.8418 -1.6035
11826TIP3   OH256968   3.446   3.221   5.174 -0.5516  0.4649 -0.1917
11826TIP3    H156969   3.453   3.315   5.157 -1.1797  0.3429 -1.2356
11826TIP3    H256970   3.366   3.194   5.129 -1.8165 -0.1214  2.2751
11827TIP3   OH256971   6.811   5.190  16.052 -0.4205  0.3841  0.2022
11827TIP3    H156972   6.805   5.116  16.111 -1.4844  0.0348 -0.3257
11827TIP3    H256973   6.848   5.153  15.971  2.1269  1.0694  0.9557
11828TIP3   OH256974   6.835   4.163   2.041 -0.0925  0.0153 -0.1381
11828TIP3    H156975   6.867   4.172   2.130  1.5389 -0.6441 -0.6213
11828TIP3    H256976   6.803   4.250   2.017 -0.7949  0.1302  1.1471
11829TIP3   OH256977   2.528   0.017   3.485  0.3715  0.2044 -0.2282
11829TIP3    H156978   2.478   0.002   3.404 -0.5022 -0.9140  0.4810
11829TIP3    H256979   2.471  -0.017   3.554  0.5558  2.2517  1.0198
11830TIP3   OH256980   1.435   5.189  11.735 -0.1557  0.3561 -0.2138
11830TIP3    H156981   1.438   5.111  11.790 -2.0122  1.2190  1.2026
11830TIP3    H256982   1.457   5.261  11.794 -1.9744  1.2754 -0.6030
11831TIP3   OH256983   0.004   2.385  17.113 -0.4393  0.5795 -0.1709
11831TIP3    H156984  -0.007   2.302  17.160  2.0231  0.5099  0.4109
11831TIP3    H256985  -0.052   2.446  17.159  0.1367 -0.0425  1.4120
11832TIP3   OH256986   2.777   2.440   0.225  0.4600 -0.1279 -0.0777
11832TIP3    H156987   2.713   2.498   0.265  1.1200  0.7170 -0.2176
11832TIP3    H256988   2.802   2.379   0.294 -0.7060 -0.6650 -0.1073
11833TIP3   OH256989   4.496   1.299   6.089  0.5916 -0.0836  0.3409
11833TIP3    H156990   4.524   1.210   6.112 -0.2001 -0.2157  0.8398
11833TIP3    H256991   4.434   1.323   6.157 -0.7719  0.0480 -0.8835
11834TIP3   OH256992   5.119   6.311   1.229  0.4228  0.6181 -0.0301
11834TIP3    H156993   5.121   6.322   1.325  0.6365 -1.9177  0.3211
11834TIP3    H256994   5.155   6.393   1.195  0.5471  1.5012  2.0693
11835TIP3   OH256995   0.300   3.441   1.267 -0.2509 -0.0779  0.0119
11835TIP3    H156996   0.329   3.524   1.231  1.7528 -0.1832  1.2335
11835TIP3    H256997   0.379   3.387   1.271 -1.2735 -1.6205  0.3769
11836TIP3   OH256998   5.375   2.199   0.872  0.4057  0.7609 -0.2156
11836TIP3    H156999   5.314   2.225   0.941 -1.2592  0.2796 -1.4369
11836TIP3    H257000   5.337   2.234   0.792  0.0114 -2.1639 -1.4335
11837TIP3   OH257001   5.729   2.034   4.599  0.2623 -0.5482 -0.0343
11837TIP3    H157002   5.807   2.065   4.553 -1.9887  5.5186 -0.8010
11837TIP3    H257003   5.743   2.061   4.690 -0.8011  0.6576 -0.1919
11838TIP3   OH257004   3.735   5.699  14.328 -0.3112  0.3213 -0.3712
11838TIP3    H157005   3.746   5.731  14.239  0.5472  0.3484 -0.2619
11838TIP3    H257006   3.771   5.769  14.383 -0.4313  0.1169 -0.0288
11839TIP3   OH257007   6.217   2.593  10.780 -0.2070  0.1132 -0.1985
11839TIP3    H157008   6.151   2.655  10.751 -0.9521  0.0056  1.1865
11839TIP3    H257009   6.168   2.526  10.828  0.8061 -0.3795  0.1821
11840TIP3   OH257010   3.512   0.780  11.667  0.3475 -0.3674  0.1148
11840TIP3    H157011   3.602   0.767  11.640  0.7826  1.5719  0.5181
11840TIP3    H257012   3.516   0.794  11.762 -0.5916 -1.9500  0.4331
11841TIP3   OH257013   1.858   3.056   5.821 -0.4188  0.6300 -0.7317
11841TIP3    H157014   1.890   3.103   5.898 -0.0890  0.3344 -0.6833
11841TIP3    H257015   1.913   3.087   5.749 -1.9517  2.3253 -1.2407
11842TIP3   OH257016   5.905   5.617  12.938 -0.2472  0.5002  0.1303
11842TIP3    H157017   5.852   5.539  12.919  0.0926 -0.2478  2.0204
11842TIP3    H257018   5.947   5.638  12.855 -1.5740 -0.3675 -0.8066
11843TIP3   OH257019   5.133   0.007  16.299  0.1091 -0.8629 -0.2384
11843TIP3    H157020   5.121   0.085  16.353  0.8926 -0.1402 -1.0599
11843TIP3    H257021   5.162  -0.061  16.360 -3.6059 -1.4989  1.0822
11844TIP3   OH257022   5.153   0.893   0.697 -0.0764 -0.7370  0.9393
11844TIP3    H157023   5.240   0.890   0.657 -0.8480  0.8209 -1.0634
11844TIP3    H257024   5.103   0.953   0.641 -2.0556 -0.5061  2.7980
11845TIP3   OH257025   5.364   6.557   4.490 -0.0376  0.5406  0.0158
11845TIP3    H157026   5.425   6.534   4.560  1.2961  1.6475 -0.7399
11845TIP3    H257027   5.278   6.535   4.526  0.7185 -0.2254  1.4565
11846TIP3   OH257028   3.375   4.866  13.095  0.5297  0.2220 -0.1687
11846TIP3    H157029   3.451   4.855  13.038  1.3966  1.4152  0.7167
11846TIP3    H257030   3.303   4.888  13.034  1.1547  0.2463 -0.9113
11847TIP3   OH257031   5.238   2.127   5.012 -0.4610  0.1653  0.0492
11847TIP3    H157032   5.245   2.219   4.987  0.9730 -0.3387 -1.5289
11847TIP3    H257033   5.144   2.108   5.008 -0.5941  1.0383 -1.6452
11848TIP3   OH257034   3.293   6.132  15.408 -0.1135  0.3222 -0.6852
11848TIP3    H157035   3.336   6.117  15.492 -0.3902  1.8320 -0.2575
11848TIP3    H257036   3.258   6.046  15.384  0.1681 -0.1777  0.6262
11849TIP3   OH257037   0.581   1.779  14.555  0.1410 -0.6587  0.2091
11849TIP3    H157038   0.525   1.796  14.631  0.8247 -0.6811  0.7335
11849TIP3    H257039   0.637   1.706  14.582  0.7051 -0.3681 -0.1443
11850TIP3   OH257040   4.412   1.985  14.354  0.0499 -0.9584 -0.4020
11850TIP3    H157041   4.441   2.073  14.379 -0.4864 -0.3938 -1.6667
11850TIP3    H257042   4.436   1.977  14.261 -1.7326 -1.3453 -0.8609
11851TIP3   OH257043   1.333   4.088  15.745  0.4686 -0.4194 -0.3543
11851TIP3    H157044   1.399   4.048  15.688 -0.6385 -0.6261 -1.5398
11851TIP3    H257045   1.365   4.072  15.834  0.9883 -2.3367 -0.8351
11852TIP3   OH257046   1.813   0.734   6.134 -0.5738 -0.5577 -0.8072
11852TIP3    H157047   1.848   0.725   6.045 -1.9477 -1.1937 -1.3052
11852TIP3    H257048   1.729   0.689   6.132 -0.7193 -0.4221  0.7790
11853TIP3   OH257049   1.987   4.331   5.730  0.6172 -0.7801  0.4442
11853TIP3    H157050   1.943   4.293   5.805  2.1693 -0.1793  1.7233
11853TIP3    H257051   2.028   4.256   5.686  2.5439 -0.8686  2.1957
11854TIP3   OH257052   3.057   0.867  16.931 -0.0823  0.3040 -0.0409
11854TIP3    H157053   3.011   0.830  16.855  1.8722 -1.0952 -0.5949
11854TIP3    H257054   3.147   0.877  16.902  0.5572  0.4429  1.8887
11855TIP3   OH257055   2.764   6.778  15.663  0.2156 -0.0582  0.2720
11855TIP3    H157056   2.786   6.700  15.613  2.0630 -1.5196  3.1269
11855TIP3    H257057   2.844   6.831  15.662 -0.8350  1.6240 -1.1524
11856TIP3   OH257058   6.607   4.473   1.200  0.1922 -0.3423 -0.2098
11856TIP3    H157059   6.611   4.548   1.141  2.8806 -1.1435 -1.2001
11856TIP3    H257060   6.515   4.450   1.204 -0.6292  2.5515 -0.4128
11857TIP3   OH257061   0.972   3.336   4.050  0.3061  0.0873 -0.3619
11857TIP3    H157062   0.967   3.426   4.017 -0.3610  0.4697  0.7319
11857TIP3    H257063   0.951   3.282   3.973 -1.4871  0.9691 -0.5598
11858TIP3   OH257064   0.429   0.601   2.021 -0.9888 -0.3961  0.1038
11858TIP3    H157065   0.498   0.554   2.068 -0.8353 -1.1089 -0.8091
11858TIP3    H257066   0.446   0.693   2.039  0.1178 -0.5729  0.0125
11859TIP3   OH257067   4.982   1.098  16.097 -0.0037 -0.2372  0.4262
11859TIP3    H157068   5.076   1.081  16.088 -0.2318 -1.2362 -0.2234
11859TIP3    H257069   4.973   1.136  16.184  0.7039 -2.4780  1.5483
11860TIP3   OH257070   0.762   1.100   2.333 -0.2518 -0.1552  0.1456
11860TIP3    H157071   0.848   1.091   2.375  0.0643  1.4534 -0.0740
11860TIP3    H257072   0.739   1.011   2.306  0.8751 -0.7723  1.1070
11861TIP3   OH257073   6.289   1.908   3.128 -0.1300  0.1895  0.4587
11861TIP3    H157074   6.346   1.873   3.060 -1.8563 -1.7968 -0.0736
11861TIP3    H257075   6.213   1.849   3.129 -0.4638  0.4807  3.7036
11862TIP3   OH257076   1.316   1.371  15.377 -0.9011  0.0670  0.8951
11862TIP3    H157077   1.275   1.457  15.379 -1.1858  0.0972 -2.1464
11862TIP3    H257078   1.264   1.318  15.437 -1.4945  1.6527  1.8482
11863TIP3   OH257079   0.031   0.515  10.327  0.3091 -0.1801  0.0067
11863TIP3    H157080   0.041   0.446  10.393  0.3034 -1.0197 -0.8525
11863TIP3    H257081   0.089   0.489  10.256 -1.0116 -0.2535 -1.0853
11864TIP3   OH257082   6.617   5.387  12.379  0.2851  0.2428 -0.5805
11864TIP3    H157083   6.569   5.376  12.297 -1.6967 -0.0368  0.5450
11864TIP3    H257084   6.694   5.331  12.369  0.6935  1.0839 -2.6546
11865TIP3   OH257085   4.511   3.898   4.902 -0.3746 -0.3908  0.4984
11865TIP3    H157086   4.605   3.880   4.894 -0.7254 -1.6244 -2.0174
11865TIP3    H257087   4.475   3.873   4.816 -2.7744  1.5417  0.8371
11866TIP3   OH257088   3.495   4.765  16.476 -0.0846  0.5573 -0.2051
11866TIP3    H157089   3.456   4.775  16.564 -0.1022  2.0046 -0.3686
11866TIP3    H257090   3.419   4.761  16.418 -0.0583  0.0218 -0.2105
11867TIP3   OH257091   0.691   4.150  12.236  0.2245 -0.4584  0.8475
11867TIP3    H157092   0.695   4.152  12.140  0.2234  0.9380  0.8607
11867TIP3    H257093   0.695   4.057  12.257  0.5377 -0.7821 -0.4957
11868TIP3   OH257094   6.633   3.773   4.488 -0.0416 -0.6364 -0.0453
11868TIP3    H157095   6.717   3.738   4.457  0.2670  0.2107 -0.1983
11868TIP3    H257096   6.567   3.712   4.454  0.3489 -0.1991 -1.6861
11869TIP3   OH257097   3.627   6.219   0.230  0.4936  0.3551 -0.0670
11869TIP3    H157098   3.607   6.181   0.316  0.0551  1.3771  0.2938
11869TIP3    H257099   3.601   6.152   0.167  3.3823 -1.6085  0.6259
11870TIP3   OH257100   2.198   3.677  12.634  0.1474  0.4131  0.1798
11870TIP3    H157101   2.132   3.742  12.613 -1.1256 -1.0230 -0.5059
11870TIP3    H257102   2.203   3.678  12.730 -1.6861 -0.1598  0.3225
11871TIP3   OH257103   5.787   2.411  13.715 -0.0884 -0.2237 -0.1475
11871TIP3    H157104   5.876   2.415  13.679 -0.8542  1.9981 -2.1023
11871TIP3    H257105   5.778   2.493  13.764 -1.2944 -0.0390 -0.6552
11872TIP3   OH257106   5.182   2.762   4.252 -0.0461  0.3001  0.3054
11872TIP3    H157107   5.200   2.725   4.165  0.3709 -1.3485  1.0547
11872TIP3    H257108   5.250   2.724   4.308 -1.8091 -0.6655  1.8602
11873TIP3   OH257109   3.182   5.060   3.890 -0.1005 -0.1297  0.1406
11873TIP3    H157110   3.225   5.121   3.829  0.7252 -0.6892  0.1440
11873TIP3    H257111   3.244   4.987   3.898  0.0158  0.1207  1.9915
11874TIP3   OH257112   2.289   3.712  14.565 -0.0319 -0.2998 -0.6246
11874TIP3    H157113   2.207   3.708  14.615  0.7123 -0.4323  0.6285
11874TIP3    H257114   2.354   3.671  14.623  0.8519 -0.5252 -1.7475
11875TIP3   OH257115   4.696   4.827   4.083  0.2998  0.0486  0.2257
11875TIP3    H157116   4.677   4.918   4.061  0.5650  0.2721  0.9075
11875TIP3    H257117   4.658   4.777   4.011  0.8590  0.7405 -0.5702
11876TIP3   OH257118   6.345   4.841  13.828  0.0682  0.1977  0.7241
11876TIP3    H157119   6.359   4.751  13.799 -1.8902  0.4750 -1.4436
11876TIP3    H257120   6.252   4.843  13.854 -0.5117  2.0181 -1.2610
11877TIP3   OH257121   1.534   5.530   5.604  0.2177  0.5002  0.4680
11877TIP3    H157122   1.558   5.441   5.630  1.4206  0.5185 -0.4513
11877TIP3    H257123   1.498   5.570   5.683 -1.5224 -1.1767  0.5966
11878TIP3   OH257124   5.522   3.566   4.198 -0.0159  0.7757  0.3095
11878TIP3    H157125   5.525   3.579   4.293  0.0250 -0.6264  0.5298
11878TIP3    H257126   5.612   3.577   4.169  0.3870 -0.9885  0.7895
11879TIP3   OH257127   6.221   3.386   4.017  0.0384  0.0836 -0.4757
11879TIP3    H157128   6.176   3.316   4.065 -0.9235  0.9393 -0.1083
11879TIP3    H257129   6.155   3.455   4.008  1.9699  2.6324  2.6142
11880TIP3   OH257130   6.775   5.256   2.057 -0.0963  0.0607  0.1382
11880TIP3    H157131   6.795   5.175   2.102  0.4354 -0.0236 -0.2405
11880TIP3    H257132   6.682   5.248   2.032 -0.5656  0.3579  1.7038
11881TIP3   OH257133   4.042   1.930   6.740  0.1375  0.1371  0.5421
11881TIP3    H157134   4.134   1.941   6.764  0.6126 -0.2257 -0.9995
11881TIP3    H257135   4.013   2.019   6.718  0.0095  0.3062  1.3859
11882TIP3   OH257136   3.322   0.363  12.253 -0.0231 -0.1022  0.5487
11882TIP3    H157137   3.370   0.281  12.259 -0.0322 -0.5300 -2.9236
11882TIP3    H257138   3.271   0.368  12.334  1.7878 -2.2849  1.9153
11883TIP3   OH257139   4.063   2.010  14.645 -0.4636 -0.1823  0.3305
11883TIP3    H157140   4.064   2.041  14.555 -0.0540  0.0613  0.4183
11883TIP3    H257141   4.033   2.086  14.696  2.6941  0.8633  0.8265
11884TIP3   OH257142   6.468   0.802  16.859 -0.3366 -0.2403 -0.2437
11884TIP3    H157143   6.477   0.779  16.766 -1.0979 -2.4400  0.1700
11884TIP3    H257144   6.507   0.729  16.906 -0.6886  0.4560  1.1907
11885TIP3   OH257145   5.187   3.857   2.465 -0.1361 -0.1728 -0.1846
11885TIP3    H157146   5.166   3.874   2.373  2.1869 -1.2986 -1.0286
11885TIP3    H257147   5.182   3.942   2.508  0.9787  0.8161 -1.8941
11886TIP3   OH257148   1.037   6.140   2.957  0.3129  0.1934  0.3833
11886TIP3    H157149   1.007   6.208   3.017  0.2220  1.0948 -0.6336
11886TIP3    H257150   1.089   6.188   2.892  0.4620 -0.7578 -0.2179
11887TIP3   OH257151   3.317   3.304   0.522  0.0811  0.0853  0.4348
11887TIP3    H157152   3.320   3.210   0.507 -0.3792  0.1788 -0.2870
11887TIP3    H257153   3.225   3.323   0.540  0.4294  0.1556  2.2856
11888TIP3   OH257154   4.960   4.045   3.106  0.3404 -0.4212 -0.3215
11888TIP3    H157155   5.030   3.989   3.139  1.4249 -0.0065 -1.8287
11888TIP3    H257156   4.887   3.986   3.090  0.0419 -0.7612  1.9273
11889TIP3   OH257157   3.756   6.016  16.685  0.6716  0.0247  0.5780
11889TIP3    H157158   3.750   6.083  16.617  1.8137  0.4871  0.9135
11889TIP3    H257159   3.665   6.003  16.712  0.2077 -0.0540 -0.9065
11890TIP3   OH257160   5.355   4.391   2.783  0.0516 -0.1322  0.3559
11890TIP3    H157161   5.428   4.415   2.840 -0.6491  1.5605  0.6195
11890TIP3    H257162   5.293   4.463   2.793 -1.1876 -1.0152 -0.6691
11891TIP3   OH257163   1.394   1.483  11.741 -0.1318  0.4701 -0.0346
11891TIP3    H157164   1.482   1.478  11.777 -0.1259  2.1122  0.2484
11891TIP3    H257165   1.336   1.476  11.817 -0.2166  0.3706 -0.1074
11892TIP3   OH257166   0.173   6.472   4.469  0.9612 -0.4490 -0.2025
11892TIP3    H157167   0.221   6.401   4.427 -1.2443 -1.8420 -0.5738
11892TIP3    H257168   0.218   6.552   4.442  3.6040 -1.6666  0.3327
11893TIP3   OH257169   4.641   5.160  16.019 -0.0719 -0.0802  0.4602
11893TIP3    H157170   4.636   5.167  16.114  0.8668  1.3050  0.4484
11893TIP3    H257171   4.655   5.067  16.002 -4.4065 -1.1153  1.3865
11894TIP3   OH257172   3.054   2.410  13.032  0.7323 -0.4875 -0.1630
11894TIP3    H157173   3.006   2.485  13.068 -0.0577  0.4290 -2.8810
11894TIP3    H257174   3.045   2.342  13.098  2.4859  2.0549  3.0284
11895TIP3   OH257175   4.894   0.887   3.441 -0.1091 -0.2549 -0.4084
11895TIP3    H157176   4.810   0.854   3.410 -0.2549 -0.5815  0.3029
11895TIP3    H257177   4.879   0.981   3.454 -0.4405 -0.3465 -0.0801
11896TIP3   OH257178   1.594   5.500   1.505  0.0879  0.0279 -0.0661
11896TIP3    H157179   1.595   5.572   1.568  0.4604  2.5651 -2.7534
11896TIP3    H257180   1.507   5.506   1.465  0.6425 -0.0451 -1.3147
11897TIP3   OH257181   1.948   3.939  11.373 -0.6212  1.0250 -0.4900
11897TIP3    H157182   1.925   3.947  11.465  2.6358  0.7690  0.4902
11897TIP3    H257183   1.950   3.844  11.357 -1.4944  1.0734 -0.9602
11898TIP3   OH257184   5.683   0.010  15.983  0.7088 -0.0039  0.5676
11898TIP3    H157185   5.760   0.056  16.017  0.5079  0.4840  0.3632
11898TIP3    H257186   5.623   0.005  16.057  0.7441  0.0344  0.5990
11899TIP3   OH257187   2.525   6.079  12.202  0.5615 -0.2452 -0.6914
11899TIP3    H157188   2.594   6.031  12.248 -0.3602  0.8591  2.0322
11899TIP3    H257189   2.445   6.060  12.251 -0.0820  2.8016 -0.3383
11900TIP3   OH257190   6.757   6.585   4.460 -0.3669 -0.4913 -0.1953
11900TIP3    H157191   6.822   6.516   4.474  1.1467  0.0572 -3.6348
11900TIP3    H257192   6.768   6.643   4.536  1.0146 -1.9693  0.8231
11901TIP3   OH257193   0.216   4.889   5.468 -0.4280  0.6512  0.4452
11901TIP3    H157194   0.293   4.834   5.481 -1.0048 -0.3202 -0.1327
11901TIP3    H257195   0.216   4.908   5.374  1.1664  3.7910  0.9383
11902TIP3   OH257196   3.077   6.356   4.784 -0.2100  0.4570 -0.3515
11902TIP3    H157197   3.172   6.362   4.773 -0.2844  0.0148 -1.3164
11902TIP3    H257198   3.064   6.287   4.848  0.0450 -1.6975 -2.5016
11903TIP3   OH257199   5.277   0.924   2.482 -0.6813 -0.3424  0.8129
11903TIP3    H157200   5.301   0.940   2.573 -0.5554 -0.5224  0.8126
11903TIP3    H257201   5.328   0.988   2.432 -0.5247 -0.4408  0.8460
11904TIP3   OH257202   6.793   3.879  11.398 -0.5782  0.3777  0.9535
11904TIP3    H157203   6.842   3.811  11.352 -0.9734  0.9711 -0.3773
11904TIP3    H257204   6.825   3.961  11.361 -1.3480  0.8507  1.3132
11905TIP3   OH257205   1.675   4.119  13.791  0.8301  0.3825  0.0746
11905TIP3    H157206   1.580   4.110  13.797  0.8027 -1.1934 -1.6390
11905TIP3    H257207   1.690   4.212  13.778 -0.5356  0.6020 -0.1172
11906TIP3   OH257208   1.022   4.412   5.504  0.3486 -0.0029  0.2731
11906TIP3    H157209   0.944   4.357   5.513  0.1137  0.1842 -0.5405
11906TIP3    H257210   0.989   4.498   5.478  0.8414 -0.0099 -0.4130
11907TIP3   OH257211   4.185   3.705  15.005 -0.3290 -0.0112  0.5175
11907TIP3    H157212   4.116   3.770  14.992 -0.3812 -0.1204  0.2545
11907TIP3    H257213   4.264   3.747  14.970 -0.3635 -0.0912  0.3445
11908TIP3   OH257214   6.721   2.907  13.105 -0.5808 -0.2320 -0.9327
11908TIP3    H157215   6.729   2.844  13.033  0.5109  1.1027 -2.0083
11908TIP3    H257216   6.627   2.925  13.110 -0.8015 -1.2076 -1.2268
11909TIP3   OH257217   1.562   2.945  12.885 -0.0674  0.2727 -0.0502
11909TIP3    H157218   1.618   2.993  12.946  1.2520 -1.1304 -0.1072
11909TIP3    H257219   1.474   2.953  12.922  0.7266 -0.7659  2.2265
11910TIP3   OH257220   3.533   3.385  12.535  0.1390  0.7598  0.7938
11910TIP3    H157221   3.441   3.359  12.542  0.4838 -1.2657 -1.0024
11910TIP3    H257222   3.581   3.322  12.589  0.6950 -0.2938 -0.8367
11911TIP3   OH257223   6.770   0.753   3.550  0.6384 -0.2906 -0.2755
11911TIP3    H157224   6.807   0.808   3.481 -0.7545  0.4579 -0.4585
11911TIP3    H257225   6.799   0.664   3.527  0.7239  0.0249 -1.4825
11912TIP3   OH257226   4.969   6.700  13.919  0.5114  0.8336 -0.6688
11912TIP3    H157227   4.896   6.712  13.979  0.6018  2.0660 -0.7773
11912TIP3    H257228   4.973   6.782  13.870  1.0396  0.2132 -1.6952
11913TIP3   OH257229   0.242   3.746   4.281  0.2228  0.1614  0.0879
11913TIP3    H157230   0.153   3.780   4.281  0.6594  1.3626 -0.3304
11913TIP3    H257231   0.272   3.758   4.371  0.1188  0.1898  0.1188
11914TIP3   OH257232   1.816   5.603  16.812 -0.2282  0.0830  0.3098
11914TIP3    H157233   1.837   5.669  16.746 -2.5207 -0.0807 -0.6832
11914TIP3    H257234   1.888   5.541  16.808  1.3739  1.8430  0.3973
11915TIP3   OH257235   2.720   0.776  15.530  0.3376  0.4678 -0.2569
11915TIP3    H157236   2.687   0.829  15.603  1.0875 -1.9601  2.0047
11915TIP3    H257237   2.662   0.700  15.528  2.3481 -1.1546  0.1266
11916TIP3   OH257238   4.137   6.817  12.141 -0.0242 -0.0022 -0.6911
11916TIP3    H157239   4.126   6.769  12.059 -1.0793  1.3182 -1.3457
11916TIP3    H257240   4.231   6.817  12.156  0.4413  1.5866 -3.0735
11917TIP3   OH257241   1.893   5.206   3.228  0.6617 -1.1280  0.4611
11917TIP3    H157242   1.972   5.260   3.233 -0.5501  0.7666  0.4742
11917TIP3    H257243   1.830   5.251   3.285 -0.8331 -1.8112 -0.5786
11918TIP3   OH257244   2.650   0.796  16.706 -0.0473  0.0544 -0.1781
11918TIP3    H157245   2.625   0.887  16.691 -0.5760  0.1672  1.2272
11918TIP3    H257246   2.724   0.781  16.646 -0.1406  1.3061 -0.6335
11919TIP3   OH257247   2.861   3.098   4.620 -0.1302 -0.2482 -0.4025
11919TIP3    H157248   2.935   3.104   4.560  0.7337 -0.8558  0.5595
11919TIP3    H257249   2.834   3.188   4.634 -0.1736 -0.0794 -1.4689
11920TIP3   OH257250   6.724   5.742   3.920  0.0270  0.6934  0.4105
11920TIP3    H157251   6.752   5.684   3.849 -0.6163  1.8361 -0.8197
11920TIP3    H257252   6.718   5.684   3.997 -0.9898 -0.9535 -0.8437
11921TIP3   OH257253   5.287   1.098  16.608  0.2831  0.1326 -0.2935
11921TIP3    H157254   5.345   1.022  16.597  2.7539  1.3255  2.9187
11921TIP3    H257255   5.264   1.123  16.518  0.7403 -3.3416 -1.5281
11922TIP3   OH257256   3.304   3.807   0.426 -0.4326  0.1583 -0.1728
11922TIP3    H157257   3.342   3.719   0.423  0.4467  0.5430 -0.7893
11922TIP3    H257258   3.252   3.813   0.346  0.4331  0.5877 -0.7190
11923TIP3   OH257259   0.980   2.602  16.105 -0.1309  0.1285  0.2293
11923TIP3    H157260   1.073   2.579  16.105 -0.3293 -0.7182  0.0135
11923TIP3    H257261   0.935   2.520  16.126 -0.8597  0.3604 -0.3707
11924TIP3   OH257262   2.552   1.507  14.940 -0.0101  0.0284 -0.1322
11924TIP3    H157263   2.572   1.468  15.024  1.6594 -1.0355 -0.9819
11924TIP3    H257264   2.612   1.466  14.878 -1.3642  0.5590 -1.9140
11925TIP3   OH257265   3.426   3.327   1.916 -0.6633 -0.1451  0.2662
11925TIP3    H157266   3.403   3.238   1.890  1.4060 -0.7969  0.4732
11925TIP3    H257267   3.430   3.324   2.012 -0.2718  0.0652  0.2591
11926TIP3   OH257268   0.906   0.970  16.179  0.6064 -0.4341 -0.3710
11926TIP3    H157269   0.960   0.922  16.117  1.7028  0.3861 -0.0690
11926TIP3    H257270   0.886   1.053  16.136  1.1366  0.0239  0.2369
11927TIP3   OH257271   0.542   1.117   4.799 -0.0344  0.4373 -0.3478
11927TIP3    H157272   0.597   1.042   4.818  0.2123  0.4306 -1.0549
11927TIP3    H257273   0.456   1.093   4.833  0.3619  0.4093  0.6725
11928TIP3   OH257274   2.526   6.575  14.174 -0.3277  0.1209  0.9022
11928TIP3    H157275   2.611   6.544  14.205  0.5438  0.5811 -0.8781
11928TIP3    H257276   2.492   6.504  14.119  0.4886  1.1819 -1.0830
11929TIP3   OH257277   4.870   0.434   3.451  0.0710 -0.1030 -0.5867
11929TIP3    H157278   4.851   0.433   3.545  0.6393  1.1336 -0.4398
11929TIP3    H257279   4.944   0.494   3.442  0.4554 -0.7213 -1.7542
11930TIP3   OH257280   4.020   1.398  15.181  0.0953  0.1835  0.9827
11930TIP3    H157281   4.112   1.405  15.157  0.4618  0.6276  2.4184
11930TIP3    H257282   3.976   1.463  15.125  0.3453 -1.2291 -0.9703
11931TIP3   OH257283   6.753   0.942  16.670  0.5009  0.5386 -0.1857
11931TIP3    H157284   6.782   0.946  16.761  1.1335  0.6633 -0.3910
11931TIP3    H257285   6.748   1.033  16.641 -1.9595  0.6670  0.4103
11932TIP3   OH257286   0.432   2.550   5.287 -0.2883 -0.3299  0.0061
11932TIP3    H157287   0.427   2.644   5.271 -2.3091 -0.2417  0.8661
11932TIP3    H257288   0.373   2.512   5.222 -1.2979 -0.7650  1.1374
11933TIP3   OH257289   6.595   4.088   4.806  0.3309 -0.3310 -0.0330
11933TIP3    H157290   6.602   4.169   4.756 -0.6225 -1.4727 -2.1188
11933TIP3    H257291   6.524   4.104   4.868  1.8062  1.2454  1.3829
11934TIP3   OH257292   6.417   5.092  14.737 -0.0386 -0.4420  0.7590
11934TIP3    H157293   6.466   5.050  14.808 -0.3742  1.1294  1.9707
11934TIP3    H257294   6.485   5.122  14.676  0.2658 -1.5373  0.5350
11935TIP3   OH257295   2.116   2.681   0.269  0.6114  0.0024  0.1719
11935TIP3    H157296   2.069   2.655   0.190  0.2973 -0.4732  0.5127
11935TIP3    H257297   2.202   2.639   0.261  1.2910  1.4675 -0.8081
11936TIP3   OH257298   4.835   3.234  14.610  0.0564  0.0965 -0.1382
11936TIP3    H157299   4.888   3.159  14.584  0.6304  0.9293 -1.5050
11936TIP3    H257300   4.813   3.218  14.702  1.8684 -0.7287  0.1903
11937TIP3   OH257301   5.752   5.753   0.918 -0.1933  0.2181  0.1336
11937TIP3    H157302   5.660   5.727   0.915 -0.2068  0.2339  0.4754
11937TIP3    H257303   5.770   5.771   1.010  0.7304 -1.8931  0.4255
11938TIP3   OH257304   0.165   6.652  13.025  0.0804 -0.3563  0.2953
11938TIP3    H157305   0.205   6.709  12.959 -1.8422  1.1447  0.3384
11938TIP3    H257306   0.211   6.673  13.106  0.0663  0.4068  0.1124
11939TIP3   OH257307   4.312   6.062   1.868  0.3148 -0.3871 -0.3025
11939TIP3    H157308   4.263   5.980   1.864  0.0861 -0.2165 -1.2668
11939TIP3    H257309   4.246   6.128   1.888  0.7018 -0.5843  1.8450
11940TIP3   OH257310   1.698   0.699   4.848 -0.0797 -0.4646  0.0696
11940TIP3    H157311   1.702   0.701   4.943 -1.0647 -0.7866  0.1234
11940TIP3    H257312   1.718   0.608   4.824 -2.2629 -1.0025  0.1179
11941TIP3   OH257313   1.909   2.891  13.653  1.1491  0.5130  0.0894
11941TIP3    H157314   1.857   2.971  13.656  0.3659  0.1773 -2.6145
11941TIP3    H257315   1.995   2.920  13.623  1.0437  0.4143 -0.3063
11942TIP3   OH257316   4.933   6.545   1.374  0.0753  0.5606  0.4659
11942TIP3    H157317   4.991   6.483   1.418  2.1643  2.5809  0.7218
11942TIP3    H257318   4.913   6.504   1.290 -0.2622 -1.3221  1.4158
11943TIP3   OH257319   5.039   5.346  15.993  0.5219  0.1785  0.1271
11943TIP3    H157320   5.007   5.267  16.036 -2.0009  0.9424 -0.1635
11943TIP3    H257321   4.962   5.403  15.987  2.2374  2.6964  0.3602
11944TIP3   OH257322   4.902   2.046   4.370 -0.2174  0.2848 -0.0573
11944TIP3    H157323   4.818   2.091   4.369 -0.0501  0.6147 -1.1591
11944TIP3    H257324   4.895   1.981   4.300  0.4660  0.3724 -0.2131
11945TIP3   OH257325   2.819   1.198   5.638 -0.1660 -0.0975  0.3806
11945TIP3    H157326   2.873   1.120   5.627  1.7724  1.2488  0.0073
11945TIP3    H257327   2.859   1.264   5.582 -0.1103  1.9684  2.6591
11946TIP3   OH257328   6.472   2.819  11.667 -0.1502  0.1305 -0.1525
11946TIP3    H157329   6.539   2.803  11.733 -0.6845  2.4651  1.0844
11946TIP3    H257330   6.512   2.882  11.607  0.3081 -1.9200 -2.1128
11947TIP3   OH257331   2.182   5.668   4.780  0.3291 -0.2315  0.3274
11947TIP3    H157332   2.262   5.646   4.733  0.5503 -0.0670  0.6190
11947TIP3    H257333   2.200   5.643   4.871 -0.4508 -1.4759  0.1585
11948TIP3   OH257334   3.279   2.285  15.851 -0.1445  0.1915 -0.1737
11948TIP3    H157335   3.306   2.212  15.906 -0.7375 -0.8812 -1.2255
11948TIP3    H257336   3.358   2.311  15.803 -0.1566 -0.4967 -0.5788
11949TIP3   OH257337   6.517   4.051  16.783 -0.7043  0.2473 -0.5967
11949TIP3    H157338   6.497   4.011  16.698 -0.7003 -0.5007 -0.2608
11949TIP3    H257339   6.431   4.068  16.822 -0.7108  1.1112 -0.9817
11950TIP3   OH257340   4.964   5.128  15.670  0.3779 -0.4227  0.0818
11950TIP3    H157341   4.978   5.129  15.764  0.6402  1.2077  0.0456
11950TIP3    H257342   4.963   5.220  15.644  2.0301 -0.8472 -1.7535
11951TIP3   OH257343   4.535   2.020  13.708  0.6216 -0.7160 -0.0999
11951TIP3    H157344   4.501   2.085  13.769  1.7792  1.3519 -1.5438
11951TIP3    H257345   4.482   1.942  13.725 -1.0819  0.6710  1.4525
11952TIP3   OH257346   6.809   3.789   4.182  0.3639  0.2927  0.3243
11952TIP3    H157347   6.836   3.759   4.095  1.7657  1.0783  0.4577
11952TIP3    H257348   6.758   3.868   4.166  0.4298  0.3122  0.2093
11953TIP3   OH257349   6.344   4.319   5.406 -0.2210 -0.0719 -0.0123
11953TIP3    H157350   6.332   4.272   5.324 -0.8813 -2.3345  1.2980
11953TIP3    H257351   6.351   4.250   5.472  1.4916  1.6318  1.7071
11954TIP3   OH257352   5.159   3.885  13.311  0.2662 -0.3317 -0.0787
11954TIP3    H157353   5.221   3.825  13.353  0.1496 -0.6322 -0.3336
11954TIP3    H257354   5.212   3.960  13.285  0.1220  0.5048  1.8362
11955TIP3   OH257355   4.974   0.412   4.321  0.2053  0.1360  0.3121
11955TIP3    H157356   4.963   0.467   4.398 -0.7537 -0.7960  0.8566
11955TIP3    H257357   4.899   0.353   4.322  1.6025 -1.7307  0.2014
11956TIP3   OH257358   5.903   3.311  16.256 -0.3277  0.1954  0.0158
11956TIP3    H157359   5.841   3.377  16.286 -1.7937  0.2886 -2.8813
11956TIP3    H257360   5.984   3.360  16.240 -0.5160  0.7249  0.6466
11957TIP3   OH257361   0.864   0.001   5.446 -0.0203  0.4124  0.2896
11957TIP3    H157362   0.837  -0.091   5.446 -0.2536  0.4779 -0.1148
11957TIP3    H257363   0.783   0.051   5.437  0.2480  0.5868 -1.6779
11958TIP3   OH257364   5.959   4.230  13.910 -0.3954  0.3344 -0.5042
11958TIP3    H157365   6.009   4.149  13.903 -1.1633 -0.2602  0.5519
11958TIP3    H257366   5.870   4.202  13.932 -0.5287  1.4767  0.5405
11959TIP3   OH257367   0.099   1.510   0.719  0.6095 -0.1082  0.1288
11959TIP3    H157368   0.096   1.572   0.646  0.7263  0.6342  0.7286
11959TIP3    H257369   0.100   1.424   0.679  0.1590  0.2788 -0.7261
11960TIP3   OH257370   6.815   3.170   1.496 -0.4062 -0.4367 -0.3311
11960TIP3    H157371   6.843   3.083   1.466  1.4885  0.4922 -1.4729
11960TIP3    H257372   6.896   3.220   1.502 -1.5761  1.6220 -0.8700
11961TIP3   OH257373   4.495   3.205   4.360  0.0997  0.2243 -0.1063
11961TIP3    H157374   4.425   3.204   4.295  0.1906  1.8813 -0.2826
11961TIP3    H257375   4.571   3.171   4.313  0.2621  1.7506 -1.0290
11962TIP3   OH257376   0.571   4.795   4.087 -0.5593 -0.2436  0.0760
11962TIP3    H157377   0.586   4.733   4.016  0.7229 -1.1350  1.0732
11962TIP3    H257378   0.478   4.790   4.105 -0.7733 -0.5393 -1.0478
11963TIP3   OH257379   3.719   0.133  12.283 -0.0681 -0.5169 -0.2266
11963TIP3    H157380   3.637   0.112  12.326  0.4125 -0.4203  0.7709
11963TIP3    H257381   3.747   0.051  12.243 -1.4289 -0.1827 -1.9775
11964TIP3   OH257382   5.560   3.697   3.600  0.3622 -0.1902  0.5715
11964TIP3    H157383   5.568   3.667   3.509  3.6441  0.8797  0.3931
11964TIP3    H257384   5.606   3.630   3.651  2.0766  1.1952  0.9156
11965TIP3   OH257385   2.893   1.199  16.653  0.8924  0.2146 -0.0768
11965TIP3    H157386   2.968   1.243  16.612  1.4965  0.4687  1.2418
11965TIP3    H257387   2.891   1.234  16.742  1.0066 -1.9248  0.8298
11966TIP3   OH257388   5.512   2.007   1.795  0.4777 -0.1196  0.3344
11966TIP3    H157389   5.585   2.038   1.848  0.7520 -0.1418 -0.0263
11966TIP3    H257390   5.536   1.917   1.771  0.3487 -0.1131  0.1795
11967TIP3   OH257391   3.704   4.254   0.877 -0.4266 -0.1093  0.2593
11967TIP3    H157392   3.761   4.244   0.801 -2.7343 -4.1374 -1.2035
11967TIP3    H257393   3.652   4.332   0.857  0.2788 -0.0075 -1.3496
11968TIP3   OH257394   2.980   3.276   3.948 -0.1522 -0.1110 -0.0859
11968TIP3    H157395   2.942   3.191   3.969  1.2021 -0.1310  2.7767
11968TIP3    H257396   3.066   3.276   3.990 -0.2397  2.7647  0.3424
11969TIP3   OH257397   2.433   2.822  16.354 -0.4448 -0.0216 -0.3777
11969TIP3    H157398   2.465   2.735  16.332 -1.7160 -0.3649 -0.9542
11969TIP3    H257399   2.477   2.844  16.436  0.5589 -0.8316 -0.6841
11970TIP3   OH257400   0.907   0.240  16.797  0.5701 -0.1317 -0.4511
11970TIP3    H157401   0.965   0.227  16.872 -1.9259  1.4191  1.9522
11970TIP3    H257402   0.870   0.154  16.779 -0.8675 -0.1167  2.0339
11971TIP3   OH257403   4.834   5.198   0.290  0.1533  0.1927  0.0409
11971TIP3    H157404   4.741   5.174   0.294  0.2864 -0.4931 -0.6694
11971TIP3    H257405   4.835   5.293   0.300 -0.6301  0.2138 -0.0204
11972TIP3   OH257406   0.614   3.474  13.052  0.6037  1.0756 -0.2673
11972TIP3    H157407   0.679   3.543  13.041  0.0310  1.9058  1.1813
11972TIP3    H257408   0.567   3.471  12.969  1.9471  1.0091 -1.0584
11973TIP3   OH257409   2.167   5.449   1.255 -0.9817  0.0437 -0.2195
11973TIP3    H157410   2.250   5.412   1.286 -0.2134  0.9928 -1.0675
11973TIP3    H257411   2.139   5.390   1.185 -1.9496 -1.2562  1.1950
11974TIP3   OH257412   5.936   4.877  16.310  0.2486 -0.2345 -0.0546
11974TIP3    H157413   5.875   4.804  16.304 -0.5384  0.2525  1.4911
11974TIP3    H257414   5.978   4.867  16.395  0.8594  0.5566 -0.2481
11975TIP3   OH257415   3.184   6.169   2.210  0.4827  0.0667 -0.3910
11975TIP3    H157416   3.173   6.154   2.304  1.4302 -0.0608 -0.2894
11975TIP3    H257417   3.153   6.258   2.196  1.9214  0.7059  0.3502
11976TIP3   OH257418   2.799   1.398   4.389  0.0914 -0.5939  0.5002
11976TIP3    H157419   2.891   1.381   4.371  0.0379  0.9266 -1.5764
11976TIP3    H257420   2.791   1.394   4.484  1.9764 -2.1506  0.6463
11977TIP3   OH257421   1.586   3.444   0.763 -0.1284  0.6131 -0.3071
11977TIP3    H157422   1.549   3.369   0.717 -0.5142  0.4398  0.2787
11977TIP3    H257423   1.621   3.407   0.844  0.1159  0.9912 -0.2395
11978TIP3   OH257424   6.042   3.721   4.492  0.6520 -0.3065 -0.3687
11978TIP3    H157425   6.129   3.688   4.473  1.4153 -0.7106  3.1048
11978TIP3    H257426   6.051   3.768   4.575 -2.5428 -1.0163  0.5435
11979TIP3   OH257427   1.478   3.962  12.560  0.3706  0.0879  0.6178
11979TIP3    H157428   1.541   3.994  12.625 -0.8631  2.3728  0.7971
11979TIP3    H257429   1.401   4.017  12.573 -1.1663 -1.6776 -0.5434
11980TIP3   OH257430   3.244   6.183  13.098  0.2088 -0.1313 -0.1858
11980TIP3    H157431   3.322   6.150  13.053  0.5040  1.5762 -0.9896
11980TIP3    H257432   3.172   6.131  13.063  0.8283 -0.8850 -0.3583
11981TIP3   OH257433   0.930   1.781  16.741 -0.2462  0.5681  0.2017
11981TIP3    H157434   0.967   1.839  16.808 -0.7864 -0.0776  1.0883
11981TIP3    H257435   0.840   1.811  16.729 -0.0141  0.9722 -0.5882
11982TIP3   OH257436   6.756   1.308  14.203 -0.5162 -0.2216  0.4387
11982TIP3    H157437   6.663   1.302  14.179 -0.7390  0.8292  0.9481
11982TIP3    H257438   6.788   1.382  14.152 -0.2128  0.0526  1.0199
11983TIP3   OH257439   2.157   1.283  13.858  0.3784  0.2614  0.2895
11983TIP3    H157440   2.197   1.292  13.945 -0.7907 -1.8244  1.1232
11983TIP3    H257441   2.080   1.228  13.873  0.7622 -1.1309 -2.2325
11984TIP3   OH257442   6.586   3.329   0.599  0.2411 -0.2857 -0.1041
11984TIP3    H157443   6.664   3.325   0.654 -0.6261 -0.9932  1.1292
11984TIP3    H257444   6.613   3.379   0.522  2.2493 -1.5596 -0.2963
11985TIP3   OH257445   1.190   0.571   0.758  0.6803 -0.7159 -0.1093
11985TIP3    H157446   1.112   0.555   0.811 -1.6317  1.8275 -2.4570
11985TIP3    H257447   1.256   0.513   0.796 -2.3333 -3.2037  1.8718
11986TIP3   OH257448   5.526   5.719  12.519 -0.1896 -0.2056  0.0826
11986TIP3    H157449   5.482   5.679  12.445  0.4305  0.1115 -0.4720
11986TIP3    H257450   5.499   5.811  12.517  0.4321 -0.0183 -0.2330
11987TIP3   OH257451   5.250   3.460   2.494 -0.1155  0.0107  0.0646
11987TIP3    H157452   5.160   3.471   2.462  0.0468 -0.7550 -0.7065
11987TIP3    H257453   5.248   3.493   2.583 -0.8150  1.3350 -0.4120
11988TIP3   OH257454   2.841   1.388   3.103  0.3255  0.3697 -0.8878
11988TIP3    H157455   2.828   1.461   3.043 -0.6664 -0.5440 -1.8454
11988TIP3    H257456   2.765   1.331   3.088  2.0687 -1.9098 -1.7152
11989TIP3   OH257457   4.248   4.724  13.888  0.4102  0.1346  0.3491
11989TIP3    H157458   4.338   4.755  13.887  0.6929 -0.3077 -3.1927
11989TIP3    H257459   4.197   4.798  13.857  0.1396 -0.6681 -1.2653
11990TIP3   OH257460   0.763   3.831  15.248  0.1880  0.0906 -0.2406
11990TIP3    H157461   0.719   3.862  15.169  0.0504 -1.0302 -0.6321
11990TIP3    H257462   0.720   3.748  15.268  2.3976 -1.3339 -0.9544
11991TIP3   OH257463   0.691   6.312  11.612  0.0405  0.7707  0.1613
11991TIP3    H157464   0.779   6.291  11.643 -0.5467  0.0965  1.4526
11991TIP3    H257465   0.692   6.288  11.519  1.4848  1.6552 -0.0764
11992TIP3   OH257466   0.029   4.821  13.463 -0.6959 -0.5586  0.0633
11992TIP3    H157467   0.121   4.843  13.449 -0.5039 -1.4099 -0.0385
11992TIP3    H257468   0.011   4.851  13.553 -0.8660  1.3439 -0.5443
11993TIP3   OH257469   2.723   2.775  15.483 -0.1800  0.1327 -0.9561
11993TIP3    H157470   2.724   2.706  15.549 -0.9447 -1.1521 -2.2338
11993TIP3    H257471   2.630   2.788  15.464 -0.1394  2.4251  0.1393
11994TIP3   OH257472   4.304   4.415   0.867  0.1858  0.1498  0.0228
11994TIP3    H157473   4.218   4.421   0.825 -0.8550  0.4340  2.0719
11994TIP3    H257474   4.311   4.323   0.892  0.0913  0.3068  0.6277
11995TIP3   OH257475   3.263   3.020   5.386  0.4056 -0.1716  0.4996
11995TIP3    H157476   3.259   3.012   5.291  1.0966 -1.1684  0.5447
11995TIP3    H257477   3.195   3.084   5.407 -2.0895 -2.3182 -0.3789
11996TIP3   OH257478   1.230   0.611  15.308 -0.6891  0.2967  0.4798
11996TIP3    H157479   1.277   0.586  15.229 -1.3997 -0.0225  0.1574
11996TIP3    H257480   1.272   0.559  15.378  0.0867  0.7478  0.3672
11997TIP3   OH257481   6.162   1.213  14.488  0.1965 -0.1141  0.0821
11997TIP3    H157482   6.179   1.305  14.507  0.3795 -0.1211 -0.0504
11997TIP3    H257483   6.067   1.204  14.496  0.1359  0.1778 -0.3246
11998TIP3   OH257484   2.633   5.585   3.194  0.2207  0.6493  0.0391
11998TIP3    H157485   2.609   5.609   3.283  0.4066  2.1318 -0.2829
11998TIP3    H257486   2.553   5.599   3.143  0.3652  0.6816 -0.1795
11999TIP3   OH257487   5.460   1.768  12.230  0.0612  0.0479 -0.2470
11999TIP3    H157488   5.465   1.855  12.189 -1.6722  0.7579  0.9261
11999TIP3    H257489   5.384   1.727  12.189  0.2310 -0.4894 -0.0237
12000TIP3   OH257490   4.136   3.168   4.527 -0.4652  0.6238 -0.5075
12000TIP3    H157491   4.054   3.184   4.480 -0.9361  0.0464  0.0984
12000TIP3    H257492   4.183   3.106   4.471 -1.0401 -0.0900 -0.2282
12001TIP3   OH257493   0.344   3.282   2.646 -0.8619  0.0091  0.4098
12001TIP3    H157494   0.262   3.259   2.688  0.2955  1.8993  4.1509
12001TIP3    H257495   0.403   3.209   2.665 -0.3094  0.9086  2.3867
12002TIP3   OH257496   4.264   1.614  16.810  0.5506  0.3236  0.1426
12002TIP3    H157497   4.344   1.562  16.801 -0.1729 -0.4938 -2.2114
12002TIP3    H257498   4.218   1.574  16.884  1.5036 -0.3112  0.4092
12003TIP3   OH257499   6.024   6.219  13.133  0.1011 -0.0155  0.1051
12003TIP3    H157500   5.962   6.156  13.097 -0.5319  0.3086  0.6161
12003TIP3    H257501   5.981   6.304  13.123  0.0655  0.1157  1.2925
12004TIP3   OH257502   3.254   6.636  15.342  0.9485 -0.4614  0.7144
12004TIP3    H157503   3.185   6.583  15.302 -0.8309  0.3465  2.5446
12004TIP3    H257504   3.331   6.578  15.343  0.0360 -1.7704 -0.4214
12005TIP3   OH257505   3.649   6.072   3.481 -0.7585 -0.1211 -0.1714
12005TIP3    H157506   3.642   6.077   3.386  1.2493 -0.9625 -0.3976
12005TIP3    H257507   3.694   5.989   3.498  1.5364  1.3370  1.3338
12006TIP3   OH257508   6.373   1.491  14.320 -0.8084 -0.6957 -0.0845
12006TIP3    H157509   6.376   1.578  14.281  0.6326 -0.1221  1.2122
12006TIP3    H257510   6.403   1.503  14.409  0.5210 -2.6898 -0.1906
12007TIP3   OH257511   6.690   3.455  12.340  0.1747  0.1184 -0.1986
12007TIP3    H157512   6.729   3.389  12.282  2.3252  2.1571 -1.2072
12007TIP3    H257513   6.688   3.535  12.289 -0.5744  1.3289  1.6162
12008TIP3   OH257514   3.796   3.712  13.726  0.5079 -0.0701  0.1993
12008TIP3    H157515   3.812   3.708  13.632  1.3561  1.2727  0.2544
12008TIP3    H257516   3.701   3.700  13.735  0.3407  0.3268 -0.8714
12009TIP3   OH257517   5.346   3.474  11.350  0.3179 -0.1462  0.3731
12009TIP3    H157518   5.380   3.440  11.267 -0.3027 -0.0672  0.0788
12009TIP3    H257519   5.409   3.540  11.377  1.3556 -1.2538  0.7660
12010TIP3   OH257520   0.061   1.242  15.706 -0.6871 -0.0580 -0.1374
12010TIP3    H157521   0.141   1.290  15.723 -0.1182 -0.7093 -0.8821
12010TIP3    H257522   0.080   1.153  15.735 -1.9500  0.2576  1.8516
12011TIP3   OH257523   1.592   6.297  12.631  0.0319  0.3730 -0.4373
12011TIP3    H157524   1.636   6.381  12.618  0.6776 -0.0221 -0.8745
12011TIP3    H257525   1.526   6.294  12.562 -0.9189  1.1049  0.4104
12012TIP3   OH257526   0.617   3.625  17.031  0.0261 -0.3843 -0.6546
12012TIP3    H157527   0.580   3.614  16.943 -1.4215  0.5015 -0.1923
12012TIP3    H257528   0.639   3.718  17.036 -0.0177 -0.4030 -0.0297
12013TIP3   OH257529   5.903   2.745   2.664 -0.4320  0.0886  0.1995
12013TIP3    H157530   5.819   2.790   2.669  0.3443  1.4914  1.2956
12013TIP3    H257531   5.880   2.652   2.653 -2.0692  0.6822 -2.0093
12014TIP3   OH257532   1.606   6.725   3.520  0.3366  0.0612 -0.1507
12014TIP3    H157533   1.695   6.760   3.527  0.2069  0.4993 -0.6689
12014TIP3    H257534   1.594   6.675   3.601 -0.0765  2.6132  1.4727
12015TIP3   OH257535   6.233   0.506   4.621 -0.1328 -0.0979  0.0666
12015TIP3    H157536   6.285   0.456   4.684  0.6497 -1.0324 -1.2654
12015TIP3    H257537   6.264   0.476   4.536 -2.2954 -0.1065 -0.7868
12016TIP3   OH257538   1.502   2.113   5.777  0.1633  0.4601 -0.3935
12016TIP3    H157539   1.538   2.069   5.854 -1.4761  0.0219  0.1804
12016TIP3    H257540   1.419   2.068   5.762  1.2001 -0.6525 -3.5070
12017TIP3   OH257541   0.957   4.911  14.035  0.6393  0.2376  0.0895
12017TIP3    H157542   1.038   4.910  13.984 -0.1918 -2.9467 -1.4330
12017TIP3    H257543   0.893   4.953  13.977  0.5282  0.0352  0.0668
12018TIP3   OH257544   1.919   5.332  10.999  0.3693 -0.0976  0.0236
12018TIP3    H157545   1.841   5.341  11.054  0.8527 -1.3125  0.9596
12018TIP3    H257546   1.957   5.248  11.026  2.1595  0.6060 -0.2049
12019TIP3   OH257547   3.027   6.740  11.409  0.2824 -0.0271  0.4888
12019TIP3    H157548   3.121   6.738  11.391  0.0299 -1.1097 -0.8863
12019TIP3    H257549   3.002   6.831  11.394  0.7485 -0.1645 -1.3175
12020TIP3   OH257550   1.835   0.274   0.913 -0.2480  0.3732 -0.0852
12020TIP3    H157551   1.778   0.204   0.944  0.5165  0.0667  0.6762
12020TIP3    H257552   1.831   0.269   0.818  0.0388 -0.9114 -0.0389
12021TIP3   OH257553   4.340   5.022   1.987  0.0972  0.0101 -0.7175
12021TIP3    H157554   4.246   5.030   1.970 -0.4185  1.7565  2.2678
12021TIP3    H257555   4.345   4.979   2.072  2.0554 -0.0430 -0.8201
12022TIP3   OH257556   5.971   5.939   3.835  0.7135 -0.8769  0.3634
12022TIP3    H157557   5.887   5.967   3.870  0.7809  2.9980 -1.9885
12022TIP3    H257558   5.948   5.885   3.759 -0.0052  2.6267 -2.1531
12023TIP3   OH257559   0.017   0.762   0.847 -0.4520 -0.4217 -0.1262
12023TIP3    H157560   0.110   0.781   0.832 -0.4670 -0.0472  0.2334
12023TIP3    H257561   0.016   0.679   0.894 -0.2500 -0.0035  0.6384
12024TIP3   OH257562   4.809   1.054   6.211  0.6068  0.3677 -0.6527
12024TIP3    H157563   4.852   1.012   6.136  0.4995  1.9243 -1.6326
12024TIP3    H257564   4.718   1.024   6.205  0.8649 -0.5219 -0.3663
12025TIP3   OH257565   5.240   5.522  13.099  0.2776  0.3488  0.1363
12025TIP3    H157566   5.271   5.611  13.116  1.2306  0.0625 -0.0148
12025TIP3    H257567   5.231   5.483  13.186  2.0367 -0.0975  0.1565
12026TIP3   OH257568   4.456   6.322   5.531  0.3701 -1.1037  0.5566
12026TIP3    H157569   4.388   6.292   5.592 -0.9366 -1.0872 -0.8370
12026TIP3    H257570   4.427   6.291   5.445  2.0009 -0.8532 -0.1318
12027TIP3   OH257571   0.055   1.644   0.479  0.2183 -0.1873  0.3314
12027TIP3    H157572   0.009   1.727   0.464  1.5286  0.2752 -1.4213
12027TIP3    H257573  -0.000   1.577   0.440  0.4350  0.2187 -0.6998
12028TIP3   OH257574   0.525   1.914   4.172 -0.4812 -0.1345 -0.3528
12028TIP3    H157575   0.559   1.866   4.248 -0.2286  0.0822 -0.3271
12028TIP3    H257576   0.544   1.857   4.098  0.9766  0.4784 -0.4780
12029TIP3   OH257577   5.335   3.042  13.113  0.4901 -0.3223  0.3352
12029TIP3    H157578   5.295   3.118  13.069 -3.3552 -2.8475 -1.1063
12029TIP3    H257579   5.330   2.972  13.048  1.0384 -2.5557  2.5654
12030TIP3   OH257580   3.001   4.222  12.120  0.1117  0.2993 -0.1068
12030TIP3    H157581   2.950   4.302  12.127  1.4028  1.0873  0.5065
12030TIP3    H257582   3.091   4.249  12.136  0.4806 -1.4006  0.9328
12031TIP3   OH257583   1.821   6.241   3.476  0.0503  0.4230  0.2229
12031TIP3    H157584   1.854   6.172   3.419 -0.1754 -1.1786  1.9218
12031TIP3    H257585   1.800   6.196   3.558 -0.2704  2.4979  1.3482
12032TIP3   OH257586   3.741   1.413   2.438 -0.9991  0.5135 -0.5076
12032TIP3    H157587   3.823   1.384   2.399  1.2148  1.2914  3.1007
12032TIP3    H257588   3.717   1.491   2.387 -0.4403 -0.6021 -2.6089
12033TIP3   OH257589   4.433   1.656   4.374 -0.0522 -0.0799 -0.5594
12033TIP3    H157590   4.517   1.609   4.374  0.7193  1.1903  1.8801
12033TIP3    H257591   4.448   1.731   4.317 -0.0324 -0.6381 -1.3091
12034TIP3   OH257592   4.262   0.604   2.358  0.3758  0.6554 -0.1012
12034TIP3    H157593   4.280   0.598   2.264 -2.1565 -0.2326 -0.5936
12034TIP3    H257594   4.337   0.561   2.399  1.6633  1.2921 -1.6662
12035TIP3   OH257595   0.227   0.630  14.486 -0.3501 -0.0351 -0.4147
12035TIP3    H157596   0.280   0.555  14.512  0.4836  0.2824 -1.1937
12035TIP3    H257597   0.148   0.622  14.540  0.2945 -0.7333  0.4640
12036TIP3   OH257598   1.782   4.124  12.716  0.2514  0.0009  0.0883
12036TIP3    H157599   1.781   4.176  12.796  2.7095  2.1101 -1.1233
12036TIP3    H257600   1.787   4.188  12.645 -0.3394 -1.8297 -1.6934
12037TIP3   OH257601   0.508   1.051   1.650  0.2072  0.3372  0.4385
12037TIP3    H157602   0.534   1.087   1.565  3.1725 -0.9383  0.6717
12037TIP3    H257603   0.506   0.956   1.636  0.6797  0.1162  1.7573
12038TIP3   OH257604   3.228   4.488   5.740  0.0760  0.1751 -0.1549
12038TIP3    H157605   3.318   4.520   5.748  0.7272 -1.6057  0.2378
12038TIP3    H257606   3.216   4.432   5.817 -0.9698 -0.4984 -0.7761
12039TIP3   OH257607   1.589   1.280   5.977 -0.0268  0.2771 -0.4423
12039TIP3    H157608   1.497   1.305   5.972 -0.5529 -0.6561  2.6054
12039TIP3    H257609   1.595   1.224   6.054  3.0638  0.0670 -0.6947
12040TIP3   OH257610   0.424   1.098   2.510  0.0771  0.5121 -0.0882
12040TIP3    H157611   0.382   1.012   2.509  0.6477  0.2167  0.7142
12040TIP3    H257612   0.353   1.159   2.488  0.0913 -0.3021 -2.8591
12041TIP3   OH257613   4.207   6.669   1.478 -0.0562  0.5796  0.1914
12041TIP3    H157614   4.240   6.581   1.456  0.0758 -0.1467  2.8843
12041TIP3    H257615   4.218   6.719   1.398 -1.2456 -2.1551 -1.8410
12042TIP3   OH257616   6.733   1.514  11.361 -0.1426  0.0172  0.3903
12042TIP3    H157617   6.675   1.535  11.287  0.4239 -0.2626 -0.1401
12042TIP3    H257618   6.737   1.595  11.412  1.4293  1.0155 -1.2164
12043TIP3   OH257619   5.740   2.503  16.455 -0.0236  0.1759  0.4053
12043TIP3    H157620   5.759   2.458  16.373  0.4308 -0.6022  0.9253
12043TIP3    H257621   5.761   2.439  16.523 -0.4015  0.8064  1.1307
12044TIP3   OH257622   3.967   3.649   5.635  0.2192 -0.2778  0.3027
12044TIP3    H157623   4.032   3.581   5.620 -0.6658 -0.9621 -0.5346
12044TIP3    H257624   4.018   3.731   5.636  1.7753 -1.0145  4.2136
12045TIP3   OH257625   4.070   0.880  17.144 -0.1438  0.5389 -0.4332
12045TIP3    H157626   4.023   0.831  17.076  1.0302  0.3534 -1.1429
12045TIP3    H257627   4.082   0.968  17.106  1.2695  0.1940 -0.8803
12046TIP3   OH257628   2.136   1.594  15.723  0.2777  0.2273 -0.6493
12046TIP3    H157629   2.146   1.617  15.630 -2.2110 -0.0602 -1.0520
12046TIP3    H257630   2.157   1.675  15.770 -0.3898  0.9753 -1.5953
12047TIP3   OH257631   2.690   1.713  16.829 -0.1136 -0.2350  0.0570
12047TIP3    H157632   2.727   1.625  16.834 -0.0479 -0.1705  1.0349
12047TIP3    H257633   2.733   1.760  16.901  0.2452  0.7519 -0.7768
12048TIP3   OH257634   0.109   2.272  11.471 -0.0187  0.9096 -0.3432
12048TIP3    H157635   0.174   2.280  11.540  1.0746 -0.9304 -1.0618
12048TIP3    H257636   0.062   2.355  11.471  1.1151  1.5940  1.4229
12049TIP3   OH257637   5.181   1.125   3.862 -0.3508  0.2353 -0.1693
12049TIP3    H157638   5.214   1.109   3.774  0.3978  0.6474  0.0307
12049TIP3    H257639   5.204   1.216   3.881 -0.8234  0.2620  0.3145
12050TIP3   OH257640   1.791   1.392   1.652  0.1315  0.1691  0.1767
12050TIP3    H157641   1.773   1.439   1.733 -1.9797  0.2957 -0.3080
12050TIP3    H257642   1.766   1.301   1.670 -0.9317  0.3095 -0.4671
12051TIP3   OH257643   5.117   5.907   0.718 -0.0600  0.1999  0.3496
12051TIP3    H157644   5.068   5.924   0.638 -1.1465  1.6257  1.2693
12051TIP3    H257645   5.180   5.980   0.723  1.6321 -1.1457 -0.3761
12052TIP3   OH257646   0.344   6.760   3.402  0.4830  0.1110 -0.4128
12052TIP3    H157647   0.398   6.839   3.399 -0.1731  0.7354  1.9399
12052TIP3    H257648   0.256   6.791   3.380 -0.5244  0.9283  3.9362
12053TIP3   OH257649   5.015   6.117   0.198 -0.1422  0.1355  0.3120
12053TIP3    H157650   5.001   6.196   0.145 -2.5985 -0.8628 -0.6766
12053TIP3    H257651   4.983   6.046   0.143 -0.3940 -1.2579  2.1755
12054TIP3   OH257652   5.780   6.270   2.809 -0.4991  0.6556 -0.6052
12054TIP3    H157653   5.748   6.311   2.729 -1.1604 -0.1745 -0.7819
12054TIP3    H257654   5.835   6.198   2.779 -2.0975 -0.7199 -0.3713
12055TIP3   OH257655   3.091   5.156   4.755  0.2629  0.0097 -0.6096
12055TIP3    H157656   3.128   5.158   4.843  2.2715 -0.4804 -1.3777
12055TIP3    H257657   2.998   5.140   4.767  0.2985  1.1236  1.4583
12056TIP3   OH257658   5.528   0.193  12.643  0.2477 -0.0599 -0.4533
12056TIP3    H157659   5.580   0.274  12.647  1.4924 -0.8766  0.5578
12056TIP3    H257660   5.593   0.123  12.650 -0.9407 -1.1250  0.1961
12057TIP3   OH257661   5.765   6.613   6.191 -0.0065  0.1743  0.3673
12057TIP3    H157662   5.706   6.551   6.149 -1.0714 -0.2119  2.3474
12057TIP3    H257663   5.752   6.600   6.285  1.8933  1.3721  0.8511
12058TIP3   OH257664   5.772   5.413  15.259  0.2526  0.2868 -0.0852
12058TIP3    H157665   5.823   5.356  15.317  2.0056  1.3414 -0.5392
12058TIP3    H257666   5.825   5.492  15.250 -0.1845  0.3490 -2.7725
12059TIP3   OH257667   3.320   1.037   0.462  0.1121  0.0224 -0.5027
12059TIP3    H157668   3.251   0.980   0.496 -1.9583  2.1743 -0.8182
12059TIP3    H257669   3.299   1.046   0.369  1.5661 -0.2261 -0.8752
12060TIP3   OH257670   5.007   5.906  13.623  0.2835  0.0947 -0.6185
12060TIP3    H157671   4.972   5.989  13.656  0.6309  0.1966 -0.5019
12060TIP3    H257672   5.102   5.919  13.622  0.4818 -1.0033  1.2734
12061TIP3   OH257673   1.246   6.551  13.110 -0.0148 -0.3189 -0.0873
12061TIP3    H157674   1.207   6.523  13.027  0.4058 -0.5871 -0.1948
12061TIP3    H257675   1.333   6.511  13.110 -0.1237 -0.5559  0.6130
12062TIP3   OH257676   4.882   0.173   1.778  0.0176 -0.0580  0.1974
12062TIP3    H157677   4.879   0.105   1.845 -0.2396  2.5869  3.1263
12062TIP3    H257678   4.974   0.197   1.771  0.2032 -1.1021 -1.3472
12063TIP3   OH257679   1.767   0.285  11.868  0.1463  0.1347 -0.2945
12063TIP3    H157680   1.769   0.196  11.904  0.3420 -0.1516 -0.9801
12063TIP3    H257681   1.788   0.341  11.942  0.3090 -0.4160  0.0881
12064TIP3   OH257682   3.118   2.871   1.241  0.2045 -0.3314  0.2423
12064TIP3    H157683   3.141   2.961   1.264  0.5013 -0.5437  0.7982
12064TIP3    H257684   3.196   2.836   1.197  0.5265 -0.6788  1.0693
12065TIP3   OH257685   1.556   1.264   3.353  0.0933 -0.0538 -0.3200
12065TIP3    H157686   1.551   1.348   3.307 -1.8717  0.1428  0.1507
12065TIP3    H257687   1.584   1.202   3.286  3.5893  1.1969 -0.2461
12066TIP3   OH257688   2.349   3.568  15.803  0.0545 -0.4057  0.3689
12066TIP3    H157689   2.256   3.567  15.822  0.1619  0.8970  1.0787
12066TIP3    H257690   2.391   3.541  15.884  0.2826 -1.7419 -0.1768
12067TIP3   OH257691   3.373   3.576  14.118  0.0247  0.7307 -0.0461
12067TIP3    H157692   3.369   3.482  14.105 -1.0968  0.5894  1.0891
12067TIP3    H257693   3.374   3.588  14.213 -0.2376  1.8681 -0.1619
12068TIP3   OH257694   2.865   1.331  12.709  0.3847  0.2703 -0.0894
12068TIP3    H157695   2.777   1.354  12.739  0.1467 -2.1352  1.3191
12068TIP3    H257696   2.854   1.245  12.668  1.9181  0.4316 -0.9037
12069TIP3   OH257697   2.018   4.456  17.131 -0.4543  0.1255 -0.1898
12069TIP3    H157698   1.974   4.541  17.128 -1.9186 -0.1780  4.7077
12069TIP3    H257699   1.947   4.392  17.127  0.4639 -0.8643 -1.6930
12070TIP3   OH257700   3.782   0.884   5.197  0.3832  0.4259  0.3201
12070TIP3    H157701   3.737   0.966   5.180  0.0597  0.2783  0.4570
12070TIP3    H257702   3.831   0.867   5.116 -4.4497 -2.4306 -2.5316
12071TIP3   OH257703   0.555   4.963   5.464 -0.3044 -0.1148 -0.6467
12071TIP3    H157704   0.601   5.002   5.538  1.2750 -2.7859 -0.0822
12071TIP3    H257705   0.490   5.028   5.439  2.1227  2.8457  0.1151
12072TIP3   OH257706   0.153   4.381  11.995  0.4176  0.4317  0.7102
12072TIP3    H157707   0.063   4.359  12.019  0.3465  1.2064  1.1945
12072TIP3    H257708   0.187   4.302  11.954 -0.9575  0.5845 -0.8379
12073TIP3   OH257709   2.215   5.462  11.568  0.0926  0.1507 -0.2601
12073TIP3    H157710   2.203   5.427  11.480 -0.2315  0.2397 -0.2538
12073TIP3    H257711   2.180   5.394  11.626  0.6916 -0.0898 -0.1750
12074TIP3   OH257712   3.522   0.166  13.646 -0.1022  0.2380 -0.0749
12074TIP3    H157713   3.494   0.147  13.736 -1.0732 -2.6387 -0.8659
12074TIP3    H257714   3.457   0.228  13.614  0.1411  1.1484  1.1242
12075TIP3   OH257715   3.800   1.825  13.448  0.4207  0.2062  0.0838
12075TIP3    H157716   3.811   1.902  13.504 -1.6691  1.4269 -1.0357
12075TIP3    H257717   3.851   1.845  13.370  0.9772 -0.1742  0.3469
12076TIP3   OH257718   6.369   5.924   3.548  0.2089  0.3414 -0.0754
12076TIP3    H157719   6.350   6.006   3.595 -1.6144 -1.5130  2.6862
12076TIP3    H257720   6.458   5.901   3.574  0.3807  0.9491 -0.1084
12077TIP3   OH257721   5.201   2.026  15.830 -0.1810  0.4303  0.2992
12077TIP3    H157722   5.139   2.098  15.834 -1.3369 -0.5931  1.4405
12077TIP3    H257723   5.257   2.037  15.907 -0.3163  0.1499  0.4399
12078TIP3   OH257724   0.754   2.317  11.017 -0.7926  0.2183 -0.8118
12078TIP3    H157725   0.666   2.329  10.981 -1.2462 -1.3752 -0.3150
12078TIP3    H257726   0.806   2.285  10.943 -0.6976  0.8549 -1.0264
12079TIP3   OH257727   4.335   6.486   3.326 -0.0789 -0.2608  0.2568
12079TIP3    H157728   4.309   6.578   3.325  0.7471  0.0345  2.2717
12079TIP3    H257729   4.261   6.440   3.285 -0.2644  1.3159 -1.2703
12080TIP3   OH257730   1.994   3.904   4.648 -0.2907 -0.1958 -0.0090
12080TIP3    H157731   1.908   3.867   4.628 -0.2263  0.1529 -0.9958
12080TIP3    H257732   1.982   3.950   4.730 -0.8481 -0.8047  0.2613
12081TIP3   OH257733   2.621   5.280   1.624  0.0769  0.1889 -0.6018
12081TIP3    H157734   2.574   5.340   1.682 -1.1570 -1.2609 -0.0295
12081TIP3    H257735   2.581   5.195   1.641  2.1572 -0.9215 -0.9627
12082TIP3   OH257736   0.915   2.250  15.677 -0.0434 -0.5054  0.2949
12082TIP3    H157737   0.989   2.228  15.620 -0.3375  0.5869 -0.5304
12082TIP3    H257738   0.952   2.314  15.739 -0.5878  1.0665 -0.9507
12083TIP3   OH257739   4.433   4.473   4.005 -0.2059 -0.2595 -0.0003
12083TIP3    H157740   4.430   4.477   4.100 -1.6682  0.4775 -0.0503
12083TIP3    H257741   4.346   4.503   3.976  0.2073 -0.4428 -1.5622
12084TIP3   OH257742   1.107   1.634   0.885  0.0051 -0.1788  0.1054
12084TIP3    H157743   1.061   1.712   0.916  0.4090  0.6398 -1.2583
12084TIP3    H257744   1.165   1.666   0.815  1.1911 -1.4888  0.4391
12085TIP3   OH257745   6.359   5.284   0.160  0.5141 -0.1785 -0.2945
12085TIP3    H157746   6.425   5.353   0.160 -0.4131  0.7292  0.6417
12085TIP3    H257747   6.407   5.206   0.132  2.1205  0.3345  0.8833
12086TIP3   OH257748   0.327   4.947  15.986 -0.4479  0.2972  0.2746
12086TIP3    H157749   0.310   4.881  15.918  1.0814 -0.5049  0.6227
12086TIP3    H257750   0.353   5.025  15.937 -1.3070  0.3381 -0.1185
12087TIP3   OH257751   5.729   3.516  14.293 -0.2505  0.0625 -0.2629
12087TIP3    H157752   5.788   3.516  14.368 -0.6128 -2.1995  0.1061
12087TIP3    H257753   5.649   3.557  14.325  0.0483  0.3245  0.1636
12088TIP3   OH257754   3.787   4.321  17.015  0.2951  0.2085  0.1108
12088TIP3    H157755   3.729   4.359  16.949 -0.1902 -0.4040  0.1712
12088TIP3    H257756   3.817   4.239  16.975 -0.1961 -0.2922  0.7277
12089TIP3   OH257757   1.841   4.844  11.609  0.0259 -0.2894 -0.9292
12089TIP3    H157758   1.883   4.762  11.583  2.1107  0.9478 -1.7052
12089TIP3    H257759   1.778   4.862  11.538 -0.9902 -1.5375 -0.3859
12090TIP3   OH257760   3.010   4.695  16.234 -0.6906 -0.1416 -0.5000
12090TIP3    H157761   2.989   4.783  16.205 -0.8165 -0.4267 -1.2976
12090TIP3    H257762   2.933   4.667  16.283 -0.4605  0.3585  0.1613
12091TIP3   OH257763   6.555   1.108   4.825 -0.1483 -0.2023  0.1984
12091TIP3    H157764   6.564   1.174   4.894 -0.8321  0.9263 -0.7514
12091TIP3    H257765   6.460   1.096   4.816 -0.0303 -2.2284  1.1635
12092TIP3   OH257766   6.650   0.310   0.764  0.6244  0.0217 -0.3264
12092TIP3    H157767   6.617   0.237   0.817 -0.2301 -0.4323 -1.4628
12092TIP3    H257768   6.744   0.293   0.758  0.2775 -1.8160 -1.7357
12093TIP3   OH257769   5.365   2.931   1.664 -0.4562  0.0438 -0.1037
12093TIP3    H157770   5.305   2.944   1.591 -1.2941  0.2378  0.5943
12093TIP3    H257771   5.309   2.900   1.736  0.5998 -2.0037 -0.0647
12094TIP3   OH257772   0.457   6.372   3.045 -0.9458 -0.4474 -0.0495
12094TIP3    H157773   0.531   6.390   2.987 -1.9934  0.4738 -1.1576
12094TIP3    H257774   0.483   6.410   3.129 -1.2882  2.5295 -1.1745
12095TIP3   OH257775   4.238   6.122  16.056  0.4264  0.1080  0.2694
12095TIP3    H157776   4.182   6.117  16.134 -1.1518 -0.2201 -0.8236
12095TIP3    H257777   4.269   6.033  16.044  0.3039  0.0632  0.2758
12096TIP3   OH257778   1.586   1.989   4.104  0.0758 -0.2800  0.2670
12096TIP3    H157779   1.540   2.065   4.069  2.3214  0.4447 -1.3118
12096TIP3    H257780   1.631   2.022   4.182 -0.2155 -0.3970  0.4852
12097TIP3   OH257781   5.732   3.187   1.763 -0.1674 -0.1450  0.3599
12097TIP3    H157782   5.686   3.194   1.680  0.5778 -0.6089 -0.1101
12097TIP3    H257783   5.676   3.132   1.818 -0.0972 -0.8582 -0.2653
12098TIP3   OH257784   6.480   0.666   4.433 -0.1705 -0.1029 -0.4812
12098TIP3    H157785   6.471   0.571   4.434 -0.0190 -0.1154 -0.4135
12098TIP3    H257786   6.563   0.684   4.477  0.7449 -0.0388 -2.1376
12099TIP3   OH257787   1.883   5.520   2.424 -0.5965 -0.1409  0.1022
12099TIP3    H157788   1.858   5.440   2.468 -0.8512  0.6349  1.4223
12099TIP3    H257789   1.851   5.510   2.334 -0.7980 -1.4104  0.3103
12100TIP3   OH257790   4.182   3.887  12.678  0.1964 -0.2430 -0.4013
12100TIP3    H157791   4.221   3.809  12.716  2.5569  0.2371 -1.6796
12100TIP3    H257792   4.223   3.896  12.592  1.0416  3.1099  0.1994
12101TIP3   OH257793   6.478   4.825  12.662 -0.0215 -0.1281  0.2748
12101TIP3    H157794   6.475   4.757  12.596  1.7380 -0.7406  0.7864
12101TIP3    H257795   6.533   4.789  12.732 -1.2372  0.7783  1.7565
12102TIP3   OH257796   2.208   2.414   2.924  1.0768  0.0089  0.5223
12102TIP3    H157797   2.226   2.413   2.830  0.7772  0.1157  0.4602
12102TIP3    H257798   2.251   2.335   2.958  2.2443  0.6265  0.5053
12103TIP3   OH257799   5.325   3.598   1.028 -0.1312 -0.3830  0.3424
12103TIP3    H157800   5.407   3.636   0.997 -1.0902  1.4806 -0.0899
12103TIP3    H257801   5.319   3.626   1.119 -1.0465  0.9843 -0.0968
12104TIP3   OH257802   2.923   4.617  14.278  0.2524  0.0432 -0.0143
12104TIP3    H157803   2.836   4.601  14.315 -0.2406  2.5775  0.0965
12104TIP3    H257804   2.909   4.616  14.183  0.4136 -0.8850 -0.0441
12105TIP3   OH257805   0.361   4.923  11.715  0.1768 -0.0183 -0.0323
12105TIP3    H157806   0.426   4.880  11.771  0.8277 -0.1628 -0.8771
12105TIP3    H257807   0.390   4.904  11.625  0.0940  1.6194 -0.4354
12106TIP3   OH257808   6.168   4.851  10.274 -0.5743  0.6439 -0.0228
12106TIP3    H157809   6.076   4.877  10.276 -0.5288  0.7741  0.4377
12106TIP3    H257810   6.216   4.933  10.286 -0.4226  0.4023  1.0562
12107TIP3   OH257811   6.189   1.079  11.115  0.0265 -0.0330  0.0135
12107TIP3    H157812   6.281   1.092  11.092 -0.2493  1.6025 -0.2892
12107TIP3    H257813   6.141   1.105  11.036 -0.6985 -1.1241  0.0723
12108TIP3   OH257814   5.700   5.760   3.494  0.4506  0.0124  0.1518
12108TIP3    H157815   5.712   5.795   3.406 -0.5056  2.6185  0.9534
12108TIP3    H257816   5.632   5.694   3.485  1.4409 -0.8717 -1.2642
12109TIP3   OH257817   1.942   5.140   1.766 -0.1988 -0.4989 -0.1788
12109TIP3    H157818   1.940   5.184   1.681 -1.9353  0.4308  0.2961
12109TIP3    H257819   1.971   5.051   1.746 -0.6370 -0.3259 -1.7519
12110TIP3   OH257820   2.137   2.979  15.475 -0.0695 -0.4527 -0.2241
12110TIP3    H157821   2.169   3.066  15.452  1.6895 -0.9996  0.0297
12110TIP3    H257822   2.060   2.966  15.420 -1.6313  2.0575  1.1777
12111TIP3   OH257823   0.988   6.530  10.441  0.0888 -0.1365 -0.1168
12111TIP3    H157824   0.910   6.510  10.493 -0.8340 -0.8628 -1.7043
12111TIP3    H257825   1.061   6.519  10.502 -0.9366 -1.0481  0.9925
12112TIP3   OH257826   2.026   0.881  12.485  0.6154 -0.3210  0.0560
12112TIP3    H157827   2.033   0.837  12.569 -2.3491 -1.4455 -0.1773
12112TIP3    H257828   2.079   0.828  12.425  0.5151 -1.1226  0.6633
12113TIP3   OH257829   3.345   4.327  15.645 -0.3456 -0.0427 -0.0305
12113TIP3    H157830   3.316   4.392  15.709 -0.2579  0.9991 -1.0196
12113TIP3    H257831   3.274   4.263  15.641 -0.4429 -0.0019  0.9384
12114TIP3   OH257832   1.003   6.176  12.629 -0.6712  0.2199  0.1685
12114TIP3    H157833   0.948   6.139  12.559  2.2425 -0.6432 -1.8545
12114TIP3    H257834   1.003   6.270  12.612  0.8348 -0.0667 -1.7678
12115TIP3   OH257835   4.945   6.491  14.228 -0.4444 -0.0544  0.4719
12115TIP3    H157836   4.912   6.573  14.192 -0.7347 -0.3195  0.1199
12115TIP3    H257837   4.994   6.516  14.306  0.8281  0.6053 -0.5111
12116TIP3   OH257838   6.560   4.927   2.096  0.1532 -0.0220  0.5149
12116TIP3    H157839   6.551   4.850   2.151 -1.7616 -1.4654 -1.6121
12116TIP3    H257840   6.475   4.970   2.100  0.8421  1.3934  0.7687
12117TIP3   OH257841   6.560   5.843  15.522 -0.0413 -0.0193  0.4329
12117TIP3    H157842   6.582   5.785  15.449 -0.4377  0.9502 -0.4872
12117TIP3    H257843   6.628   5.827  15.587  1.8830  0.9809 -1.2401
12118TIP3   OH257844   4.943   2.729   3.655 -0.4831 -0.7852  0.3093
12118TIP3    H157845   4.989   2.812   3.668 -0.0990 -0.4519 -2.5025
12118TIP3    H257846   5.010   2.662   3.667 -0.2242 -0.5331  0.2834
12119TIP3   OH257847   0.942   5.804  15.323 -0.4370  0.4409 -0.0273
12119TIP3    H157848   0.932   5.730  15.263 -0.9479 -0.2429  0.8887
12119TIP3    H257849   0.869   5.796  15.384  1.0504  0.0811  1.7980
12120TIP3   OH257850   6.040   2.412  12.843  0.4856  0.2847  0.5829
12120TIP3    H157851   6.025   2.500  12.810  2.2950  0.7081  0.7512
12120TIP3    H257852   5.981   2.404  12.918 -0.5669  0.8915 -0.1687
12121TIP3   OH257853   0.787   0.047   5.827  0.3740 -0.1918  0.2323
12121TIP3    H157854   0.747  -0.032   5.864  0.5512 -1.1154 -1.4618
12121TIP3    H257855   0.879   0.024   5.815  0.4407  0.2948 -0.2170
12122TIP3   OH257856   1.612   0.480  15.828 -0.8360  0.4574  0.3338
12122TIP3    H157857   1.685   0.447  15.776 -1.2307 -0.5667  0.4203
12122TIP3    H257858   1.637   0.570  15.849 -0.2447  0.5777 -0.8218
12123TIP3   OH257859   2.651   0.034   6.612  0.0473  0.6582 -0.1412
12123TIP3    H157860   2.634   0.100   6.544 -0.2467  0.9472  0.2069
12123TIP3    H257861   2.564   0.000   6.634  0.3010 -0.7737 -1.2245
12124TIP3   OH257862   0.768   3.540   2.542 -0.3025  0.2522 -0.1908
12124TIP3    H157863   0.760   3.456   2.497  1.5060  0.3255 -0.7437
12124TIP3    H257864   0.759   3.605   2.472 -0.0317  0.4595 -0.0354
12125TIP3   OH257865   3.188   0.264   2.051  0.0268  0.0457 -0.5723
12125TIP3    H157866   3.228   0.214   1.980 -0.3126  1.0816 -1.5192
12125TIP3    H257867   3.146   0.339   2.007 -1.9958 -0.3957  0.4915
12126TIP3   OH257868   3.044   6.018  16.326 -0.0231  0.0876 -0.0752
12126TIP3    H157869   3.119   5.961  16.308  0.8422  0.3117  2.4621
12126TIP3    H257870   3.082   6.106  16.334 -0.8893  0.5411 -0.7787
12127TIP3   OH257871   2.341   0.141   2.863 -0.3402  0.2219 -0.3230
12127TIP3    H157872   2.343   0.141   2.959 -0.5693 -0.4667 -0.3096
12127TIP3    H257873   2.369   0.229   2.838 -0.9750  0.6456  0.3942
12128TIP3   OH257874   6.460   0.290  16.469  0.2228 -0.5048 -0.7647
12128TIP3    H157875   6.416   0.247  16.542  1.6394  0.3218  0.6531
12128TIP3    H257876   6.509   0.220  16.426  1.5617 -0.5945  0.7966
12129TIP3   OH257877   2.069   3.533  11.533 -0.6408 -0.5502 -0.2310
12129TIP3    H157878   2.118   3.458  11.566  0.9590 -0.1351 -1.5004
12129TIP3    H257879   2.114   3.557  11.452  0.3249  3.1153  1.1831
12130TIP3   OH257880   0.677   1.907  12.828 -0.3093  0.2876  0.0418
12130TIP3    H157881   0.613   1.885  12.896  1.3424  0.7582  1.8459
12130TIP3    H257882   0.721   1.985  12.861  1.4493 -0.2304 -0.9172
12131TIP3   OH257883   4.409   0.544  15.797 -0.0858  0.1384 -0.0546
12131TIP3    H157884   4.343   0.574  15.735 -0.6744 -0.2043  0.4029
12131TIP3    H257885   4.454   0.625  15.824 -0.3910  0.3851 -0.2691
12132TIP3   OH257886   0.304   1.153   2.917 -0.3319 -0.2014 -0.0556
12132TIP3    H157887   0.293   1.248   2.912 -1.0041 -0.3459 -1.7610
12132TIP3    H257888   0.389   1.141   2.961 -0.0925  1.1838 -0.0961
12133TIP3   OH257889   2.421   1.972   5.448 -0.1884 -0.3781 -0.3697
12133TIP3    H157890   2.346   2.018   5.486 -2.5969 -3.4340 -0.9897
12133TIP3    H257891   2.418   1.996   5.355 -0.2310 -0.3016 -0.3489
12134TIP3   OH257892   0.394   3.672  11.333  0.0412 -0.1600  0.4804
12134TIP3    H157893   0.387   3.580  11.306 -0.4903 -0.7597  2.4691
12134TIP3    H257894   0.336   3.719  11.274 -1.6559 -1.4918  1.0068
12135TIP3   OH257895   4.626   4.647   3.863  0.2297 -0.2926  0.4766
12135TIP3    H157896   4.672   4.621   3.783  1.2042  0.5016  0.7567
12135TIP3    H257897   4.553   4.586   3.869  0.5746 -0.8501 -0.6139
12136TIP3   OH257898   3.849   6.269   2.953 -0.0052  0.8173 -0.0318
12136TIP3    H157899   3.761   6.230   2.954  0.5815 -0.6053 -0.9667
12136TIP3    H257900   3.875   6.267   2.860  1.1885  0.7894  0.2889
12137TIP3   OH257901   5.388   3.981   5.893 -0.3926 -0.4956  0.1036
12137TIP3    H157902   5.420   3.998   5.804  0.5087 -0.7811  0.3580
12137TIP3    H257903   5.389   4.067   5.935 -0.8263 -0.3584 -0.1577
12138TIP3   OH257904   2.318   6.477   0.551 -0.0884  0.9457  0.3983
12138TIP3    H157905   2.247   6.516   0.500  0.1945 -0.0525 -0.8082
12138TIP3    H257906   2.384   6.546   0.556 -0.0665  1.0257 -0.7256
12139TIP3   OH257907   2.599   5.999   2.674  0.3668 -0.6675 -0.7709
12139TIP3    H157908   2.515   6.015   2.715 -0.6055 -0.0168 -2.8572
12139TIP3    H257909   2.578   5.983   2.582  2.3335 -2.8012 -0.9558
12140TIP3   OH257910   5.152   6.533  13.301  0.0877 -0.3468  0.3009
12140TIP3    H157911   5.111   6.604  13.251  0.5339  0.5127  1.1304
12140TIP3    H257912   5.142   6.559  13.393 -1.2429 -2.1877  0.7224
12141TIP3   OH257913   2.422   4.870  16.778  0.2078 -0.3637  0.0435
12141TIP3    H157914   2.406   4.844  16.869 -0.9996 -0.4200 -0.1797
12141TIP3    H257915   2.407   4.790  16.728  1.1973 -0.4176 -0.1949
12142TIP3   OH257916   1.139   1.994  15.001  0.5222  0.5437  0.0516
12142TIP3    H157917   1.119   1.904  15.027 -0.8603  1.0601  0.8909
12142TIP3    H257918   1.178   1.985  14.914 -0.5585 -0.8032 -0.3403
12143TIP3   OH257919   0.312   2.489  15.407  0.0336 -0.8344  0.0180
12143TIP3    H157920   0.315   2.411  15.462 -1.0245 -0.6950  0.2974
12143TIP3    H257921   0.316   2.562  15.468  2.0488 -0.6149 -0.2936
12144TIP3   OH257922   1.173   3.951   5.125 -0.1643  0.3162 -0.5244
12144TIP3    H157923   1.135   3.873   5.086 -0.5601 -0.2016  0.8448
12144TIP3    H257924   1.237   3.982   5.060  1.1415 -2.0293 -0.4582
12145TIP3   OH257925   5.315   0.066  11.375 -0.7952 -0.5588  0.7794
12145TIP3    H157926   5.306   0.115  11.457  0.0533 -0.6770  0.9507
12145TIP3    H257927   5.398   0.019  11.384 -1.0278 -1.1096  0.1302
12146TIP3   OH257928   0.260   2.834   0.788  0.0680  0.3913 -0.1673
12146TIP3    H157929   0.242   2.924   0.814 -0.6852 -0.0167  0.7892
12146TIP3    H257930   0.181   2.786   0.813  0.5548 -0.5743 -0.4499
12147TIP3   OH257931   0.231   4.215  14.737 -0.2280 -0.4021 -0.4847
12147TIP3    H157932   0.290   4.290  14.731 -1.5921  0.9768  1.6433
12147TIP3    H257933   0.145   4.251  14.716 -1.0251 -1.1319  1.2819
12148TIP3   OH257934   5.311   6.423  16.845 -0.1103 -0.3381  0.5481
12148TIP3    H157935   5.226   6.384  16.826 -1.2138  0.4072  3.4383
12148TIP3    H257936   5.292   6.516  16.858  1.7806  0.5370 -2.0495
12149TIP3   OH257937   3.564   3.650   4.661  0.0328 -0.5303  0.4180
12149TIP3    H157938   3.551   3.726   4.719 -1.7937  0.7359 -1.5373
12149TIP3    H257939   3.488   3.649   4.604  1.3779 -2.1705 -1.5016
12150TIP3   OH257940   1.198   1.632  14.446 -0.0985 -0.1296  0.1713
12150TIP3    H157941   1.227   1.544  14.474 -1.3921 -0.7999 -0.5160
12150TIP3    H257942   1.105   1.634  14.467 -0.6149  0.1991 -1.9348
12151TIP3   OH257943   1.984   4.050   2.788  0.2163 -0.7617  0.8079
12151TIP3    H157944   2.069   4.007   2.779  1.0650  0.6881  1.4951
12151TIP3    H257945   2.001   4.141   2.764 -1.4474 -0.6993 -0.2828
12152TIP3   OH257946   2.643   6.095  16.709  0.0737  0.0187  0.0451
12152TIP3    H157947   2.572   6.057  16.658  0.0407 -1.5740  1.1832
12152TIP3    H257948   2.722   6.079  16.657 -0.0361 -1.0225  0.1768
12153TIP3   OH257949   5.284   2.644   1.326 -0.4811  0.4070  0.2952
12153TIP3    H157950   5.250   2.733   1.315 -1.5620 -0.1415 -1.2294
12153TIP3    H257951   5.346   2.651   1.398 -0.4364  2.4202  0.1351
12154TIP3   OH257952   2.863   4.523  16.394  0.4373  0.3831 -0.4437
12154TIP3    H157953   2.838   4.441  16.436  2.4685 -0.5663 -0.9692
12154TIP3    H257954   2.899   4.576  16.465 -1.6886  1.2436  0.0676
12155TIP3   OH257955   5.393   0.104   0.730 -0.4602  0.3183 -0.7047
12155TIP3    H157956   5.344   0.026   0.756 -0.7962  0.3747 -1.1604
12155TIP3    H257957   5.431   0.082   0.645  0.2113  0.3173 -0.4080
12156TIP3   OH257958   1.794   1.938   1.884 -0.3697  0.5764 -0.4369
12156TIP3    H157959   1.761   1.995   1.954  1.7969 -0.0586  1.2436
12156TIP3    H257960   1.865   1.989   1.844  1.0472 -0.5488  0.5451
12157TIP3   OH257961   4.470   1.347  16.427  0.1660  0.1694  0.2907
12157TIP3    H157962   4.489   1.360  16.334  1.9526  0.3665  0.6529
12157TIP3    H257963   4.374   1.351  16.432 -0.1962 -2.2952 -1.9065
12158TIP3   OH257964   0.251   1.826   4.124 -0.0382  0.0735  0.4534
12158TIP3    H157965   0.327   1.805   4.177  1.0102 -0.6315 -1.2418
12158TIP3    H257966   0.275   1.799   4.035 -1.9968  0.4855 -0.2640
12159TIP3   OH257967   1.555   1.527   4.939  0.0888 -0.0082  0.3127
12159TIP3    H157968   1.555   1.616   4.975 -1.3777 -0.2877  1.1165
12159TIP3    H257969   1.510   1.475   5.006  0.7032 -1.3054 -0.2565
12160TIP3   OH257970   1.190   1.561   2.509  0.4015 -0.2863 -0.1453
12160TIP3    H157971   1.275   1.527   2.537  0.3399 -0.6323 -0.3747
12160TIP3    H257972   1.158   1.496   2.447 -1.2677 -1.6033  1.9595
12161TIP3   OH257973   3.888   2.630  11.825  0.0014  0.3097 -0.4482
12161TIP3    H157974   3.917   2.565  11.889 -0.3685  0.3674 -0.2208
12161TIP3    H257975   3.813   2.590  11.782  0.3762  0.1836 -0.9966
12162TIP3   OH257976   3.124   3.520   4.796  0.2968 -0.2478  0.3972
12162TIP3    H157977   3.040   3.565   4.796  0.7299  0.6013  0.1730
12162TIP3    H257978   3.153   3.524   4.705  0.0490 -1.5785  0.2516
12163TIP3   OH257979   5.742   3.211  15.098 -0.1721 -0.0396 -0.5579
12163TIP3    H157980   5.658   3.189  15.059 -0.8915 -1.5602  1.6740
12163TIP3    H257981   5.740   3.307  15.108 -2.8571 -0.2133  1.8513
12164TIP3   OH257982   1.568   3.005  11.090 -0.2581  0.4104 -0.2502
12164TIP3    H157983   1.647   3.046  11.055 -0.6866  1.8183  0.3559
12164TIP3    H257984   1.582   2.911  11.079  0.9798  0.6961 -1.2336
12165TIP3   OH257985   6.721   5.286  13.949 -0.3999 -0.4448  0.1863
12165TIP3    H157986   6.696   5.243  13.868  1.0275 -0.5430 -0.2263
12165TIP3    H257987   6.789   5.229  13.987  1.1606  1.1350 -0.1154
12166TIP3   OH257988   3.621   0.341  16.784 -0.3972 -0.3500  0.2838
12166TIP3    H157989   3.527   0.320  16.787 -0.5151 -0.1329 -1.1158
12166TIP3    H257990   3.641   0.347  16.690  0.7276  0.9315  0.5790
12167TIP3   OH257991   4.749   1.065  14.197 -0.3425  0.1117 -0.2382
12167TIP3    H157992   4.656   1.085  14.211 -0.5086 -0.0241 -1.1039
12167TIP3    H257993   4.780   1.137  14.142 -0.8929 -1.7727 -3.2258
12168TIP3   OH257994   4.973   6.067  13.166  0.4951 -0.6702 -0.6226
12168TIP3    H157995   4.963   6.148  13.216  2.1265 -0.0217 -1.2866
12168TIP3    H257996   4.889   6.022  13.176  0.1775  0.2471  1.2415
12169TIP3   OH257997   4.985   6.159  10.890  0.2658  0.1791  0.0802
12169TIP3    H157998   5.059   6.102  10.871  0.2145  0.0237  0.3468
12169TIP3    H257999   5.021   6.248  10.885  0.6311  0.0865  0.8652
12170TIP3   OH258000   1.621   4.676   5.055  1.0720 -0.0347  0.3380
12170TIP3    H158001   1.543   4.732   5.053  1.9501  1.2914  1.2016
12170TIP3    H258002   1.653   4.677   4.964 -0.0194 -0.8009 -0.0814
12171TIP3   OH258003   2.598   6.256  13.773  0.1241 -0.5300  0.4013
12171TIP3    H158004   2.616   6.162  13.778  0.5993 -0.4202  0.8777
12171TIP3    H258005   2.684   6.297  13.782 -0.1161 -0.0417  0.5093
12172TIP3   OH258006   5.931   1.807   0.511 -0.5175  0.2063 -0.1017
12172TIP3    H158007   5.843   1.835   0.539  0.2575  2.5757  0.1782
12172TIP3    H258008   5.990   1.873   0.548  1.2523 -0.5098 -1.5149
12173TIP3   OH258009   4.507   0.323   2.076 -0.0178  0.3619 -0.3807
12173TIP3    H158010   4.470   0.235   2.087 -2.1158  1.0850 -1.2140
12173TIP3    H258011   4.602   0.309   2.077 -0.1899 -1.5544  2.3269
12174TIP3   OH258012   3.659   3.201   0.661  0.0868 -0.3974 -0.2891
12174TIP3    H158013   3.748   3.228   0.640 -0.4663  0.6789 -1.3494
12174TIP3    H258014   3.607   3.225   0.585 -1.6487  1.7696  1.4486
12175TIP3   OH258015   4.135   5.900   2.177 -0.2365 -1.1577 -0.3689
12175TIP3    H158016   4.095   5.858   2.253  0.2718 -1.4132 -0.2382
12175TIP3    H258017   4.063   5.948   2.136 -0.1167  0.7286  1.4521
12176TIP3   OH258018   0.458   0.882  13.559 -0.6332 -0.6959 -0.1260
12176TIP3    H158019   0.496   0.821  13.495 -1.8504 -2.4149  0.6933
12176TIP3    H258020   0.364   0.879  13.541 -0.6649  1.8129 -0.7336
12177TIP3   OH258021   3.378   1.263   5.268 -0.1585 -0.5005  0.0228
12177TIP3    H158022   3.314   1.313   5.320 -0.2401  0.8897 -1.3267
12177TIP3    H258023   3.456   1.318   5.268 -0.8830  0.6965 -3.1388
12178TIP3   OH258024   2.027   5.198   2.883 -0.3106 -0.3121  0.4393
12178TIP3    H158025   2.089   5.220   2.953  1.0229  0.6928 -1.0083
12178TIP3    H258026   1.943   5.235   2.913  0.7468  2.2338  0.4614
12179TIP3   OH258027   0.815   5.820   0.768 -0.1243 -0.1044  0.6181
12179TIP3    H158028   0.887   5.758   0.757  1.0159  1.0232  1.5253
12179TIP3    H258029   0.802   5.825   0.863 -1.1474  0.0116  0.4840
12180TIP3   OH258030   4.732   6.426  13.919  0.2158  0.2103  0.1380
12180TIP3    H158031   4.710   6.468  13.836 -0.0626 -0.9740 -0.4158
12180TIP3    H258032   4.826   6.413  13.916  0.3728  1.1737  0.5123
12181TIP3   OH258033   4.047   6.114  14.578 -0.2060 -0.3298  0.5849
12181TIP3    H158034   3.981   6.079  14.637 -0.7700  0.3510  0.3720
12181TIP3    H258035   4.127   6.067  14.601 -1.0192 -2.0572  0.0071
12182TIP3   OH258036   3.570   5.627  15.204  0.1739  1.1284  0.5383
12182TIP3    H158037   3.488   5.580  15.214  0.8738 -0.3432 -0.2584
12182TIP3    H258038   3.632   5.580  15.260  0.5967  1.9096  0.7421
12183TIP3   OH258039   6.007   0.520   5.944 -0.3443  0.0038 -0.3738
12183TIP3    H158040   5.992   0.476   6.027 -0.3089 -0.2497 -0.5000
12183TIP3    H258041   5.979   0.610   5.959  0.1547  0.0889  0.0648
12184TIP3   OH258042   3.103   6.113   3.507 -0.4651  0.0290  0.3759
12184TIP3    H158043   3.024   6.063   3.524 -1.9300  1.8357 -0.7773
12184TIP3    H258044   3.154   6.107   3.588 -3.0380  1.0342  2.1671
12185TIP3   OH258045   4.588   1.417   3.911 -0.1309  0.6692 -0.3475
12185TIP3    H158046   4.539   1.384   3.836  0.8033  0.9336 -1.0849
12185TIP3    H258047   4.535   1.491   3.942 -0.4535  0.6478 -0.8274
12186TIP3   OH258048   4.561   6.748  11.448 -0.0282 -0.6594  0.5714
12186TIP3    H158049   4.549   6.835  11.487 -0.8321 -0.7364  0.5196
12186TIP3    H258050   4.532   6.759  11.357  0.9936 -0.6990  0.2338
12187TIP3   OH258051   3.986   6.320  13.813 -0.3594 -0.3127 -0.5515
12187TIP3    H158052   4.039   6.241  13.806  0.1273 -0.1307  0.7467
12187TIP3    H258053   4.003   6.368  13.731 -0.9297 -1.6764 -1.4986
12188TIP3   OH258054   3.988   3.868  14.334  0.3381  0.3065 -0.3035
12188TIP3    H158055   4.058   3.913  14.286  0.3260  1.2158  0.5152
12188TIP3    H258056   4.030   3.791  14.372  0.8891  0.8125  0.1273
12189TIP3   OH258057   0.097   2.510   3.616  0.1674  0.1195 -0.5130
12189TIP3    H158058   0.054   2.578   3.564  1.2826  1.7845  0.6248
12189TIP3    H258059   0.140   2.558   3.687  0.8881 -1.8123  0.4284
12190TIP3   OH258060   3.813   0.193   2.108  0.1012  0.2733 -0.5407
12190TIP3    H158061   3.780   0.183   2.018 -0.5047 -1.0146 -0.1999
12190TIP3    H258062   3.893   0.141   2.110  1.4556  2.2092 -0.9524
12191TIP3   OH258063   6.017   5.957  13.526 -0.0474 -0.1030  0.3808
12191TIP3    H158064   6.075   5.994  13.593 -0.1273  1.6911 -0.5074
12191TIP3    H258065   6.077   5.922  13.460  0.0203 -1.3780  1.0685
12192TIP3   OH258066   1.336   4.912  16.893 -0.1478  0.5328 -0.2056
12192TIP3    H158067   1.262   4.920  16.833 -0.3014  1.0389  0.0415
12192TIP3    H258068   1.394   4.985  16.870 -0.2027  0.7243  0.2498
12193TIP3   OH258069   4.595   1.732  14.592  0.3396 -0.3579 -0.1490
12193TIP3    H158070   4.542   1.667  14.638  0.2537 -1.4859 -1.7918
12193TIP3    H258071   4.532   1.798  14.563  0.2088 -0.3524  0.1416
12194TIP3   OH258072   5.854   5.615   1.498  0.2370  0.0924 -0.0537
12194TIP3    H158073   5.913   5.617   1.422  0.5234  1.6233  0.1695
12194TIP3    H258074   5.787   5.551   1.475  1.1766 -0.6020 -0.9427
12195TIP3   OH258075   3.947   6.177   0.727  0.4511 -0.8184  0.1866
12195TIP3    H158076   3.992   6.186   0.811 -0.0820  1.5815  0.2864
12195TIP3    H258077   3.870   6.123   0.746  0.8726 -1.1402  1.0136
12196TIP3   OH258078   3.894   5.432   1.788 -0.6866  0.1047  0.2017
12196TIP3    H158079   3.805   5.461   1.806 -0.5328  3.1194 -2.7732
12196TIP3    H258080   3.950   5.500   1.826  0.0819  0.3210 -1.2293
12197TIP3   OH258081   1.948   1.614  16.089 -0.3942 -0.5728 -0.1031
12197TIP3    H158082   2.033   1.577  16.065  0.0329  0.2250  0.1361
12197TIP3    H258083   1.906   1.545  16.141  0.0129 -1.0589 -0.4040
12198TIP3   OH258084   6.425   0.327  12.076  0.2870 -1.0284  0.1375
12198TIP3    H158085   6.355   0.277  12.118 -1.5592 -0.2909 -1.8815
12198TIP3    H258086   6.414   0.416  12.110  0.8399 -1.0818  0.4753
12199TIP3   OH258087   6.828   6.764  14.523  0.2142  0.7393 -0.2366
12199TIP3    H158088   6.870   6.798  14.602  0.9337  2.4901 -1.3070
12199TIP3    H258089   6.736   6.788  14.533  0.0463 -0.1970  0.6261
12200TIP3   OH258090   5.367   0.196   5.201 -0.3984 -0.3173  0.0300
12200TIP3    H158091   5.419   0.266   5.239  0.5011 -1.9617  2.0082
12200TIP3    H258092   5.404   0.184   5.113 -0.2459  1.2980 -0.1639
12201TIP3   OH258093   6.507   1.756   4.552 -0.0474 -0.0604 -0.7446
12201TIP3    H158094   6.497   1.705   4.472 -0.4195 -1.2604  0.0458
12201TIP3    H258095   6.597   1.741   4.579 -0.1499 -0.2850 -0.5251
12202TIP3   OH258096   0.061   0.659  17.018 -0.0483 -0.1374 -0.0932
12202TIP3    H158097   0.012   0.740  17.034 -0.3820 -0.2983 -0.2770
12202TIP3    H258098   0.147   0.674  17.056 -0.3117  0.0726  0.4199
12203TIP3   OH258099   0.576   6.435   4.269  0.2812 -0.3076  0.0020
12203TIP3    H158100   0.664   6.438   4.232 -0.4325  1.4648 -1.7364
12203TIP3    H258101   0.518   6.444   4.194 -1.3959 -1.2195  1.1305
12204TIP3   OH258102   4.826   3.489  11.261 -0.0578  0.2026 -0.1187
12204TIP3    H158103   4.848   3.523  11.175  0.1136 -1.9464 -0.9947
12204TIP3    H258104   4.733   3.511  11.272 -0.7805 -1.5603 -1.9793
12205TIP3   OH258105   6.056   4.580  13.710  0.0353  0.6158  0.2786
12205TIP3    H158106   6.032   4.493  13.744  1.1187  0.2045  0.0346
12205TIP3    H258107   6.071   4.565  13.617  0.6034  0.9749  0.3067
12206TIP3   OH258108   0.950   1.614  12.058  0.1715 -0.1278 -0.3368
12206TIP3    H158109   0.973   1.707  12.067 -2.0510  0.7609 -2.6650
12206TIP3    H258110   0.872   1.603  12.111  0.2998 -0.6097 -0.2459
12207TIP3   OH258111   0.213   1.599   1.992  0.1974 -0.4964  0.0333
12207TIP3    H158112   0.205   1.577   2.085 -0.4600 -0.0958  0.0795
12207TIP3    H258113   0.206   1.515   1.947 -0.9263 -0.5447  0.2743
12208TIP3   OH258114   4.791   3.667  15.417  0.7600  0.1416 -0.3102
12208TIP3    H158115   4.797   3.679  15.512 -1.6415 -1.8290  0.1899
12208TIP3    H258116   4.841   3.588  15.399 -0.7516 -0.8721 -0.2495
12209TIP3   OH258117   5.833   0.558  15.823  0.0350  0.2528  0.3661
12209TIP3    H158118   5.825   0.464  15.809  0.3527  0.1229  1.0045
12209TIP3    H258119   5.920   0.580  15.789  0.0894  0.2551  0.5049
12210TIP3   OH258120   2.143   3.420   1.042 -0.1090  0.6319 -0.4172
12210TIP3    H158121   2.091   3.425   0.962 -0.5445 -0.1353 -0.1936
12210TIP3    H258122   2.094   3.362   1.099  0.4731  0.7344  0.2058
12211TIP3   OH258123   6.429   4.066   6.162 -0.1964 -0.5364 -0.5920
12211TIP3    H158124   6.376   4.016   6.099  0.6930  0.1957 -1.9816
12211TIP3    H258125   6.387   4.151   6.167 -0.5687 -0.7629  0.2396
12212TIP3   OH258126   5.140   5.763   6.517  0.6417  0.5395 -0.0157
12212TIP3    H158127   5.215   5.801   6.564  1.7849  1.1957 -2.2540
12212TIP3    H258128   5.175   5.739   6.431 -1.5268  0.0442 -0.8100
12213TIP3   OH258129   1.098   1.904   1.658  0.0791  0.0694  0.1361
12213TIP3    H158130   1.129   1.929   1.571  0.7673 -0.1428  0.3127
12213TIP3    H258131   1.167   1.934   1.717 -0.4235  0.2915  0.6200
12214TIP3   OH258132   3.618   3.379   4.726 -0.2324 -0.3232  0.3650
12214TIP3    H158133   3.656   3.376   4.814  0.6268  2.3475  0.1689
12214TIP3    H258134   3.601   3.472   4.710 -0.2611 -0.7121 -2.3421
12215TIP3   OH258135   1.381   4.531  12.859 -0.0278 -0.6470 -0.2339
12215TIP3    H158136   1.306   4.531  12.919  0.0312  2.4417 -0.0169
12215TIP3    H258137   1.341   4.539  12.772 -0.0770  2.1857 -0.0557
12216TIP3   OH258138   1.786   6.781  15.024 -0.0334 -0.3126  0.0457
12216TIP3    H158139   1.715   6.719  15.009 -0.6925  0.3508  0.4291
12216TIP3    H258140   1.743   6.863  15.046  0.8375  0.2930 -0.4587
12217TIP3   OH258141   3.066   4.670   2.151 -0.6797 -0.4451 -0.6396
12217TIP3    H158142   3.044   4.660   2.058 -1.9625 -1.4250 -0.2623
12217TIP3    H258143   3.007   4.739   2.182  1.5462  1.7991 -1.0839
12218TIP3   OH258144   0.899   6.317   4.218 -0.2665 -0.7996  0.2111
12218TIP3    H158145   0.933   6.390   4.270 -0.4918 -0.7993  0.3611
12218TIP3    H258146   0.960   6.246   4.234  1.2184 -0.0328 -1.6520
12219TIP3   OH258147   3.231   4.498  10.770  0.1522 -0.1190  0.0285
12219TIP3    H158148   3.189   4.505  10.684 -0.0509  1.1452  0.2197
12219TIP3    H258149   3.224   4.405  10.792  2.1051 -0.9046 -2.2518
12220TIP3   OH258150   0.665   5.057  12.111  0.1747  0.1760 -0.3785
12220TIP3    H158151   0.659   4.962  12.120  0.9683 -0.1060 -2.3349
12220TIP3    H258152   0.594   5.080  12.051  0.2276  0.7821 -0.2166
12221TIP3   OH258153   5.474   4.609  11.750  0.3703  0.9565 -0.5110
12221TIP3    H158154   5.449   4.518  11.737  1.4162  0.2620  1.7601
12221TIP3    H258155   5.417   4.640  11.821  0.5674  1.8133 -0.7132
12222TIP3   OH258156   4.942   0.521   2.014  0.3572  0.3227 -0.3854
12222TIP3    H158157   4.884   0.594   1.996  0.3557  0.0938 -1.3750
12222TIP3    H258158   5.022   0.540   1.965  1.1769  0.6893  1.0528
12223TIP3   OH258159   0.284   2.551   2.313 -0.1871 -0.2180  0.2771
12223TIP3    H158160   0.318   2.558   2.402  0.5055  0.7435 -0.0445
12223TIP3    H258161   0.356   2.582   2.257 -1.0226  0.3209 -0.5346
12224TIP3   OH258162   3.277   3.035  13.677 -0.2479  0.2637 -0.6284
12224TIP3    H158163   3.191   3.014  13.713  0.4871 -0.0266  1.0424
12224TIP3    H258164   3.333   2.962  13.704 -0.0737 -1.2138 -4.3611
12225TIP3   OH258165   1.209   5.920  16.171  0.2742 -0.0890 -0.4610
12225TIP3    H158166   1.202   5.973  16.250 -0.1453  0.7089 -1.0238
12225TIP3    H258167   1.267   5.969  16.113  1.5626 -1.2392 -0.2134
12226TIP3   OH258168   3.111   4.956  15.088 -0.8246  0.0570 -0.2288
12226TIP3    H158169   3.038   4.969  15.148 -1.6266  0.4273 -1.2430
12226TIP3    H258170   3.187   4.946  15.144 -2.0545 -3.6820  1.0597
12227TIP3   OH258171   1.893   4.835   2.374 -0.2930 -0.2219 -0.5544
12227TIP3    H158172   1.845   4.752   2.373 -0.2213 -0.2678 -0.1019
12227TIP3    H258173   1.825   4.901   2.387 -0.2802 -0.2594 -0.2853
12228TIP3   OH258174   3.921   1.997   2.076 -0.1386 -0.0404 -0.2066
12228TIP3    H158175   3.890   2.005   2.166 -0.1662  0.0648 -0.2252
12228TIP3    H258176   3.880   2.070   2.030  0.2930  0.2193 -0.1881
12229TIP3   OH258177   5.367   1.949   5.347  0.1152 -0.0841 -0.0123
12229TIP3    H158178   5.386   1.940   5.440  0.9622  3.4416  0.2912
12229TIP3    H258179   5.271   1.951   5.343  0.0809  0.3129  0.8487
12230TIP3   OH258180   4.206   1.436  14.082  0.2338 -0.8585  0.1775
12230TIP3    H158181   4.195   1.487  14.002  1.1128 -0.5740  0.2240
12230TIP3    H258182   4.138   1.370  14.078 -1.9928  1.2372  0.8447
12231TIP3   OH258183   3.115   3.166  10.949  0.4940 -0.4098 -0.0148
12231TIP3    H158184   3.102   3.171  11.044 -1.5040 -1.3970 -0.1826
12231TIP3    H258185   3.075   3.246  10.915  1.5112  0.1080 -0.0193
12232TIP3   OH258186   5.342   5.765   3.926  0.2001 -0.4451  0.3092
12232TIP3    H158187   5.333   5.681   3.971  0.6754 -0.3634  0.5592
12232TIP3    H258188   5.317   5.747   3.836  0.9277 -1.0039  0.2141
12233TIP3   OH258189   0.123   1.463   0.244 -0.2849 -0.0079  0.5176
12233TIP3    H158190   0.130   1.396   0.175 -1.0319  1.5660 -1.1856
12233TIP3    H258191   0.030   1.482   0.251 -0.1753  0.1821  1.6664
12234TIP3   OH258192   4.241   1.571   0.081 -0.5149 -0.2251  0.2202
12234TIP3    H158193   4.333   1.556   0.101  0.2745  1.8212 -1.5666
12234TIP3    H258194   4.205   1.610   0.161  0.0669 -1.2237  1.0011
12235TIP3   OH258195   4.223   4.791   3.342  0.0322  0.0862  0.1661
12235TIP3    H158196   4.269   4.848   3.281  1.1434  1.2910  2.0432
12235TIP3    H258197   4.259   4.812   3.428 -1.4346 -1.5664  1.2789
12236TIP3   OH258198   2.104   5.339   3.349  0.8066 -0.7013 -0.6842
12236TIP3    H158199   2.060   5.424   3.349 -0.6607 -1.4192 -0.2920
12236TIP3    H258200   2.191   5.356   3.383  0.2661  0.5229  0.1506
12237TIP3   OH258201   2.015   1.290   0.972 -0.2152  0.1515  0.2029
12237TIP3    H158202   1.989   1.379   0.947  0.2409 -0.1430 -1.4411
12237TIP3    H258203   2.110   1.290   0.963  0.0735  0.1519  2.5726
12238TIP3   OH258204   3.582   6.497  13.134  0.4305  0.5009 -0.3691
12238TIP3    H158205   3.506   6.525  13.184  0.7928  1.6025 -0.4205
12238TIP3    H258206   3.646   6.469  13.200  0.1194 -0.0987 -0.3145
12239TIP3   OH258207   2.264   0.507  11.990  0.5524  0.1592 -0.3975
12239TIP3    H158208   2.262   0.459  12.073  0.9269 -2.7792 -1.9662
12239TIP3    H258209   2.179   0.552  11.987  0.2250 -0.2800  1.2172
12240TIP3   OH258210   1.919   0.504  11.637  0.7479 -0.1117 -0.1036
12240TIP3    H158211   1.978   0.578  11.619  0.6181  0.3090  1.1041
12240TIP3    H258212   1.960   0.430  11.593  1.8516  0.2977  0.1959
12241TIP3   OH258213   0.433   0.178  13.321 -0.5916  0.4888  0.4183
12241TIP3    H158214   0.476   0.241  13.379 -1.9225  0.2690  1.7081
12241TIP3    H258215   0.470   0.093  13.346  0.5528  0.6216 -0.7133
12242TIP3   OH258216   0.620   4.484  16.021  0.3296 -0.2565  0.0285
12242TIP3    H158217   0.710   4.473  15.990  0.3022  1.9891 -1.0440
12242TIP3    H258218   0.566   4.447  15.951  0.3787 -0.8160  0.2776
12243TIP3   OH258219   2.053   4.500  13.598 -0.0094  0.0256 -0.3751
12243TIP3    H158220   1.980   4.519  13.540 -1.1236 -0.2149  0.8977
12243TIP3    H258221   2.126   4.478  13.540 -0.2802  2.4916 -1.7487
12244TIP3   OH258222   0.060   0.246  11.194  0.7203  0.5842 -0.0854
12244TIP3    H158223   0.085   0.275  11.282  2.8597 -0.5426 -0.2338
12244TIP3    H258224   0.071   0.151  11.196 -0.2214  0.4246 -1.2853
12245TIP3   OH258225   3.435   4.294   5.459 -0.1976  0.4644  0.1382
12245TIP3    H158226   3.420   4.319   5.367  1.7996  0.8743 -0.1104
12245TIP3    H258227   3.530   4.290   5.468 -0.3517  0.4584  2.2154
12246TIP3   OH258228   3.861   6.194   2.310  0.5767 -0.2037 -0.4666
12246TIP3    H158229   3.911   6.126   2.355  1.5961  1.1997  0.6206
12246TIP3    H258230   3.882   6.274   2.357 -3.2186  0.4332  0.5319
12247TIP3   OH258231   5.863   5.388   4.254  0.5022 -0.0329 -0.7681
12247TIP3    H158232   5.852   5.309   4.202  1.5407  0.1529 -1.2977
12247TIP3    H258233   5.938   5.369   4.311 -1.1736 -0.5986  1.3915
12248TIP3   OH258234   1.360   6.813  11.191  0.7123  0.1205 -0.4786
12248TIP3    H158235   1.309   6.768  11.124 -2.1358 -0.2999  1.7608
12248TIP3    H258236   1.442   6.763  11.196 -0.7265 -2.4597 -0.7876
12249TIP3   OH258237   2.435   1.781   4.358 -0.1416  0.2001  0.7028
12249TIP3    H158238   2.437   1.719   4.285 -0.2859  0.6751  0.2842
12249TIP3    H258239   2.511   1.759   4.411  0.0450 -0.0642  0.3290
12250TIP3   OH258240   6.494   4.778   3.104 -0.5621  0.4359 -0.8483
12250TIP3    H158241   6.463   4.868   3.103  0.9012  1.1181  2.2356
12250TIP3    H258242   6.531   4.764   3.017 -0.1438  3.0944 -1.1728
12251TIP3   OH258243   5.754   4.642   4.821 -0.1456 -0.3142 -0.2066
12251TIP3    H158244   5.697   4.568   4.838 -0.1341 -0.6845 -1.6663
12251TIP3    H258245   5.818   4.609   4.757  0.6054  0.6041  0.0427
12252TIP3   OH258246   1.095   2.181  13.706 -0.4609  0.4781 -0.1885
12252TIP3    H158247   1.113   2.210  13.795  0.2991 -1.0220  0.1841
12252TIP3    H258248   1.040   2.104  13.717  0.7717 -0.5399 -0.9250
12253TIP3   OH258249   0.666   5.967   5.986 -0.6510  0.8139 -0.0976
12253TIP3    H158250   0.620   6.049   6.001 -1.9075  0.0895  0.1068
12253TIP3    H258251   0.605   5.913   5.936  1.1029  0.9005 -2.5100
12254TIP3   OH258252   0.344   3.863   5.177 -0.3319 -0.2849  0.1001
12254TIP3    H158253   0.284   3.788   5.176  0.1302 -0.6624 -0.8442
12254TIP3    H258254   0.374   3.868   5.267  0.2603 -1.7632  0.0098
12255TIP3   OH258255   0.546   4.839  15.496  0.4937 -0.1347  0.3363
12255TIP3    H158256   0.548   4.767  15.559 -2.5720 -0.0332  0.6925
12255TIP3    H258257   0.572   4.800  15.413  3.2055 -0.5837  1.2817
12256TIP3   OH258258   3.857   0.519   6.157  0.0332 -0.8663  0.2447
12256TIP3    H158259   3.835   0.591   6.216  1.2387 -0.2803  0.0074
12256TIP3    H258260   3.852   0.441   6.213 -0.8967 -0.5700  0.5983
12257TIP3   OH258261   3.511   5.717  14.007  0.3918  0.6857 -0.6630
12257TIP3    H158262   3.475   5.628  14.006  1.2885  0.3204 -1.0798
12257TIP3    H258263   3.434   5.773  14.006 -0.1855 -0.0836 -1.2085
12258TIP3   OH258264   3.181   0.913  15.793  0.3231 -0.6044 -0.0624
12258TIP3    H158265   3.096   0.943  15.760  0.2857 -0.1476  0.4316
12258TIP3    H258266   3.173   0.917  15.888  1.1698  0.2537 -0.0079
12259TIP3   OH258267   1.548   5.113  11.316 -0.0820 -0.1280  0.3745
12259TIP3    H158268   1.579   5.035  11.362 -1.6319 -0.7627  0.4194
12259TIP3    H258269   1.550   5.088  11.224  2.5060  0.9572  0.0428
12260TIP3   OH258270   6.557   4.290  13.411  0.8750 -0.3590  0.0775
12260TIP3    H158271   6.468   4.318  13.431 -0.0108 -1.0474 -2.5008
12260TIP3    H258272   6.612   4.337  13.473 -1.2471  0.3072  1.5462
12261TIP3   OH258273   3.988   4.243   5.896  0.4344  0.2781 -0.0756
12261TIP3    H158274   4.026   4.292   5.968  1.7775 -1.7172  0.6700
12261TIP3    H258275   4.031   4.157   5.900 -1.5942 -0.9006 -1.4356
12262TIP3   OH258276   4.970   4.429   0.690  0.3058  0.1842  0.0647
12262TIP3    H158277   4.943   4.408   0.600  0.8671  0.5307 -0.1860
12262TIP3    H258278   4.930   4.514   0.708 -0.5658 -0.2997  0.4782
12263TIP3   OH258279   5.974   5.915  15.174 -0.5082 -0.0066  0.1234
12263TIP3    H158280   5.961   5.823  15.200 -0.1829  0.0748  0.5971
12263TIP3    H258281   6.024   5.953  15.246  0.5770  0.1955 -0.7107
12264TIP3   OH258282   5.003   0.961   0.970  0.4640 -0.0091  0.1689
12264TIP3    H158283   5.041   1.004   0.894  0.1329  0.3533  0.2090
12264TIP3    H258284   5.028   1.016   1.045  1.1718 -0.6035  0.3853
12265TIP3   OH258285   6.808   4.238   3.275 -0.2174  0.0238 -0.0158
12265TIP3    H158286   6.769   4.225   3.361  0.2013  0.4303  0.2379
12265TIP3    H258287   6.884   4.179   3.275  0.6695  1.1443  0.4747
12266TIP3   OH258288   3.554   0.914  13.793 -0.0053  0.3321 -0.5710
12266TIP3    H158289   3.627   0.862  13.827 -1.2766 -0.7257  0.6548
12266TIP3    H258290   3.569   1.002  13.828 -0.0566 -0.2123  0.9060
12267TIP3   OH258291   4.248   0.186   4.689 -0.0368  0.1192  0.5138
12267TIP3    H158292   4.191   0.139   4.750  0.9220 -0.3248  1.0987
12267TIP3    H258293   4.252   0.130   4.612 -0.2997  0.0932  0.5188
12268TIP3   OH258294   1.560   3.671   0.610  0.1303 -0.7115  0.0198
12268TIP3    H158295   1.615   3.596   0.634  0.2980 -0.0957  1.6455
12268TIP3    H258296   1.578   3.737   0.677 -1.5383  0.0350 -0.2185
12269TIP3   OH258297   1.648   6.545   1.275 -0.3042  0.0294  0.6368
12269TIP3    H158298   1.598   6.612   1.321 -4.5246 -1.6857 -0.9885
12269TIP3    H258299   1.652   6.472   1.336  0.9613  0.3560  0.9906
12270TIP3   OH258300   3.571   1.193   0.432 -0.3944  0.2262 -0.3189
12270TIP3    H158301   3.588   1.099   0.428  0.2331  0.3175  0.0854
12270TIP3    H258302   3.608   1.229   0.352  1.8384  0.4880  0.7572
12271TIP3   OH258303   4.589   2.047  14.821 -0.2590 -0.4273  0.1480
12271TIP3    H158304   4.681   2.039  14.798 -0.1958  0.6124 -0.0000
12271TIP3    H258305   4.549   1.966  14.788  0.4717 -0.5700 -0.4172
12272TIP3   OH258306   0.425   5.206   0.732 -0.5920  0.1201 -0.5960
12272TIP3    H158307   0.374   5.151   0.792 -1.8023  0.5007 -1.2368
12272TIP3    H258308   0.372   5.285   0.723  0.4287  0.7866 -0.8165
12273TIP3   OH258309   2.876   6.714  15.059 -0.3973  0.5169  0.3639
12273TIP3    H158310   2.794   6.715  15.010 -0.5547  0.0303  0.6114
12273TIP3    H258311   2.944   6.727  14.992 -0.5926 -0.3767 -0.0329
12274TIP3   OH258312   5.507   3.374   2.510 -0.0507  0.0766 -0.1817
12274TIP3    H158313   5.417   3.407   2.507 -0.2432 -0.2312  1.1813
12274TIP3    H258314   5.558   3.437   2.460 -0.7019  1.4514  0.8174
12275TIP3   OH258315   2.537   3.793   1.543  0.1863  0.2294  0.3187
12275TIP3    H158316   2.531   3.784   1.638 -0.6452  1.5870  0.4186
12275TIP3    H258317   2.512   3.884   1.526 -0.4706 -0.2217 -1.2721
12276TIP3   OH258318   5.684   1.841   2.289  0.4723 -0.2774 -0.3648
12276TIP3    H158319   5.641   1.914   2.334 -0.2200 -1.0084  0.1858
12276TIP3    H258320   5.612   1.790   2.252  0.9561 -0.6275 -0.8399
12277TIP3   OH258321   3.062   3.708   2.488 -0.1714  0.1481 -0.8211
12277TIP3    H158322   3.053   3.643   2.558  2.3715  1.1381  0.5529
12277TIP3    H258323   3.078   3.790   2.535 -1.8864  1.5524 -2.5407
12278TIP3   OH258324   1.448   5.521   2.909  0.2008  0.0914  0.1599
12278TIP3    H158325   1.408   5.573   2.978 -1.3797  0.0941 -0.7178
12278TIP3    H258326   1.526   5.570   2.884 -0.5958  1.4001  0.1947
12279TIP3   OH258327   2.475   5.484  14.586 -0.0842 -0.2509  0.1900
12279TIP3    H158328   2.560   5.457  14.621 -0.1532  0.9697  1.3973
12279TIP3    H258329   2.490   5.493  14.492  0.3863 -2.6221 -0.0230
12280TIP3   OH258330   1.333   1.175   4.218  0.0055  0.0999  0.9917
12280TIP3    H158331   1.307   1.119   4.291 -1.1612  3.3951  3.3432
12280TIP3    H258332   1.429   1.172   4.219 -0.0183 -1.4942  1.2462
12281TIP3   OH258333   2.785   4.507   5.004 -0.2339 -0.5233  0.3137
12281TIP3    H158334   2.762   4.467   5.088 -0.3816  0.5446  0.7946
12281TIP3    H258335   2.799   4.599   5.024  0.8499 -0.4577 -0.6423
12282TIP3   OH258336   1.166   0.472  12.928 -0.1727 -0.0999 -0.4516
12282TIP3    H158337   1.140   0.444  12.841 -0.7254 -0.1516 -0.2774
12282TIP3    H258338   1.164   0.392  12.981 -2.2594  0.2976  0.1687
12283TIP3   OH258339   2.995   3.114  16.828 -0.0426 -0.2595 -0.5315
12283TIP3    H158340   2.975   3.206  16.845 -0.9147 -0.4669 -0.3831
12283TIP3    H258341   2.939   3.090  16.754 -0.5599 -0.9298  0.0598
12284TIP3   OH258342   5.983   2.268  11.186  0.4722  0.0768  1.0191
12284TIP3    H158343   6.009   2.281  11.277 -0.6009  1.1347  1.1976
12284TIP3    H258344   5.968   2.173  11.179 -0.7327  0.1212  2.3349
12285TIP3   OH258345   5.408   3.523   3.861 -0.5977 -0.6157  0.6525
12285TIP3    H158346   5.339   3.568   3.812 -1.1804 -2.1822  0.0001
12285TIP3    H258347   5.480   3.586   3.864 -1.5825  0.5666  0.2454
12286TIP3   OH258348   1.413   2.048  15.354 -0.6376  0.4706  0.7472
12286TIP3    H158349   1.425   2.124  15.297 -0.1327 -0.4269 -0.3866
12286TIP3    H258350   1.500   2.033  15.393 -0.5720  0.0969  0.4639
12287TIP3   OH258351   5.578   6.220  11.238  0.0869 -0.2031 -0.6080
12287TIP3    H158352   5.599   6.260  11.153 -1.9172 -0.4067 -1.2352
12287TIP3    H258353   5.562   6.128  11.218  0.0171 -0.3372  0.0567
12288TIP3   OH258354   3.225   4.251  14.029 -0.6334 -0.0024 -0.3014
12288TIP3    H158355   3.252   4.214  14.114  1.1394  2.3176  0.2526
12288TIP3    H258356   3.308   4.268  13.983 -1.3654  2.1288 -0.9616
12289TIP3   OH258357   4.122   1.212  14.883  0.2606  0.1092  0.0192
12289TIP3    H158358   4.051   1.190  14.823  1.3118 -0.8377 -0.9215
12289TIP3    H258359   4.109   1.154  14.958 -1.1011  1.3480  0.7748
12290TIP3   OH258360   0.522   3.152   6.784  0.1495  0.5737 -0.2279
12290TIP3    H158361   0.454   3.152   6.716 -0.2493 -2.1440  0.0540
12290TIP3    H258362   0.571   3.072   6.768  0.8397  0.5249  1.9233
12291TIP3   OH258363   6.196   0.330  11.637 -0.0713 -0.3731 -0.0767
12291TIP3    H158364   6.254   0.265  11.678  0.6089 -0.0760 -0.5389
12291TIP3    H258365   6.131   0.350  11.703  0.4519 -0.6085  0.5165
12292TIP3   OH258366   2.309   1.310   4.471 -0.0625 -0.3747  0.1781
12292TIP3    H158367   2.252   1.259   4.414 -0.4311 -1.2277  1.2593
12292TIP3    H258368   2.395   1.269   4.461 -0.4078 -1.4066  1.2267
12293TIP3   OH258369   5.327   3.334   1.133  0.2540  0.2327  0.2288
12293TIP3    H158370   5.233   3.320   1.138  0.4126 -1.0018  0.2415
12293TIP3    H258371   5.338   3.418   1.090 -0.8726  1.0535  1.4799
12294TIP3   OH258372   1.328   5.198  14.895  0.0316 -0.1056  0.0776
12294TIP3    H158373   1.423   5.184  14.885  0.3850  1.1365  1.3955
12294TIP3    H258374   1.294   5.193  14.806  1.2777 -0.8949 -0.3934
12295TIP3   OH258375   4.896   6.547  10.925 -0.3839 -0.5729 -0.1299
12295TIP3    H158376   4.873   6.516  10.838  0.3564 -0.4327 -0.3842
12295TIP3    H258377   4.918   6.467  10.974  0.7374 -0.5395 -0.5459
12296TIP3   OH258378   4.320   2.731   3.466 -0.0261 -0.1336  0.8625
12296TIP3    H158379   4.370   2.812   3.470 -0.8556  0.5466 -1.0887
12296TIP3    H258380   4.241   2.749   3.517 -0.1559  0.2701  0.5309
12297TIP3   OH258381   2.690   5.939  16.986 -0.0603  0.4390  0.0128
12297TIP3    H158382   2.674   6.002  17.056 -1.2133  0.0554  0.1128
12297TIP3    H258383   2.614   5.947  16.928 -0.4680 -1.1720  0.2709
12298TIP3   OH258384   4.313   1.355   5.749 -0.1466 -0.1153 -0.4946
12298TIP3    H158385   4.395   1.365   5.798 -1.1106 -0.8208  1.3396
12298TIP3    H258386   4.259   1.429   5.777 -0.4802 -0.1533 -1.0243
12299TIP3   OH258387   3.250   0.812  12.312  0.6055 -0.0309 -0.0188
12299TIP3    H158388   3.291   0.866  12.379 -0.5866 -0.4949  1.1319
12299TIP3    H258389   3.183   0.868  12.273  1.7398  0.4649 -1.3448
12300TIP3   OH258390   0.198   1.079   3.446 -0.0660  0.0421 -0.1251
12300TIP3    H158391   0.249   1.100   3.524  0.8661  1.3508 -1.0490
12300TIP3    H258392   0.113   1.118   3.462  0.8872  2.5277 -0.7767
12301TIP3   OH258393   5.165   2.638  13.517  0.1872 -0.6924 -0.0886
12301TIP3    H158394   5.199   2.651  13.428 -2.1204  1.8321 -0.7667
12301TIP3    H258395   5.240   2.652  13.574  0.9664  2.0232 -1.5586
12302TIP3   OH258396   6.574   4.965  13.146 -0.0597 -0.1309 -0.1274
12302TIP3    H158397   6.663   4.934  13.156  0.1925  0.6312  0.0649
12302TIP3    H258398   6.564   5.034  13.212 -0.3185  0.7864 -1.0801
12303TIP3   OH258399   1.453   2.669  16.943 -0.5021 -0.0726 -0.1148
12303TIP3    H158400   1.393   2.595  16.947  1.4168 -1.6607  2.6102
12303TIP3    H258401   1.448   2.700  16.853 -0.1365 -4.5916 -1.9142
12304TIP3   OH258402   3.820   4.859  14.028  0.0289  0.3371 -0.2845
12304TIP3    H158403   3.835   4.767  14.048 -0.4821  0.5684  1.2707
12304TIP3    H258404   3.877   4.877  13.953  0.0084 -1.2693 -0.7114
12305TIP3   OH258405   3.992   1.752  14.720 -0.4492 -0.4079 -0.3781
12305TIP3    H158406   4.008   1.837  14.679 -0.3064  0.9596  2.2881
12305TIP3    H258407   3.902   1.758  14.752  0.5353  0.1363  2.6286
12306TIP3   OH258408   4.388   4.028  15.380  0.2447  0.2985 -0.7165
12306TIP3    H158409   4.329   4.065  15.314  1.3445 -1.1203 -2.6137
12306TIP3    H258410   4.369   3.934  15.380  0.8815  0.1486  0.3553
12307TIP3   OH258411   0.611   4.671  13.414 -0.4226  0.6008 -0.1303
12307TIP3    H158412   0.533   4.628  13.449 -1.1312  0.4819 -1.7608
12307TIP3    H258413   0.580   4.713  13.333  1.2565  0.3739 -0.9166
12308TIP3   OH258414   5.827   1.819   2.071 -0.0059  0.2359 -0.3172
12308TIP3    H158415   5.916   1.835   2.103 -0.5902  1.3385  0.8286
12308TIP3    H258416   5.770   1.842   2.144 -1.2210 -1.7330 -0.5547
12309TIP3   OH258417   0.674   1.205   1.820 -0.5082 -0.6334 -0.4686
12309TIP3    H158418   0.699   1.272   1.757 -1.4908  0.6946  0.4986
12309TIP3    H258419   0.653   1.128   1.767  2.3510 -0.8285 -1.5079
12310TIP3   OH258420   3.585   1.300   0.170 -0.4759 -0.6470 -0.8465
12310TIP3    H158421   3.495   1.285   0.140 -0.4291  1.4967 -2.3199
12310TIP3    H258422   3.616   1.373   0.116  2.0105 -1.0236 -0.0577
12311TIP3   OH258423   0.901   5.756   3.856  0.0465 -0.6149 -0.5660
12311TIP3    H158424   0.892   5.841   3.898 -3.3485 -1.3646  0.5520
12311TIP3    H258425   0.984   5.761   3.808 -0.8336  3.9125 -2.0512
12312TIP3   OH258426   0.560   0.580   1.093 -0.1829  0.6339 -0.3049
12312TIP3    H158427   0.554   0.593   0.999  0.2104  1.1059 -0.2698
12312TIP3    H258428   0.585   0.666   1.128  0.0107  0.3835  0.1943
12313TIP3   OH258429   1.094   4.004  13.226 -0.2169 -0.3975  0.0692
12313TIP3    H158430   1.137   4.079  13.185  0.3845 -0.6728  0.1735
12313TIP3    H258431   1.003   4.010  13.199  0.1164 -0.4437 -1.1320
12314TIP3   OH258432   5.244   3.918  14.805  0.5589  0.0467 -0.2144
12314TIP3    H158433   5.204   3.832  14.795  0.9277 -0.3044  1.1844
12314TIP3    H258434   5.172   3.980  14.791  0.2597 -0.4795 -1.0651
12315TIP3   OH258435   4.100   3.614   0.731 -0.1923  0.1368 -0.5967
12315TIP3    H158436   4.035   3.660   0.785  0.7951 -0.7713  1.4913
12315TIP3    H258437   4.179   3.666   0.739  0.1524 -0.3804 -0.5714
12316TIP3   OH258438   5.610   1.536   5.911 -0.2979 -0.0057  0.4337
12316TIP3    H158439   5.670   1.585   5.855 -1.3169 -0.1331 -0.8088
12316TIP3    H258440   5.559   1.603   5.956 -3.0777  0.2538 -2.7470
12317TIP3   OH258441   1.643   2.864  15.541  0.7464 -0.1696 -0.0712
12317TIP3    H158442   1.591   2.784  15.537 -0.6773  0.7183 -0.1653
12317TIP3    H258443   1.730   2.835  15.566  0.3709 -1.7868 -0.5252
12318TIP3   OH258444   1.274   0.418  14.722  0.7754 -0.4129 -0.0519
12318TIP3    H158445   1.238   0.343  14.674 -1.4631  0.3916  0.2467
12318TIP3    H258446   1.246   0.404  14.812 -0.8295  1.3790 -0.2131
12319TIP3   OH258447   5.204   3.578  12.835 -0.4927  0.3387  0.0888
12319TIP3    H158448   5.223   3.574  12.741 -0.0483 -1.4817  0.2325
12319TIP3    H258449   5.277   3.628  12.872  2.2287 -3.2355  0.0895
12320TIP3   OH258450   2.032   0.667  11.987 -0.5610 -0.2564  0.6241
12320TIP3    H158451   1.982   0.739  12.026 -1.5501 -0.3289 -0.4393
12320TIP3    H258452   1.990   0.653  11.902  1.0413 -0.5870 -0.1514
12321TIP3   OH258453   5.391   1.949   5.637  0.3375  0.1108 -0.5029
12321TIP3    H158454   5.359   2.038   5.653 -0.5903  0.1915 -2.4993
12321TIP3    H258455   5.382   1.904   5.721  3.1803  2.5086  1.2666
12322TIP3   OH258456   3.477   5.882   4.261 -0.0443 -0.4037 -0.2447
12322TIP3    H158457   3.533   5.939   4.207 -0.2530  0.1469  0.1046
12322TIP3    H258458   3.460   5.806   4.206  3.5494 -2.0688  0.6804
12323TIP3   OH258459   0.877   5.351  12.865  0.2222  0.1727  0.3412
12323TIP3    H158460   0.928   5.308  12.933  2.7142  0.9311 -0.9382
12323TIP3    H258461   0.882   5.444  12.887 -1.9685  0.1811  1.0196
12324TIP3   OH258462   1.077   4.171  15.880 -0.6665 -0.2037 -0.4058
12324TIP3    H158463   1.134   4.104  15.841 -0.3125 -0.4580  0.5204
12324TIP3    H258464   0.989   4.140  15.861 -0.5590 -1.8137  1.3331
12325TIP3   OH258465   6.704   0.081   0.467 -0.3704 -0.5507 -0.1706
12325TIP3    H158466   6.656   0.163   0.466 -2.1842 -1.5152  1.2671
12325TIP3    H258467   6.755   0.081   0.386 -0.5633  1.8180 -0.3437
12326TIP3   OH258468   3.735   1.288   4.557 -0.5466  0.5501 -0.4452
12326TIP3    H158469   3.667   1.282   4.489  0.3067  3.2607 -1.7182
12326TIP3    H258470   3.815   1.259   4.513 -0.0746  1.8693 -0.5045
12327TIP3   OH258471   4.687   3.425   1.034  0.2276 -0.1676  0.4658
12327TIP3    H158472   4.711   3.332   1.035 -0.3088 -0.3008  0.8915
12327TIP3    H258473   4.637   3.435   0.953 -1.8100 -0.7919  1.5802
12328TIP3   OH258474   0.568   2.307  15.335  0.2202  0.0709  0.5147
12328TIP3    H158475   0.482   2.305  15.378  0.1258  2.2640  0.5515
12328TIP3    H258476   0.547   2.316  15.242  0.4136 -0.3358  0.4333
12329TIP3   OH258477   2.664   6.745  16.235  0.5530  0.2910  0.1191
12329TIP3    H158478   2.695   6.750  16.145 -0.7758 -0.6728 -0.4212
12329TIP3    H258479   2.593   6.680  16.233  0.7505 -0.0471  1.9263
12330TIP3   OH258480   2.939   5.070  11.762 -1.0698  0.2677  0.2195
12330TIP3    H158481   2.876   5.114  11.704 -0.9548  0.7183  0.4325
12330TIP3    H258482   2.885   5.029  11.830 -1.1426  0.5313  0.3212
12331TIP3   OH258483   1.745   0.427  12.124 -1.1380  0.0868  0.1260
12331TIP3    H158484   1.658   0.468  12.130 -0.6034  1.2138  0.6360
12331TIP3    H258485   1.772   0.417  12.215 -0.1410  1.1027 -0.0404
12332TIP3   OH258486   1.637   6.037   1.688 -0.1808 -0.0152  0.6740
12332TIP3    H158487   1.545   6.043   1.712 -0.3434  0.8544 -0.1242
12332TIP3    H258488   1.666   6.128   1.679 -0.0017 -0.2532 -1.8136
12333TIP3   OH258489   0.182   6.297  16.979  0.7922  0.0048  0.3671
12333TIP3    H158490   0.192   6.207  17.009  0.8074 -1.1021 -2.6495
12333TIP3    H258491   0.263   6.316  16.931  0.4754  1.3671  0.3323
12334TIP3   OH258492   1.366   5.296   0.191  0.3175  0.3747  0.5388
12334TIP3    H158493   1.399   5.365   0.133  0.2834  1.1488  1.4077
12334TIP3    H258494   1.276   5.322   0.211 -0.0178 -0.4346  0.1177
12335TIP3   OH258495   3.624   1.826  12.526  0.4367 -0.1007  0.7942
12335TIP3    H158496   3.645   1.764  12.456 -2.1300  0.5366 -0.6839
12335TIP3    H258497   3.533   1.808  12.548  0.1270  2.0117  1.5217
12336TIP3   OH258498   3.228   3.170   5.017 -0.1523  0.3526  0.5583
12336TIP3    H158499   3.257   3.109   4.950 -0.4003 -1.6426  2.1896
12336TIP3    H258500   3.133   3.178   5.002 -0.1798  0.0492  0.5757
12337TIP3   OH258501   2.274   5.250   4.862 -0.2662  0.3944 -0.6834
12337TIP3    H158502   2.262   5.235   4.956  0.1180  0.8810 -0.5506
12337TIP3    H258503   2.185   5.248   4.826 -0.3032 -1.2817 -0.5505
12338TIP3   OH258504   6.723   0.378   3.017  0.0316 -0.0851 -0.0460
12338TIP3    H158505   6.711   0.468   3.047  2.2884  0.3790 -0.3727
12338TIP3    H258506   6.687   0.377   2.928 -0.5454  0.3334  0.1798
12339TIP3   OH258507   0.361   4.547   2.061  0.6941  0.4179 -0.6138
12339TIP3    H158508   0.423   4.511   1.997  1.9896  1.3356  0.0913
12339TIP3    H258509   0.345   4.474   2.122 -0.6801 -0.5190 -1.9991
12340TIP3   OH258510   3.943   0.728  12.577 -0.2308 -0.0080  0.1382
12340TIP3    H158511   3.923   0.751  12.667  1.3615  1.4502  0.1756
12340TIP3    H258512   3.860   0.737  12.531 -1.3340 -1.9486  1.6324
12341TIP3   OH258513   6.318   3.806   4.881 -0.5798  0.3196  0.0531
12341TIP3    H158514   6.335   3.890   4.923 -1.5545  0.3793  0.3601
12341TIP3    H258515   6.405   3.769   4.864 -0.1482  0.6929  1.3243
12342TIP3   OH258516   2.667   3.161   6.611 -0.3066  0.0339 -0.0578
12342TIP3    H158517   2.655   3.241   6.663  0.0183  0.3190 -0.4153
12342TIP3    H258518   2.741   3.181   6.554  0.5262 -0.9526  0.6615
12343TIP3   OH258519   6.436   1.327   2.521 -0.4199  0.5687 -0.5940
12343TIP3    H158520   6.481   1.386   2.582  2.0453  0.5512 -2.2583
12343TIP3    H258521   6.490   1.247   2.522 -2.2384 -0.7179 -0.3352
12344TIP3   OH258522   1.942   2.938  12.079 -0.8177  0.0338  0.0423
12344TIP3    H158523   1.919   3.028  12.104 -1.7744 -0.5250  1.2981
12344TIP3    H258524   1.887   2.883  12.135  0.8516 -1.3612  0.3898
12345TIP3   OH258525   1.462   0.465   5.062  0.0541  0.0719  0.1645
12345TIP3    H158526   1.456   0.517   4.982  1.0772 -0.6023 -0.3711
12345TIP3    H258527   1.371   0.443   5.082 -0.2196  0.1730 -0.8801
12346TIP3   OH258528   5.680   0.063  15.293  0.2333  0.1629 -0.0057
12346TIP3    H158529   5.635   0.000  15.350 -2.0240  1.5305 -0.1626
12346TIP3    H258530   5.656   0.036  15.204 -0.2756  0.8808 -0.0937
12347TIP3   OH258531   1.151   0.554  13.227 -0.4373 -0.1452  0.3924
12347TIP3    H158532   1.178   0.476  13.276  1.1248 -0.6619 -1.1923
12347TIP3    H258533   1.102   0.521  13.152 -1.3480  0.5280  0.6709
12348TIP3   OH258534   1.624   3.696  14.410 -0.1049  0.1223 -0.0029
12348TIP3    H158535   1.644   3.776  14.361 -2.3438  0.3489 -0.6327
12348TIP3    H258536   1.641   3.625  14.349  0.5727  0.1810  0.1079
12349TIP3   OH258537   3.072   2.341   1.111 -0.1797 -0.8301  0.4128
12349TIP3    H158538   3.025   2.302   1.038 -0.9419  1.4302 -0.3772
12349TIP3    H258539   3.143   2.391   1.070 -0.2733 -0.0030  1.2118
12350TIP3   OH258540   5.942   1.641  15.395 -0.0629 -0.3912 -0.3206
12350TIP3    H158541   6.011   1.618  15.456 -1.3897 -0.0417  1.3704
12350TIP3    H258542   5.902   1.720  15.431 -1.6880 -0.8841 -0.9568
12351TIP3   OH258543   3.483   5.469   6.508  0.2638  0.0422 -0.7458
12351TIP3    H158544   3.518   5.488   6.595 -0.1878 -2.7658  0.1623
12351TIP3    H258545   3.405   5.523   6.501  1.4156  1.8568 -0.3233
12352TIP3   OH258546   3.962   5.037   5.272  0.7219 -0.4080  0.1719
12352TIP3    H158547   3.965   4.944   5.292  0.7129 -0.6354 -0.7976
12352TIP3    H258548   4.053   5.066   5.277  0.7236 -0.4704  0.4799
12353TIP3   OH258549   1.390   6.632   2.166  0.2923 -0.6374 -0.0573
12353TIP3    H158550   1.378   6.625   2.071  2.7103 -0.4996 -0.4479
12353TIP3    H258551   1.441   6.712   2.177 -0.2191 -0.4924  1.4093
12354TIP3   OH258552   0.661   0.991   4.327 -0.2948 -0.2096  0.2527
12354TIP3    H158553   0.691   0.952   4.409  0.0684  0.4921  0.4552
12354TIP3    H258554   0.577   0.949   4.310  0.5951 -1.9311 -0.1218
12355TIP3   OH258555   0.205   2.861  15.899 -0.3616  0.3767 -0.6540
12355TIP3    H158556   0.125   2.893  15.858  0.6108  2.0414 -1.3600
12355TIP3    H258557   0.251   2.940  15.929  0.4454 -0.5989  0.8776
12356TIP3   OH258558   0.116   5.569   1.732  0.2267  0.0415 -0.3789
12356TIP3    H158559   0.073   5.488   1.761  0.2768 -0.2026 -0.9763
12356TIP3    H258560   0.180   5.587   1.802  0.0807 -0.3264 -0.1421
12357TIP3   OH258561   2.376   6.308   6.474  0.1216 -0.6037 -0.3949
12357TIP3    H158562   2.294   6.316   6.424 -0.1606  0.5400  0.1981
12357TIP3    H258563   2.384   6.214   6.491 -0.8614 -0.7860 -0.8106
12358TIP3   OH258564   0.264   5.065   2.116  0.2110  0.3829  0.1174
12358TIP3    H158565   0.268   5.020   2.032 -1.5443  1.3070 -0.4943
12358TIP3    H258566   0.177   5.044   2.151  0.4936  0.9276  1.1968
12359TIP3   OH258567   5.895   3.940  12.672  0.5688 -0.1515 -0.0650
12359TIP3    H158568   5.900   3.966  12.764 -0.5708 -0.6214  0.1520
12359TIP3    H258569   5.877   4.022  12.625  1.3816  0.1255  0.0909
12360TIP3   OH258570   4.378   5.243   4.784 -0.4431 -0.7667  0.1036
12360TIP3    H158571   4.456   5.210   4.829  0.2184  1.2887  0.5493
12360TIP3    H258572   4.317   5.264   4.855 -0.7117 -0.6973 -0.1489
12361TIP3   OH258573   5.598   4.160  15.185 -0.0849  0.2530  0.3124
12361TIP3    H158574   5.683   4.203  15.176  0.2078  0.2162  2.3586
12361TIP3    H258575   5.561   4.161  15.097  2.6016 -0.9762 -0.9492
12362TIP3   OH258576   2.966   3.754  13.276  0.2714  0.1966  0.1002
12362TIP3    H158577   2.902   3.773  13.207  0.7069  0.2687 -0.2926
12362TIP3    H258578   3.042   3.719  13.229  0.6635  0.4620  0.5232
12363TIP3   OH258579   0.226   4.184  10.538  0.1504  0.0203 -0.0696
12363TIP3    H158580   0.147   4.225  10.504  0.1796 -0.1716 -0.3684
12363TIP3    H258581   0.200   4.093  10.557  0.6919 -0.4960 -1.6421
12364TIP3   OH258582   3.714   2.519   2.883  0.3940 -0.1368  0.6154
12364TIP3    H158583   3.755   2.433   2.873 -0.7823 -0.6630  0.1173
12364TIP3    H258584   3.677   2.539   2.796 -0.2962  0.3596  1.0086
12365TIP3   OH258585   2.116   6.796   0.948  0.9077 -0.2040  0.0359
12365TIP3    H158586   2.199   6.763   0.981  0.0593 -2.4280  0.0906
12365TIP3    H258587   2.083   6.726   0.892 -1.5809 -0.0179  1.1303
12366TIP3   OH258588   3.164   0.427   2.282  0.0213  0.2193  0.1036
12366TIP3    H158589   3.180   0.359   2.216 -0.7746  0.1468 -0.0261
12366TIP3    H258590   3.129   0.501   2.233 -1.9280 -0.3218  0.5653
12367TIP3   OH258591   4.931   4.711  16.958 -0.1407 -0.0840  0.1874
12367TIP3    H158592   4.994   4.678  16.894  1.7445 -0.0034  1.9340
12367TIP3    H258593   4.946   4.806  16.959  0.1581 -0.1386  1.0707
12368TIP3   OH258594   3.056   3.879  12.597  0.8235 -0.1694  0.0461
12368TIP3    H158595   3.025   3.960  12.639 -0.6035  0.3774 -1.9104
12368TIP3    H258596   3.135   3.906  12.549  0.9623 -0.1808  0.2691
12369TIP3   OH258597   0.867   4.977  14.298 -0.0675  0.2737  0.0591
12369TIP3    H158598   0.776   4.998  14.319  0.0192 -0.0921  0.8281
12369TIP3    H258599   0.864   4.945  14.208 -0.4725  1.7182 -0.4619
12370TIP3   OH258600   2.976   5.640  16.828  0.1128  0.6358 -0.3045
12370TIP3    H158601   2.963   5.630  16.734  2.9472 -2.7789 -0.5517
12370TIP3    H258602   2.898   5.601  16.868 -0.0355 -0.1562 -1.3220
12371TIP3   OH258603   5.378   4.339   0.995 -0.0979 -0.3094  0.2006
12371TIP3    H158604   5.415   4.280   0.929 -0.9646  0.1598 -0.7511
12371TIP3    H258605   5.284   4.322   0.991 -0.2658  0.4883  0.5505
12372TIP3   OH258606   6.600   3.612  15.200 -0.4685  0.0719 -0.1497
12372TIP3    H158607   6.630   3.535  15.249  0.3259  0.9087  0.7248
12372TIP3    H258608   6.511   3.589  15.171 -0.5163 -0.8949  0.7050
12373TIP3   OH258609   0.587   5.748   0.002 -0.5763  0.2945 -0.3980
12373TIP3    H158610   0.610   5.691  -0.071  0.5284  0.5876 -0.2879
12373TIP3    H258611   0.599   5.693   0.080 -2.0459 -0.1131 -0.4295
12374TIP3   OH258612   6.568   0.155  15.480 -0.1896  0.0795 -0.0656
12374TIP3    H158613   6.662   0.174  15.476  0.0235 -0.8670  0.1455
12374TIP3    H258614   6.562   0.071  15.526 -1.1060 -0.1347 -0.5380
12375TIP3   OH258615   6.345   1.423   1.594  0.2427  1.1866  0.1284
12375TIP3    H158616   6.385   1.348   1.550  0.8080  1.1537  0.6840
12375TIP3    H258617   6.264   1.389   1.631  0.1012  1.0494 -0.3008
12376TIP3   OH258618   5.591   3.997  15.686  0.6385 -0.2445  0.4381
12376TIP3    H158619   5.673   4.017  15.641  0.8725  0.3658  1.1112
12376TIP3    H258620   5.602   3.906  15.715  1.5299  0.1515  1.4296
12377TIP3   OH258621   3.340   3.517   0.358 -0.1229 -0.6889 -0.1605
12377TIP3    H158622   3.327   3.449   0.424  0.1412 -1.4545 -0.8892
12377TIP3    H258623   3.291   3.485   0.281 -0.1383  0.0243 -0.4530
12378TIP3   OH258624   2.988   6.267   1.631 -0.3673 -0.6270 -0.3134
12378TIP3    H158625   2.995   6.198   1.697 -1.5838 -1.3808 -0.9481
12378TIP3    H258626   3.075   6.272   1.592  0.5736  0.2669  1.7394
12379TIP3   OH258627   5.381   0.834   4.347 -0.1745  0.2328  0.2381
12379TIP3    H158628   5.340   0.766   4.401  1.4589  0.0216  1.2830
12379TIP3    H258629   5.331   0.913   4.368 -1.1318 -0.3284  0.1681
12380TIP3   OH258630   1.771   2.556  11.316  0.6516  0.8777 -0.2095
12380TIP3    H158631   1.836   2.600  11.262  2.3077 -1.7937 -0.5232
12380TIP3    H258632   1.815   2.542  11.400  0.5904 -1.0501 -0.4520
12381TIP3   OH258633   1.512   3.184   4.700 -0.3417  0.2519  0.1900
12381TIP3    H158634   1.559   3.216   4.622 -0.9567  1.4372  0.2741
12381TIP3    H258635   1.446   3.125   4.665 -0.4618  0.5968 -0.1827
12382TIP3   OH258636   2.699   0.109  12.720 -0.6443  0.3364 -0.0387
12382TIP3    H158637   2.731   0.035  12.668 -0.8687  1.1707 -1.4133
12382TIP3    H258638   2.777   0.143  12.764 -0.6586 -1.1603  1.2542
12383TIP3   OH258639   0.862   4.070   5.793 -0.3251 -0.1216  0.2322
12383TIP3    H158640   0.869   3.978   5.765  0.3900  0.6334 -2.3950
12383TIP3    H258641   0.773   4.078   5.826 -1.2343 -1.2717 -1.7171
12384TIP3   OH258642   5.723   0.676  11.315 -0.0054  0.4144  0.0320
12384TIP3    H158643   5.647   0.633  11.275  1.1179 -0.9788 -0.7104
12384TIP3    H258644   5.763   0.726  11.244  0.4249  0.1791  0.1020
12385TIP3   OH258645   0.049   2.085  13.049 -0.6143 -0.2852 -0.1904
12385TIP3    H158646   0.017   1.998  13.074  0.9964 -1.2261 -1.2648
12385TIP3    H258647   0.028   2.141  13.124  2.7005 -2.6410  2.8264
12386TIP3   OH258648   2.386   4.571   5.060 -0.0227 -0.2551  0.4089
12386TIP3    H158649   2.302   4.549   5.100 -0.3280 -0.9482 -0.5696
12386TIP3    H258650   2.424   4.635   5.119  0.5739 -2.8039  3.0308
12387TIP3   OH258651   0.721   3.191  14.376  0.1952 -0.0487  0.1720
12387TIP3    H158652   0.748   3.124  14.314  1.5050  0.2487  0.3933
12387TIP3    H258653   0.700   3.142  14.456  1.5564 -0.1838  0.4679
12388TIP3   OH258654   3.062   1.378   5.832 -0.4187 -0.4269  0.2001
12388TIP3    H158655   3.093   1.435   5.903  0.0191  0.2945 -0.5516
12388TIP3    H258656   3.061   1.291   5.871 -2.2995  0.2179  1.7597
12389TIP3   OH258657   1.634   4.430  13.838  0.3526  0.0822 -0.4656
12389TIP3    H158658   1.712   4.486  13.836  1.7308 -1.7700 -1.7133
12389TIP3    H258659   1.590   4.449  13.755 -1.5968  2.3917  0.9452
12390TIP3   OH258660   1.237   0.843  14.266 -0.6094  0.0162  0.2244
12390TIP3    H158661   1.301   0.904  14.303 -0.4268 -0.6386  1.0359
12390TIP3    H258662   1.213   0.787  14.340 -0.1705 -1.3877 -0.6565
12391TIP3   OH258663   0.158   3.186   3.580  0.1133  0.6270  0.3884
12391TIP3    H158664   0.101   3.163   3.507 -0.6004 -1.9059  1.6141
12391TIP3    H258665   0.107   3.165   3.659  1.1046  2.6050  1.6512
12392TIP3   OH258666   2.639   1.652   4.475  0.5080 -0.1246 -0.3411
12392TIP3    H158667   2.695   1.725   4.501  1.8841 -1.6013  1.0609
12392TIP3    H258668   2.699   1.580   4.458 -0.8570 -1.1643 -1.0068
12393TIP3   OH258669   1.977   4.972  16.940 -0.6687  0.1879 -0.0580
12393TIP3    H158670   1.962   5.053  16.890 -1.6405  0.2926  0.3780
12393TIP3    H258671   1.986   5.002  17.030  0.2735 -0.0789 -0.0576
12394TIP3   OH258672   3.126   4.568   0.085 -0.1992  0.9115 -0.2638
12394TIP3    H158673   3.201   4.609   0.043  0.8542  0.1341  0.7751
12394TIP3    H258674   3.134   4.592   0.177  0.6451 -1.7907  0.4535
12395TIP3   OH258675   1.851   0.371   0.350 -0.1673 -0.5818  0.0430
12395TIP3    H158676   1.806   0.295   0.386 -0.1307  0.0518  1.4702
12395TIP3    H258677   1.782   0.434   0.332 -0.0382 -0.3034  0.5022
12396TIP3   OH258678   4.279   3.734   5.068 -0.0260  0.0396  0.4009
12396TIP3    H158679   4.323   3.650   5.072 -0.6987 -0.3177  0.3896
12396TIP3    H258680   4.338   3.790   5.017 -0.1544 -0.7837 -0.6765
12397TIP3   OH258681   0.090   5.802   6.048  0.2227 -0.3915  0.0408
12397TIP3    H158682   0.081   5.717   6.005  0.6152  0.3557 -1.6453
12397TIP3    H258683   0.007   5.847   6.029  0.5046  0.0431 -0.1927
12398TIP3   OH258684   3.095   5.357   1.179  0.1156  0.4274  0.0572
12398TIP3    H158685   3.143   5.418   1.235 -0.3520 -0.1812  1.1604
12398TIP3    H258686   3.010   5.398   1.167 -0.6935 -0.5795  1.9387
12399TIP3   OH258687   6.646   5.065   3.559 -0.1934  0.0971 -0.4174
12399TIP3    H158688   6.639   5.040   3.467  0.2732 -0.5617 -0.2807
12399TIP3    H258689   6.620   4.987   3.607  4.0066 -1.2588  0.0622
12400TIP3   OH258690   2.818   4.369   3.031 -0.2611 -0.0907 -0.8529
12400TIP3    H158691   2.803   4.287   2.984  0.5602 -0.7073 -0.0627
12400TIP3    H258692   2.809   4.437   2.964 -2.1309 -0.7067 -1.3012
12401TIP3   OH258693   4.002   0.344   5.138 -0.3913  0.6097 -0.1792
12401TIP3    H158694   4.018   0.387   5.222  0.0889  0.3175 -0.1171
12401TIP3    H258695   4.089   0.328   5.102 -0.5449 -0.5196 -0.0902
12402TIP3   OH258696   1.234   1.192  15.612  0.8033 -0.0183 -0.9729
12402TIP3    H158697   1.306   1.242  15.573  2.5814 -0.1990  1.7518
12402TIP3    H258698   1.259   1.100  15.599  0.8199 -0.0874 -0.4908
12403TIP3   OH258699   1.113   3.445  16.087  0.6142 -0.5284  0.3756
12403TIP3    H158700   1.070   3.491  16.015 -0.1744  0.1887  1.2757
12403TIP3    H258701   1.046   3.438  16.155  1.8013  0.3790  1.7143
12404TIP3   OH258702   2.930   1.799   2.246  0.5023  0.3678  0.0035
12404TIP3    H158703   2.887   1.868   2.296  2.0545  0.6959  0.9640
12404TIP3    H258704   2.987   1.755   2.310  1.4302 -0.1649 -1.1495
12405TIP3   OH258705   3.856   1.879   5.624 -0.2864 -0.2109  0.3953
12405TIP3    H158706   3.768   1.891   5.660 -1.5392  0.3864 -2.5840
12405TIP3    H258707   3.880   1.964   5.589  1.1414 -0.5853  0.3952
12406TIP3   OH258708   1.940   1.526   5.719 -0.2978  0.1501 -0.1146
12406TIP3    H158709   1.930   1.576   5.800 -0.7905  1.5174 -0.9853
12406TIP3    H258710   1.879   1.567   5.658  0.5996 -0.3645 -1.4035
12407TIP3   OH258711   5.834   5.533  15.595 -0.6531  0.3750  0.2422
12407TIP3    H158712   5.769   5.465  15.577 -1.5097  1.0211  0.7911
12407TIP3    H258713   5.785   5.601  15.641  0.5486  0.5893  1.2732
12408TIP3   OH258714   5.637   3.280  11.791 -0.1432  0.0292  0.6027
12408TIP3    H158715   5.700   3.235  11.735 -1.8046 -0.4754 -0.9316
12408TIP3    H258716   5.687   3.351  11.832  1.0374  0.7354 -1.8978
12409TIP3   OH258717   6.140   6.684   6.336 -0.5004  0.0454  0.0368
12409TIP3    H158718   6.201   6.747   6.296 -0.6216 -0.6136 -1.2469
12409TIP3    H258719   6.183   6.658   6.418 -0.8555  2.4243  1.0650
12410TIP3   OH258720   1.227   5.516  15.210  0.0778  0.1179  0.4962
12410TIP3    H158721   1.141   5.557  15.193  1.0071  2.8105  1.6638
12410TIP3    H258722   1.211   5.456  15.282 -0.6291  1.5708  1.5999
12411TIP3   OH258723   0.516   4.157  16.195  0.8080 -0.5150  0.5916
12411TIP3    H158724   0.591   4.192  16.242  0.9462  0.3570 -0.2536
12411TIP3    H258725   0.552   4.124  16.113  0.0918  1.2980 -0.5044
12412TIP3   OH258726   4.698   2.981   5.253  0.1446  0.5334 -0.8829
12412TIP3    H158727   4.744   2.928   5.187 -1.8279  0.2229 -2.1063
12412TIP3    H258728   4.723   2.943   5.337 -1.1728 -2.4155 -1.7035
12413TIP3   OH258729   6.261   5.044  13.579  0.6544  0.2389 -0.0770
12413TIP3    H158730   6.209   5.120  13.604 -0.2077 -0.3020 -0.1797
12413TIP3    H258731   6.279   5.000  13.662 -0.6424 -0.5641 -0.1950
12414TIP3   OH258732   2.135   0.760  15.681 -0.1715  0.7585 -0.3566
12414TIP3    H158733   2.136   0.801  15.594 -0.6240  3.6651  0.8944
12414TIP3    H258734   2.071   0.689  15.673  0.1409  0.6370 -2.4863
12415TIP3   OH258735   4.642   3.958   2.800  0.5521  0.4279 -0.4679
12415TIP3    H158736   4.704   3.910   2.746  1.3788  1.8527 -0.8375
12415TIP3    H258737   4.654   4.049   2.774 -0.5973  0.8933  0.5718
12416TIP3   OH258738   5.110   2.564  11.499 -0.3414 -0.6551 -0.8461
12416TIP3    H158739   5.043   2.582  11.565 -0.5862 -2.3502 -0.5789
12416TIP3    H258740   5.193   2.577  11.544 -0.5065 -1.8360 -0.1627
12417TIP3   OH258741   2.062   0.337  15.591  0.1045  0.5782  0.3496
12417TIP3    H158742   2.133   0.281  15.622 -1.3171 -0.5305  1.8093
12417TIP3    H258743   2.102   0.393  15.525  2.4241  0.3028  1.4168
12418TIP3   OH258744   3.847   5.866   4.103  0.2037 -0.3105  0.0314
12418TIP3    H158745   3.933   5.908   4.117  0.6277 -0.5209 -1.6464
12418TIP3    H258746   3.859   5.777   4.134  1.3207 -0.9714 -2.0589
12419TIP3   OH258747   6.177   5.251   4.108  0.3003  0.1985  0.2376
12419TIP3    H158748   6.222   5.246   4.192 -0.4904  0.7986  0.7164
12419TIP3    H258749   6.243   5.225   4.043  0.7988 -0.6440  1.0717
12420TIP3   OH258750   6.226   3.590   5.421 -0.4084  0.0929 -0.1202
12420TIP3    H158751   6.240   3.636   5.339 -1.8646  0.5833 -0.1176
12420TIP3    H258752   6.314   3.561   5.448  0.5857  2.8403 -0.1311
12421TIP3   OH258753   0.005   3.920   0.903  0.3036  0.9033 -0.3334
12421TIP3    H158754  -0.067   3.976   0.874  0.6274  1.4077 -0.1733
12421TIP3    H258755   0.031   3.872   0.825 -0.4841  0.4095 -0.2935
12422TIP3   OH258756   0.179   5.097  11.546  0.7428 -0.3415  0.1473
12422TIP3    H158757   0.226   5.036  11.603  0.8294 -0.0935  0.3447
12422TIP3    H258758   0.246   5.130  11.486  0.8113 -0.0312  0.3914
12423TIP3   OH258759   1.854   5.092  13.689  0.1079  0.1399 -0.7576
12423TIP3    H158760   1.772   5.048  13.670 -0.7109 -0.2102  2.8945
12423TIP3    H258761   1.852   5.172  13.636 -2.1138 -0.3146 -1.4349
12424TIP3   OH258762   6.226   1.843   4.308  0.8013  0.2253 -0.4492
12424TIP3    H158763   6.144   1.842   4.356  1.0891 -0.8877  0.0505
12424TIP3    H258764   6.294   1.842   4.375  1.2484  1.7838 -0.8465
12425TIP3   OH258765   5.648   1.605   3.126  0.6968  0.1568 -0.9120
12425TIP3    H158766   5.720   1.560   3.082  1.8437 -0.0513  1.0655
12425TIP3    H258767   5.590   1.535   3.155  1.6593  0.0092  0.7606
12426TIP3   OH258768   6.217   4.457  13.960  0.0659 -0.3097 -0.1164
12426TIP3    H158769   6.181   4.545  13.952 -0.3553 -0.6147 -2.2857
12426TIP3    H258770   6.146   4.405  13.997 -0.8046 -0.3384 -1.7546
12427TIP3   OH258771   3.535   5.904  11.740  0.4466  0.7189 -0.3270
12427TIP3    H158772   3.549   5.903  11.645  0.5530  1.6107 -0.3316
12427TIP3    H258773   3.540   5.997  11.763  0.0172  0.5384  0.4930
12428TIP3   OH258774   1.392   6.256  10.157  0.6626 -0.3832 -0.1713
12428TIP3    H158775   1.385   6.215  10.243  1.8701  0.0071  0.1309
12428TIP3    H258776   1.314   6.226  10.110 -0.1304 -0.4338  1.1161
12429TIP3   OH258777   2.514   5.114   4.866 -0.4618  0.7864 -0.4009
12429TIP3    H158778   2.427   5.152   4.851 -0.0558  0.7898 -3.1756
12429TIP3    H258779   2.565   5.185   4.906 -1.3966  1.1378  0.2038
12430TIP3   OH258780   3.232   3.017  13.365  0.4383 -0.4457 -0.2722
12430TIP3    H158781   3.148   3.028  13.409 -0.0481 -1.2292 -0.9940
12430TIP3    H258782   3.286   2.969  13.428  0.5214  0.4509  0.3742
12431TIP3   OH258783   5.717   2.387  11.163  1.0672  0.4937  0.4317
12431TIP3    H158784   5.806   2.356  11.178  1.3458  0.5859 -0.9008
12431TIP3    H258785   5.727   2.462  11.104  0.2472  1.8444  1.9266
12432TIP3   OH258786   1.265   1.519  16.052 -0.7091 -0.4943 -0.4121
12432TIP3    H158787   1.319   1.460  16.104 -0.4576 -0.0894 -0.2110
12432TIP3    H258788   1.327   1.580  16.012 -0.9932 -0.1899 -0.3892
12433TIP3   OH258789   6.058   2.278  17.072  0.1745  0.0880 -0.2251
12433TIP3    H158790   6.137   2.225  17.070 -0.0274 -0.2145 -0.4004
12433TIP3    H258791   6.066   2.337  16.997  1.4231  1.8386  1.2327
12434TIP3   OH258792   4.092   2.375  11.796  0.6082 -0.3127  0.0237
12434TIP3    H158793   4.067   2.422  11.875  0.5707  0.0192 -0.1842
12434TIP3    H258794   4.021   2.392  11.734  0.3772 -0.9961  0.0817
12435TIP3   OH258795   1.619   1.947  16.427 -0.1325 -0.3771 -0.3620
12435TIP3    H158796   1.544   1.917  16.477  1.0399 -0.5161  1.4231
12435TIP3    H258797   1.632   2.038  16.455  0.8755 -0.6301  0.0680
12436TIP3   OH258798   5.160   2.736   1.016  0.2934  0.0772  0.2096
12436TIP3    H158799   5.079   2.687   1.007  0.0258  0.0717  2.2685
12436TIP3    H258800   5.224   2.685   0.966 -0.9357  0.1065 -1.4808
12437TIP3   OH258801   1.940   4.670   1.842  0.7754  0.4272 -0.6008
12437TIP3    H158802   1.985   4.704   1.919 -0.2266 -2.5183  1.4755
12437TIP3    H258803   1.847   4.674   1.865  0.3338  0.8197 -2.3075
12438TIP3   OH258804   3.752   5.458   4.681  0.0334 -0.2679 -0.2041
12438TIP3    H158805   3.757   5.502   4.596  0.2077 -0.5810 -0.3548
12438TIP3    H258806   3.706   5.521   4.738 -0.4476 -0.2300 -0.6328
12439TIP3   OH258807   0.921   5.564   0.786  0.1862  0.1072  0.0499
12439TIP3    H158808   0.945   5.529   0.872  0.0717  1.2614  0.5738
12439TIP3    H258809   0.864   5.498   0.748  1.1007 -0.9199  0.3968
12440TIP3   OH258810   4.689   6.666   5.194 -0.1759 -0.3764 -0.1109
12440TIP3    H158811   4.641   6.590   5.160  2.1348 -2.4289  0.9222
12440TIP3    H258812   4.768   6.671   5.141 -0.6649  1.9764 -0.7602
12441TIP3   OH258813   6.750   1.991  12.823  0.3282  0.5365 -0.2607
12441TIP3    H158814   6.751   2.062  12.758  2.0278  1.1490  0.3826
12441TIP3    H258815   6.785   2.031  12.903 -1.5386 -0.2489  1.0307
12442TIP3   OH258816   4.158   5.002  12.879 -0.0141  1.0101 -0.3945
12442TIP3    H158817   4.189   4.923  12.835 -1.1893 -0.4499  1.2671
12442TIP3    H258818   4.160   5.069  12.811  1.5786 -0.2666 -1.7161
12443TIP3   OH258819   4.879   4.256  12.088 -0.3251  0.2513 -0.1046
12443TIP3    H158820   4.819   4.274  12.160  0.8614  1.8550  0.5406
12443TIP3    H258821   4.957   4.219  12.131 -0.1428 -0.0830 -0.7165
12444TIP3   OH258822   2.095   5.702  11.638 -0.2496  0.3467 -0.0857
12444TIP3    H158823   2.148   5.635  11.594  1.9218  1.3783  0.7944
12444TIP3    H258824   2.057   5.657  11.713  1.2655  0.0820  0.5508
12445TIP3   OH258825   2.803   5.547   3.654  0.5241  0.3276 -0.3491
12445TIP3    H158826   2.746   5.470   3.657  0.2521  0.4769 -1.4185
12445TIP3    H258827   2.842   5.545   3.567  2.9847 -0.3273  0.6792
12446TIP3   OH258828   3.778   5.256   5.284  0.2831 -0.5571  0.1064
12446TIP3    H158829   3.851   5.197   5.264  0.8473  0.4896 -1.0591
12446TIP3    H258830   3.702   5.216   5.242  0.5765 -0.6529 -0.3371
12447TIP3   OH258831   5.978   1.221   3.457 -0.1232 -0.0857 -0.6458
12447TIP3    H158832   6.045   1.196   3.520  0.9903 -0.6881 -2.0280
12447TIP3    H258833   5.975   1.317   3.462 -0.8611 -0.1474  1.0818
12448TIP3   OH258834   3.749   2.955  15.490  0.8331 -0.7842 -0.0034
12448TIP3    H158835   3.824   2.994  15.444  1.4020 -0.3317  1.2526
12448TIP3    H258836   3.752   2.862  15.466  1.0774 -0.5473 -0.9153
12449TIP3   OH258837   3.690   6.714  12.519  0.4008 -0.2925 -0.0391
12449TIP3    H158838   3.729   6.761  12.592  0.2868  0.6110 -0.5412
12449TIP3    H258839   3.764   6.693  12.461  0.4836 -0.9559  0.3015
12450TIP3   OH258840   2.276   3.612   1.891  0.3342 -0.5106 -0.6992
12450TIP3    H158841   2.238   3.690   1.850  2.4092  0.2352 -1.2967
12450TIP3    H258842   2.219   3.540   1.863 -1.1766  0.6544 -0.7674
12451TIP3   OH258843   6.012   1.621  14.697 -0.0552 -0.1847 -0.6962
12451TIP3    H158844   5.927   1.650  14.665 -0.0125  0.3124 -0.3664
12451TIP3    H258845   5.999   1.530  14.722  0.1892 -0.9851 -3.1896
12452TIP3   OH258846   3.013   6.228  17.104 -0.3258 -0.4853  0.2197
12452TIP3    H158847   2.965   6.151  17.135  0.2390 -0.2991  1.6341
12452TIP3    H258848   3.077   6.245  17.173  0.5018  0.4118 -0.7404
12453TIP3   OH258849   1.365   4.691  14.918 -0.0108  0.4524 -0.0040
12453TIP3    H158850   1.449   4.713  14.877 -0.1817 -0.1061 -0.6560
12453TIP3    H258851   1.317   4.643  14.851 -1.0572  1.2005  0.1890
12454TIP3   OH258852   5.910   2.203   0.980  0.3370 -0.3238 -0.4866
12454TIP3    H158853   5.915   2.110   0.960 -0.8039  0.0439 -2.7786
12454TIP3    H258854   5.818   2.227   0.965  0.4893  1.0996  0.5376
12455TIP3   OH258855   3.323   1.618  12.145  0.5787  0.6918 -0.8120
12455TIP3    H158856   3.323   1.602  12.240  1.3979  2.4781 -0.4434
12455TIP3    H258857   3.416   1.617  12.122  0.4762  1.5692 -1.3110
12456TIP3   OH258858   0.517   1.265  15.646 -0.6585 -0.4669 -0.7198
12456TIP3    H158859   0.500   1.359  15.653 -0.6235 -0.5576  0.7346
12456TIP3    H258860   0.591   1.249  15.704 -2.5080 -1.8526  1.4240
12457TIP3   OH258861   2.617   1.598   5.934 -0.3850 -0.2600 -0.0196
12457TIP3    H158862   2.584   1.524   5.985 -0.0066 -0.8485 -0.6281
12457TIP3    H258863   2.645   1.560   5.851  3.8854 -0.1896  1.1805
12458TIP3   OH258864   6.186   6.103   0.463  0.3183 -0.8817 -0.6839
12458TIP3    H158865   6.153   6.066   0.381 -3.3947 -0.1547  0.2699
12458TIP3    H258866   6.169   6.197   0.455 -1.7857 -0.9916  1.4794
12459TIP3   OH258867   0.720   1.739  16.293  0.4393  0.0996  0.5643
12459TIP3    H158868   0.717   1.738  16.197  2.9168 -0.4687  0.4137
12459TIP3    H258869   0.720   1.831  16.317  1.4658  0.2899 -0.1127
12460TIP3   OH258870   4.483   5.067   5.719 -0.0274 -0.1303 -0.2676
12460TIP3    H158871   4.454   5.089   5.808  0.4802 -0.1879 -0.0867
12460TIP3    H258872   4.555   5.127   5.702 -0.3649  0.1310 -0.7888
12461TIP3   OH258873   5.523   1.054  17.088 -0.3979  0.0392  0.3259
12461TIP3    H158874   5.443   1.036  17.138  1.1121  0.3183  3.0427
12461TIP3    H258875   5.518   1.148  17.068 -0.5437  0.1584  0.9077
12462TIP3   OH258876   5.928   5.820   2.704  0.2144 -0.9333 -0.4507
12462TIP3    H158877   5.980   5.811   2.624 -1.4580 -0.1177 -1.6840
12462TIP3    H258878   5.982   5.874   2.761  0.8372 -0.2955 -1.6038
12463TIP3   OH258879   3.745   2.878   4.264  0.4640 -0.1742  0.4046
12463TIP3    H158880   3.771   2.789   4.240 -0.3440 -0.6180  1.0860
12463TIP3    H258881   3.650   2.877   4.259  0.4634  0.7689  0.0686
12464TIP3   OH258882   6.471   2.193   1.437  0.7704 -0.4685  0.0746
12464TIP3    H158883   6.500   2.232   1.354  2.4817 -0.2538  0.7322
12464TIP3    H258884   6.551   2.178   1.486  0.0038 -2.9240  0.7248
12465TIP3   OH258885   4.405   3.953   5.749 -0.2653 -0.3740  0.1719
12465TIP3    H158886   4.369   3.925   5.833 -0.6081 -0.1188  0.1126
12465TIP3    H258887   4.500   3.948   5.761 -0.3010  0.2421  0.7789
12466TIP3   OH258888   2.848   2.366  14.292 -0.3118 -0.3734 -0.5384
12466TIP3    H158889   2.834   2.388  14.384  1.4360  0.0315 -0.3299
12466TIP3    H258890   2.831   2.272  14.287  0.2164 -0.5245  0.3495
12467TIP3   OH258891   4.546   4.381  14.543 -0.0995 -0.1166 -0.4145
12467TIP3    H158892   4.516   4.423  14.462 -0.1212 -0.9594 -0.8507
12467TIP3    H258893   4.631   4.422  14.561 -0.1659  0.1865 -0.7791
12468TIP3   OH258894   6.612   3.977   4.107  0.9595  0.1345  0.0478
12468TIP3    H158895   6.537   4.033   4.127  0.3329 -0.6948  0.1125
12468TIP3    H258896   6.579   3.919   4.038  0.5616 -2.1661  2.0276
12469TIP3   OH258897   6.305   1.940   3.414 -0.2563 -0.4001 -0.0743
12469TIP3    H158898   6.285   1.917   3.323 -1.3267 -0.2570  0.1154
12469TIP3    H258899   6.266   1.870   3.466  0.6230 -0.6462  0.2720
12470TIP3   OH258900   5.347   0.708  11.595 -0.9942  0.2375  0.5035
12470TIP3    H158901   5.278   0.649  11.564 -0.6109 -0.2165  0.4958
12470TIP3    H258902   5.345   0.781  11.533  0.0578 -0.8664 -0.8999
12471TIP3   OH258903   4.721   4.538  13.494 -0.5285  0.1670  0.4411
12471TIP3    H158904   4.690   4.533  13.404 -0.1732 -0.7945  0.3621
12471TIP3    H258905   4.718   4.448  13.526 -0.3597  0.4530  1.2947
12472TIP3   OH258906   1.944   1.316  13.653  0.5393  0.2387  1.0320
12472TIP3    H158907   1.945   1.226  13.620 -1.0120  0.9771 -1.2757
12472TIP3    H258908   2.007   1.316  13.725  2.1295 -2.2055 -0.2259
12473TIP3   OH258909   1.656   1.478  11.822 -0.0794  0.1260 -0.3137
12473TIP3    H158910   1.734   1.533  11.816 -1.2874  1.8196 -1.2032
12473TIP3    H258911   1.643   1.465  11.916 -0.3598  2.3179  0.0108
12474TIP3   OH258912   6.803   1.751   3.332  0.1090  0.1565  0.6515
12474TIP3    H158913   6.899   1.754   3.331  0.1423  0.9410 -2.2833
12474TIP3    H258914   6.781   1.680   3.271 -1.1491  1.6105 -0.6457
12475TIP3   OH258915   2.979   6.337   3.693 -0.1911 -0.4028  0.0500
12475TIP3    H158916   2.932   6.323   3.611  0.6318  1.0267 -0.7049
12475TIP3    H258917   2.977   6.252   3.736 -2.6504 -0.6141 -0.3540
12476TIP3   OH258918   4.048   6.283   4.073  0.1617  0.0924  0.2833
12476TIP3    H158919   4.067   6.214   4.136  1.5445  0.4928  0.3187
12476TIP3    H258920   4.129   6.293   4.023 -0.8951 -0.2422 -1.5944
12477TIP3   OH258921   1.813   0.061  12.950 -0.6489  0.4314 -0.2232
12477TIP3    H158922   1.737   0.039  12.898 -0.3459  0.0949 -0.5251
12477TIP3    H258923   1.802   0.010  13.031 -0.2057 -0.4519 -0.7091
12478TIP3   OH258924   1.101   3.422   0.025  0.2260  0.0526  0.8572
12478TIP3    H158925   1.159   3.412   0.101  0.1439  0.3715  0.9605
12478TIP3    H258926   1.101   3.516   0.006  0.1987 -0.0169  0.4992
12479TIP3   OH258927   5.853   4.497   1.158 -0.3526  0.3665  0.4405
12479TIP3    H158928   5.817   4.557   1.092 -0.9642 -0.7470 -0.2920
12479TIP3    H258929   5.908   4.438   1.108  0.3402  0.3888  1.1673
12480TIP3   OH258930   6.152   1.599   4.142 -0.3002 -0.0717 -0.3755
12480TIP3    H158931   6.167   1.575   4.233 -0.5571 -0.2970 -0.3902
12480TIP3    H258932   6.098   1.679   4.147  2.1035  1.6687 -0.3039
12481TIP3   OH258933   0.632   3.293  11.705  0.5892  0.2374 -0.6007
12481TIP3    H158934   0.666   3.204  11.697  1.5398  0.4244  0.9615
12481TIP3    H258935   0.575   3.303  11.629  0.8177 -1.5341 -1.0660
12482TIP3   OH258936   2.222   3.545  14.356  0.0486 -0.2034 -0.1364
12482TIP3    H158937   2.301   3.554  14.302  0.5854 -2.0869  0.2349
12482TIP3    H258938   2.226   3.618  14.417  1.7628 -0.4815  0.1388
12483TIP3   OH258939   0.151   1.398   4.744 -0.3009 -0.1325  0.0208
12483TIP3    H158940   0.133   1.401   4.838 -1.7541  2.0293 -0.2669
12483TIP3    H258941   0.197   1.480   4.726 -0.7727 -0.1291 -1.2757
12484TIP3   OH258942   1.303   4.241  12.306 -0.1585 -0.2247  0.2873
12484TIP3    H158943   1.293   4.331  12.276 -0.3197  0.5741  2.5086
12484TIP3    H258944   1.220   4.198  12.284 -0.3370  0.3572 -0.1901
12485TIP3   OH258945   2.656   5.457   0.503  0.1034  0.2807  0.2342
12485TIP3    H158946   2.611   5.395   0.561  2.2736 -0.4877  1.1704
12485TIP3    H258947   2.686   5.404   0.429  1.3103  0.3563  0.6622
12486TIP3   OH258948   2.705   0.120   1.211  0.1293 -0.0713  0.7573
12486TIP3    H158949   2.645   0.166   1.153  3.6656  1.8389 -1.8160
12486TIP3    H258950   2.723   0.037   1.166  1.7371  0.7768 -0.2971
12487TIP3   OH258951   4.046   2.199   2.631 -0.4147 -0.2082  0.0895
12487TIP3    H158952   3.976   2.215   2.694 -0.2818 -0.2736  0.2555
12487TIP3    H258953   4.102   2.276   2.637 -1.5287  0.7623 -1.4696
12488TIP3   OH258954   2.897   5.530   2.149  0.4744  0.4842  0.1512
12488TIP3    H158955   2.940   5.560   2.068  1.1402  1.8419  0.9716
12488TIP3    H258956   2.809   5.567   2.145 -0.2197 -1.1810 -0.8987
12489TIP3   OH258957   4.395   0.471  12.434 -0.0718 -0.1626 -0.2411
12489TIP3    H158958   4.301   0.483  12.447 -0.3660 -2.8277  0.6227
12489TIP3    H258959   4.412   0.509  12.348 -1.6901  1.3488  0.0333
12490TIP3   OH258960   5.935   5.777  14.883  0.2818 -0.1289 -0.5678
12490TIP3    H158961   5.904   5.836  14.952 -0.4708 -0.9895 -0.1400
12490TIP3    H258962   5.858   5.765  14.826  0.7182  0.0820 -1.2169
12491TIP3   OH258963   3.235   5.191  14.951  0.3858 -0.5835  0.4844
12491TIP3    H158964   3.210   5.099  14.961  1.6602 -1.0600 -0.4292
12491TIP3    H258965   3.164   5.240  14.992 -1.5653 -1.8741 -1.1840
12492TIP3   OH258966   6.675   5.050   4.626 -0.5284 -0.3009  0.3601
12492TIP3    H158967   6.731   5.107   4.573 -1.6065 -0.4401 -1.0122
12492TIP3    H258968   6.595   5.101   4.639 -1.1337 -1.1205 -0.0512
12493TIP3   OH258969   3.639   0.181   4.600 -1.1221  0.1186  0.3599
12493TIP3    H158970   3.695   0.117   4.556 -0.6786  1.1742 -0.6743
12493TIP3    H258971   3.584   0.129   4.659 -1.2524 -1.2845 -0.9431
12494TIP3   OH258972   4.454   6.339  14.801  0.1383  0.3560 -0.9567
12494TIP3    H158973   4.412   6.276  14.858  1.0880  1.5180  1.1376
12494TIP3    H258974   4.382   6.386  14.759 -0.5640 -0.8722 -1.1580
12495TIP3   OH258975   5.948   5.420  13.455 -0.2975  0.2984  0.1401
12495TIP3    H158976   6.005   5.434  13.380 -1.4327  0.3918 -0.7325
12495TIP3    H258977   5.897   5.500  13.463  0.0845  0.4567  1.2811
12496TIP3   OH258978   5.772   2.375   2.852  0.1244  0.3173 -0.1024
12496TIP3    H158979   5.727   2.301   2.811 -1.7635  0.4018  1.6598
12496TIP3    H258980   5.833   2.335   2.914 -0.0134  0.2077 -0.0361
12497TIP3   OH258981   3.169   1.101  11.781 -0.1103  0.0839 -0.1731
12497TIP3    H158982   3.199   1.177  11.832  0.7331 -1.1045  1.2156
12497TIP3    H258983   3.239   1.086  11.717 -0.3499  0.5745 -0.5463
12498TIP3   OH258984   4.084   6.065   4.228  0.4907  0.1812 -0.7383
12498TIP3    H158985   4.179   6.072   4.212  0.5785  1.9610  0.2685
12498TIP3    H258986   4.071   5.974   4.254  2.4760  0.5246  2.0331
12499TIP3   OH258987   0.397   3.940  10.807 -0.7507  0.2080  0.4159
12499TIP3    H158988   0.491   3.944  10.790 -0.9346 -0.9806 -1.1525
12499TIP3    H258989   0.358   3.994  10.739 -1.2816 -1.0786 -0.3561
12500TIP3   OH258990   6.802   5.654  14.225 -0.1855  0.3984  0.0182
12500TIP3    H158991   6.764   5.608  14.299  2.9478 -2.1378  0.2497
12500TIP3    H258992   6.797   5.747  14.250 -0.2747 -0.2843  2.8687
12501TIP3   OH258993   4.307   3.154   0.858  0.3126  0.2270  0.0323
12501TIP3    H158994   4.301   3.246   0.831  2.1400  0.4744  0.3367
12501TIP3    H258995   4.357   3.156   0.939  0.5613 -1.0708 -0.0718
12502TIP3   OH258996   6.024   3.259   1.251 -0.2438 -0.0714 -0.2536
12502TIP3    H158997   5.969   3.336   1.240  0.5366  0.3899 -1.0287
12502TIP3    H258998   6.017   3.238   1.345 -1.3737  0.2249 -0.2580
12503TIP3   OH258999   1.466   5.505   0.038  0.3748  0.1007  0.1389
12503TIP3    H159000   1.489   5.552   0.118 -0.3964  0.9246 -0.0991
12503TIP3    H259001   1.435   5.574  -0.022 -0.0713 -0.6282 -0.4873
12504TIP3   OH259002   1.244   6.102   3.632  0.1860  0.0972 -0.1853
12504TIP3    H159003   1.188   6.117   3.708 -1.1449  0.2721 -1.1801
12504TIP3    H259004   1.286   6.017   3.651  0.3609  0.4219  1.0057
12505TIP3   OH259005   6.046   0.933   3.354  0.3304 -0.4338 -0.1883
12505TIP3    H159006   6.041   0.913   3.447  1.1731 -1.1013 -0.2757
12505TIP3    H259007   6.047   0.848   3.311 -0.6376 -0.1272 -0.8534
12506TIP3   OH259008   6.689   6.069  10.982  0.4952  0.3507 -0.5620
12506TIP3    H159009   6.613   6.122  10.958  0.3222 -0.5704 -2.1925
12506TIP3    H259010   6.745   6.129  11.032 -1.0885  1.1507  0.3233
12507TIP3   OH259011   0.844   4.162   4.422  0.1453  0.1213 -0.0853
12507TIP3    H159012   0.895   4.223   4.368  1.3771  0.0679  0.9829
12507TIP3    H259013   0.907   4.096   4.449 -0.2204  0.5900  2.0948
12508TIP3   OH259014   0.126   1.991   0.441  0.0442 -0.4779 -0.2882
12508TIP3    H159015   0.099   1.950   0.359  0.2073  0.8018 -1.0100
12508TIP3    H259016   0.099   2.082   0.432 -1.2088 -0.5899  1.6754
12509TIP3   OH259017   2.099   5.624   3.273 -0.3765  0.0018 -0.1459
12509TIP3    H159018   2.127   5.609   3.183  0.0355  1.6147 -0.3166
12509TIP3    H259019   2.177   5.655   3.318 -0.4673 -1.2058  0.9115
12510TIP3   OH259020   1.024   5.225  14.053 -0.1265 -0.2738 -0.0933
12510TIP3    H159021   1.110   5.203  14.090 -1.1416 -1.3602  1.7488
12510TIP3    H259022   0.996   5.145  14.009 -0.3994 -0.0740 -0.2831
12511TIP3   OH259023   1.868   1.408  14.955 -0.6750  0.1460  0.2874
12511TIP3    H159024   1.947   1.395  15.009 -0.6566 -0.4486  0.1231
12511TIP3    H259025   1.817   1.328  14.968 -0.4927 -0.1829 -0.8653
12512TIP3   OH259026   3.254   4.366   3.657 -0.2523  0.2921  0.5130
12512TIP3    H159027   3.196   4.405   3.592  1.1636  0.6063 -0.5937
12512TIP3    H259028   3.206   4.289   3.689 -1.2005  0.4473 -0.4944
12513TIP3   OH259029   2.272   5.337   1.837 -0.1680 -0.1008 -0.2342
12513TIP3    H159030   2.358   5.369   1.864 -0.5329  0.3563  0.3988
12513TIP3    H259031   2.253   5.385   1.756  0.5662 -0.8800 -0.8922
12514TIP3   OH259032   1.248   0.025   4.452 -0.3722 -0.3814  0.4378
12514TIP3    H159033   1.171   0.071   4.418  1.3325  1.4009 -1.2826
12514TIP3    H259034   1.315   0.038   4.385  1.3932 -2.0398  1.7753
12515TIP3   OH259035   3.950   0.340  14.248 -0.0545  0.3250  0.4090
12515TIP3    H159036   3.985   0.253  14.228  1.4522  0.6198  1.6102
12515TIP3    H259037   3.982   0.359  14.336 -2.6582  0.9794  1.2950
12516TIP3   OH259038   1.698   2.081  15.020 -0.6518  0.2169 -0.0877
12516TIP3    H159039   1.713   2.126  15.103  2.1562 -0.7980  0.0514
12516TIP3    H259040   1.733   2.141  14.954 -0.3732 -0.1293 -0.2591
12517TIP3   OH259041   0.082   2.821   1.451  0.0418 -0.7201  0.3040
12517TIP3    H159042   0.135   2.835   1.373 -0.4401 -1.6878 -0.2141
12517TIP3    H259043  -0.006   2.850   1.428 -0.3693 -2.0592  0.0722
12518TIP3   OH259044   3.783   0.820  12.787 -0.1337 -0.0659  0.0813
12518TIP3    H159045   3.699   0.857  12.812 -0.9274 -1.4780 -0.3819
12518TIP3    H259046   3.808   0.765  12.862  0.7966  0.9794  0.5650
12519TIP3   OH259047   2.123   5.201  11.238 -0.1698  0.1535  0.1880
12519TIP3    H159048   2.089   5.141  11.172  0.7720 -0.5888  0.3620
12519TIP3    H259049   2.212   5.220  11.210  0.1486  0.0494  1.0900
12520TIP3   OH259050   3.882   1.413   6.223 -0.1518  0.5910 -0.4872
12520TIP3    H159051   3.895   1.441   6.132  1.8769 -0.3229 -0.5531
12520TIP3    H259052   3.950   1.346   6.237 -1.0345  0.0150  1.4151
12521TIP3   OH259053   1.085   4.650   0.848 -0.1290  0.1446  0.0266
12521TIP3    H159054   1.167   4.681   0.810 -0.4242 -0.5665 -1.2636
12521TIP3    H259055   1.112   4.598   0.923  0.7340 -1.1703 -1.1315
12522TIP3   OH259056   4.713   0.896  10.950  0.4802  0.5969  0.0637
12522TIP3    H159057   4.679   0.984  10.936  0.3795  0.5677  0.1215
12522TIP3    H259058   4.762   0.875  10.871  0.6966  0.7944  0.1445
12523TIP3   OH259059   5.456   4.104   1.206 -0.2925  0.2213 -0.1722
12523TIP3    H159060   5.445   4.175   1.143 -0.6131  0.9094  0.6330
12523TIP3    H259061   5.550   4.082   1.201 -0.5378 -0.6252 -1.7790
12524TIP3   OH259062   4.943   0.212  15.813 -0.0379  0.3769 -0.0147
12524TIP3    H159063   4.928   0.207  15.907 -2.1034  0.0689 -0.3136
12524TIP3    H259064   4.858   0.191  15.774  0.7025  0.7623 -1.9491
12525TIP3   OH259065   5.933   0.504   3.840 -0.1734 -0.1156  0.3298
12525TIP3    H159066   6.002   0.507   3.907 -0.0047  0.6732  0.1308
12525TIP3    H259067   5.972   0.452   3.769  0.9196  1.7436 -0.5139
12526TIP3   OH259068   2.630   1.587  12.427 -0.1618 -0.7036  0.1947
12526TIP3    H159069   2.712   1.621  12.462 -0.1136 -1.6496  1.0517
12526TIP3    H259070   2.627   1.619  12.337  0.3135  0.7686  0.6803
12527TIP3   OH259071   5.412   2.246   4.093 -0.2591  0.1355  0.5074
12527TIP3    H159072   5.484   2.309   4.095 -0.3146  0.1831  1.3029
12527TIP3    H259073   5.339   2.292   4.134 -0.5649 -0.1259  0.2542
12528TIP3   OH259074   3.221   4.627  12.586 -0.7762  0.3670 -0.1850
12528TIP3    H159075   3.136   4.661  12.613 -1.6032 -0.5464 -1.5058
12528TIP3    H259076   3.220   4.633  12.490  0.2066 -0.6324 -0.2805
12529TIP3   OH259077   4.161   4.440  11.768  0.1838 -0.2206 -0.0192
12529TIP3    H159078   4.172   4.464  11.860  0.2085  1.2223 -0.3826
12529TIP3    H259079   4.068   4.453  11.751  0.5695  1.9081 -0.8068
12530TIP3   OH259080   3.596   3.112  16.355 -0.3521 -0.8475 -0.7750
12530TIP3    H159081   3.565   3.197  16.388 -0.3123 -1.3740  0.6621
12530TIP3    H259082   3.516   3.069  16.323 -0.5401 -0.7377 -0.4540
12531TIP3   OH259083   2.479   6.463  16.556 -0.3814 -0.2228  0.0367
12531TIP3    H159084   2.519   6.432  16.475  0.6867  1.5434 -0.1532
12531TIP3    H259085   2.427   6.539  16.530 -0.3527  0.1175  0.9256
12532TIP3   OH259086   4.899   1.632  13.068 -0.1003  0.2794  0.4514
12532TIP3    H159087   4.855   1.715  13.087  1.7754  1.4472 -0.0214
12532TIP3    H259088   4.950   1.650  12.989  0.9643 -1.0800  0.8005
12533TIP3   OH259089   1.034   2.529   3.976 -0.2532 -0.1342  0.0443
12533TIP3    H159090   1.121   2.553   3.945 -0.3136 -2.0144 -1.7893
12533TIP3    H259091   1.048   2.497   4.065  0.4811  2.0126  0.7609
12534TIP3   OH259092   6.451   6.537   1.402 -0.2878  0.8858  0.3214
12534TIP3    H159093   6.453   6.597   1.327 -0.6206 -0.6971 -1.0098
12534TIP3    H259094   6.525   6.563   1.456  0.6469  1.3568 -1.1478
12535TIP3   OH259095   0.994   0.291   5.501 -0.0866 -0.3146  0.8769
12535TIP3    H159096   0.991   0.289   5.597  3.4697 -2.5333  1.1182
12535TIP3    H259097   1.042   0.212   5.477 -1.8022 -0.3974 -2.8832
12536TIP3   OH259098   5.599   6.093  11.874  0.2014 -0.4957 -0.2926
12536TIP3    H159099   5.528   6.149  11.908 -1.5313 -1.7869 -1.5911
12536TIP3    H259100   5.575   6.005  11.903  0.7554 -1.0852 -1.5657
12537TIP3   OH259101   5.371   2.529  11.606  0.2508 -0.0872 -0.6596
12537TIP3    H159102   5.409   2.444  11.628  0.8664  0.1229 -0.8738
12537TIP3    H259103   5.440   2.574  11.557  0.0771  0.6773 -0.2258
12538TIP3   OH259104   6.069   4.793   5.323  0.3909  0.1546  0.6394
12538TIP3    H159105   6.130   4.847   5.373  0.7527  1.5566 -1.2093
12538TIP3    H259106   6.106   4.790   5.234 -2.3124  1.3164 -0.6588
12539TIP3   OH259107   6.006   4.847   3.988 -0.0779 -0.5851 -0.1490
12539TIP3    H159108   5.972   4.927   3.948  1.5160 -1.1605 -2.8893
12539TIP3    H259109   6.070   4.878   4.052  1.5034  0.4299 -2.0985
12540TIP3   OH259110   5.414   5.385   1.307  0.2474  0.0364  0.2793
12540TIP3    H159111   5.427   5.420   1.219 -0.9663  0.8837  0.4145
12540TIP3    H259112   5.502   5.368   1.340  0.7086 -1.7338 -1.6484
12541TIP3   OH259113   1.442   1.825  13.156  0.5226 -0.2895 -0.5050
12541TIP3    H159114   1.407   1.799  13.071 -0.1278  0.9646 -0.6462
12541TIP3    H259115   1.439   1.745  13.209 -0.4954 -0.7397 -1.2025
12542TIP3   OH259116   4.480   1.318   1.151 -0.2617  0.3494  0.2777
12542TIP3    H159117   4.472   1.362   1.067  0.0200  1.0043  0.5851
12542TIP3    H259118   4.501   1.228   1.129 -1.8041  0.1175 -0.3812
12543TIP3   OH259119   4.856   0.286   4.007 -0.1188 -0.8071 -0.1133
12543TIP3    H159120   4.951   0.277   4.014 -0.0709  0.1055  0.5577
12543TIP3    H259121   4.842   0.375   3.974 -0.7282 -1.1444 -0.7885
12544TIP3   OH259122   4.445   2.214  15.740  0.2028  0.1157 -0.3659
12544TIP3    H159123   4.400   2.252  15.665 -1.1942 -0.1480  0.3072
12544TIP3    H259124   4.395   2.135  15.761  1.4903 -0.6701 -0.1009
12545TIP3   OH259125   5.221   0.279  10.483  0.0497 -0.3154  0.4765
12545TIP3    H159126   5.297   0.287  10.541 -0.0599  1.5896  0.4344
12545TIP3    H259127   5.146   0.271  10.543  0.0200  0.8103  0.6175
12546TIP3   OH259128   2.624   1.804  14.958  0.0465 -0.1037 -0.1470
12546TIP3    H159129   2.628   1.709  14.944 -0.9325  0.1917 -2.9431
12546TIP3    H259130   2.537   1.819  14.995  0.6043 -0.3393  1.3545
12547TIP3   OH259131   2.745   0.143  14.784  0.3078  0.1688 -0.0627
12547TIP3    H159132   2.835   0.129  14.814  0.5036 -0.7330 -0.9848
12547TIP3    H259133   2.755   0.189  14.700 -0.2129  2.5603  1.1216
12548TIP3   OH259134   5.137   4.767  16.550 -0.2068 -0.3401  0.3350
12548TIP3    H159135   5.118   4.714  16.472 -0.5494 -0.1844  0.3118
12548TIP3    H259136   5.183   4.844  16.516 -1.5633  0.4097  0.1090
12549TIP3   OH259137   4.609   5.465   4.898 -0.5227  0.1438 -0.4120
12549TIP3    H159138   4.668   5.451   4.971  0.1617  1.7619 -0.5999
12549TIP3    H259139   4.597   5.378   4.859 -0.0596 -0.5608  0.9721
12550TIP3   OH259140   4.000   2.040   5.174 -0.1626  0.6318 -0.1134
12550TIP3    H159141   3.913   1.999   5.179 -0.3762  1.1241  0.3745
12550TIP3    H259142   4.027   2.050   5.265 -1.2413  3.8679  0.0006
12551TIP3   OH259143   2.628   4.616  13.462  0.3633  0.1803  0.6607
12551TIP3    H159144   2.674   4.654  13.387  2.4018  1.2006  2.3101
12551TIP3    H259145   2.617   4.524  13.439  0.7594  0.5038 -0.9624
12552TIP3   OH259146   0.731   4.882  11.776 -0.3223 -0.0858 -0.3037
12552TIP3    H159147   0.710   4.830  11.698 -2.7895 -0.2462  0.3791
12552TIP3    H259148   0.659   4.865  11.836  0.0960  2.1636  0.9494
12553TIP3   OH259149   6.219   3.770   2.386  0.4194  0.0206 -0.5630
12553TIP3    H159150   6.239   3.679   2.364 -0.3937  0.0122 -1.3236
12553TIP3    H259151   6.223   3.816   2.303  0.4014  0.6052 -0.2433
12554TIP3   OH259152   2.239   5.563   0.704  0.5824 -0.2226 -0.2626
12554TIP3    H159153   2.320   5.567   0.755  0.5982 -1.5539 -0.1607
12554TIP3    H259154   2.242   5.641   0.649  1.1535  0.6019  0.8808
12555TIP3   OH259155   2.867   2.569   5.454  0.0855  0.2183  0.4410
12555TIP3    H159156   2.950   2.612   5.434  0.5717 -0.6685  0.4653
12555TIP3    H259157   2.803   2.614   5.400  0.7288  0.3917 -0.2010
12556TIP3   OH259158   1.784   4.003  17.008 -0.2118 -0.1498 -0.3074
12556TIP3    H159159   1.711   4.049  17.051  0.4319  0.4121  0.1946
12556TIP3    H259160   1.827   3.955  17.078  0.1825 -0.1101 -0.5224
12557TIP3   OH259161   2.527   3.652  16.586 -0.4786  0.3591 -0.3400
12557TIP3    H159162   2.456   3.715  16.577  0.2689  1.2305 -0.2903
12557TIP3    H259163   2.503   3.599  16.662 -0.7664  1.0466  0.0510
12558TIP3   OH259164   6.441   1.872   5.574  0.6240 -0.3673  0.1371
12558TIP3    H159165   6.528   1.870   5.533  1.3060  1.6795  1.3512
12558TIP3    H259166   6.407   1.960   5.555 -0.5282 -0.6013  0.9851
12559TIP3   OH259167   3.983   1.774   6.361 -0.2039 -0.7053  0.3223
12559TIP3    H159168   3.908   1.806   6.311 -0.0724  0.4343  0.8051
12559TIP3    H259169   4.051   1.840   6.346  0.9903 -2.0998 -0.7307
12560TIP3   OH259170   6.214   1.387   2.816  0.8022  0.1077 -0.2162
12560TIP3    H159171   6.299   1.394   2.858  0.3542 -1.0248  0.9386
12560TIP3    H259172   6.192   1.476   2.790  2.1196  0.4764 -0.1199
12561TIP3   OH259173   2.328   1.721  16.965 -0.4563  0.3624  0.0759
12561TIP3    H159174   2.366   1.727  17.053  0.6542  0.2981 -0.3908
12561TIP3    H259175   2.234   1.706  16.981 -0.1482 -0.4817  1.2429
12562TIP3   OH259176   4.004   2.502   4.376 -0.0766  0.2031 -0.5680
12562TIP3    H159177   4.067   2.432   4.394  0.9577  1.4349  0.8677
12562TIP3    H259178   4.038   2.546   4.298  1.0471  1.0172  0.3384
12563TIP3   OH259179   2.003   4.371  11.390  0.7764 -0.3269 -0.3740
12563TIP3    H159180   1.974   4.360  11.480  0.5992 -1.6529 -0.5725
12563TIP3    H259181   2.092   4.404  11.397  0.8283 -0.5895  0.2896
12564TIP3   OH259182   3.087   5.873  11.246 -0.2749  0.7819  0.3753
12564TIP3    H159183   3.131   5.948  11.285 -0.3216  0.2816  1.4200
12564TIP3    H259184   3.025   5.911  11.183 -0.1394  1.5960  0.7296
12565TIP3   OH259185   6.528   4.961  15.860 -0.1726 -0.1670 -0.0243
12565TIP3    H159186   6.611   5.007  15.865  0.9554 -2.0954  0.0467
12565TIP3    H259187   6.477   4.994  15.934  1.0844  0.0566  0.7689
12566TIP3   OH259188   3.434   5.569  12.626  0.3703  0.3886  0.0251
12566TIP3    H159189   3.432   5.560  12.531  0.7742 -0.6151  0.0898
12566TIP3    H259190   3.526   5.554  12.649  0.4099  1.3302  0.5234
12567TIP3   OH259191   2.571   3.392   3.838 -0.1552  0.2387 -0.0855
12567TIP3    H159192   2.521   3.326   3.790  0.2064  0.6422 -1.0298
12567TIP3    H259193   2.549   3.475   3.796  0.8999  0.4784 -0.1826
12568TIP3   OH259194   4.655   1.018  12.578 -0.0768 -0.6559 -0.2414
12568TIP3    H159195   4.567   0.982  12.590 -0.2367  0.1118  1.0760
12568TIP3    H259196   4.642   1.099  12.530 -0.1403 -0.3915  0.2096
12569TIP3   OH259197   1.588   4.350  16.049 -0.6685  0.2311 -0.1193
12569TIP3    H159198   1.615   4.296  15.975  0.0354  0.5731 -0.1217
12569TIP3    H259199   1.641   4.430  16.041 -1.8660  1.0457 -0.2639
12570TIP3   OH259200   3.990   1.984  12.790 -0.0527 -0.1773  0.5727
12570TIP3    H159201   3.936   1.916  12.830 -0.0918 -0.3069  0.2944
12570TIP3    H259202   4.010   1.952  12.703  1.5655 -0.7431  1.1081
12571TIP3   OH259203   6.024   3.788  11.054  0.0621 -0.5882  0.1094
12571TIP3    H159204   6.038   3.789  10.959 -1.7461  2.4973 -0.2745
12571TIP3    H259205   6.099   3.836  11.090 -1.0882  1.6170 -0.2536
12572TIP3   OH259206   4.818   4.285   4.963  0.3561  0.0921 -0.5556
12572TIP3    H159207   4.884   4.354   4.969 -0.8809  1.3137 -0.5076
12572TIP3    H259208   4.783   4.292   4.874  0.3204 -0.5812 -0.6044
12573TIP3   OH259209   5.469   0.101  14.477  0.3415  0.0975 -0.0767
12573TIP3    H159210   5.525   0.043  14.529  0.9224  0.4267 -0.3259
12573TIP3    H259211   5.514   0.110  14.393 -0.5949 -0.4327 -0.6575
12574TIP3   OH259212   3.658   1.713  15.736  0.3069  0.0629 -0.5512
12574TIP3    H159213   3.610   1.642  15.777 -0.2105  1.0904  0.7152
12574TIP3    H259214   3.719   1.743  15.803  0.6588  0.6799 -1.1293
12575TIP3   OH259215   4.603   0.985   0.615  0.4696  0.1968 -0.1256
12575TIP3    H159216   4.535   0.981   0.682  0.1037  0.6365 -0.4669
12575TIP3    H259217   4.665   0.916   0.640  1.6671  1.9674  2.0642
12576TIP3   OH259218   5.086   4.065   4.804  0.5629  0.0247  0.2614
12576TIP3    H159219   5.087   4.157   4.777  0.1853 -0.8048 -2.9906
12576TIP3    H259220   5.012   4.027   4.757  0.8559 -2.0198  1.3466
12577TIP3   OH259221   4.230   0.079  14.770 -0.3024  0.0468  0.5351
12577TIP3    H159222   4.283   0.156  14.751 -3.2253  2.5431  1.6766
12577TIP3    H259223   4.275   0.036  14.843 -0.1269  2.5082  2.0009
12578TIP3   OH259224   3.196   5.123  11.807 -0.0700  0.5184  0.2018
12578TIP3    H159225   3.234   5.125  11.719 -0.4170  2.3213  0.0575
12578TIP3    H259226   3.102   5.109  11.792  0.1059 -1.0002  0.4032
12579TIP3   OH259227   4.539   3.528  12.649 -0.2938  0.3984  0.2360
12579TIP3    H159228   4.586   3.476  12.714 -3.2161 -0.1804  2.1262
12579TIP3    H259229   4.498   3.463  12.592 -0.8369  0.7403  0.2262
12580TIP3   OH259230   5.904   3.890   5.758 -0.2448  0.0368  0.8377
12580TIP3    H159231   5.994   3.859   5.745  0.7104  2.5184  0.9783
12580TIP3    H259232   5.902   3.921   5.849 -0.4485  2.2541  0.1346
12581TIP3   OH259233   1.451   4.204  10.559  0.3006  0.5823  0.1077
12581TIP3    H159234   1.387   4.133  10.550  0.8487 -0.1000  1.2861
12581TIP3    H259235   1.493   4.210  10.473 -1.1026  0.8414 -0.6000
12582TIP3   OH259236   5.949   4.885  14.597  0.1609  0.0563 -0.1883
12582TIP3    H159237   5.989   4.969  14.616 -0.3449  0.5055 -1.0644
12582TIP3    H259238   5.901   4.863  14.677 -1.0027  1.3747 -0.4754
12583TIP3   OH259239   2.876   4.459  12.217 -0.0428 -0.0201 -0.2128
12583TIP3    H159240   2.805   4.417  12.266  0.0044  0.2605  0.1027
12583TIP3    H259241   2.901   4.534  12.271 -1.8243  1.9562 -1.9080
12584TIP3   OH259242   2.212   1.978  15.748  0.3620  0.0541  0.2002
12584TIP3    H159243   2.306   1.986  15.759  0.1646  2.7008  0.8246
12584TIP3    H259244   2.176   1.989  15.836 -0.5539 -0.1891 -0.1239
12585TIP3   OH259245   6.368   4.526  14.358  0.3688 -0.2668 -0.3735
12585TIP3    H159246   6.336   4.615  14.368 -0.0764 -0.5459  0.9577
12585TIP3    H259247   6.444   4.521  14.417 -1.1374 -1.4491  1.6021
12586TIP3   OH259248   4.174   1.049   4.548  0.1418 -0.3526 -0.2860
12586TIP3    H159249   4.206   0.964   4.579 -0.0333 -0.3502 -0.0949
12586TIP3    H259250   4.180   1.106   4.625  0.5405 -0.1119 -0.4919
12587TIP3   OH259251   0.714   1.752  12.608 -0.4577  0.9555 -0.3240
12587TIP3    H159252   0.724   1.816  12.537  0.2407  1.0950 -0.1093
12587TIP3    H259253   0.680   1.804  12.681  1.4837  1.4353  0.3158
12588TIP3   OH259254   6.403   2.290  14.283  0.5284  0.2360  0.9736
12588TIP3    H159255   6.484   2.333  14.259 -1.3039  3.0379 -0.8191
12588TIP3    H259256   6.355   2.355  14.335 -0.4925 -1.4472  2.2737
12589TIP3   OH259257   4.910   3.187   2.429 -0.2248  0.0719  0.5421
12589TIP3    H159258   4.985   3.128   2.420  0.8668  1.4566  0.2792
12589TIP3    H259259   4.843   3.148   2.372  0.2481 -1.2251  0.8275
12590TIP3   OH259260   3.234   4.082  14.860  0.3049 -0.8192  0.3913
12590TIP3    H159261   3.263   4.003  14.814  0.8540 -0.7566  0.6248
12590TIP3    H259262   3.168   4.120  14.803  0.5656 -1.0551 -0.0702
12591TIP3   OH259263   0.027   6.423   1.005 -0.0199  0.7638  0.1943
12591TIP3    H159264   0.054   6.365   1.076  1.8853  1.1523 -0.1694
12591TIP3    H259265  -0.058   6.457   1.032 -0.4675 -0.9900  1.1261
12592TIP3   OH259266   2.286   5.588   3.854  0.5392 -0.6001 -0.0904
12592TIP3    H159267   2.344   5.529   3.901  0.7069 -0.0748  0.3836
12592TIP3    H259268   2.271   5.661   3.915 -0.5867 -0.7071 -0.2073
12593TIP3   OH259269   2.802   6.137   2.999 -0.4050 -0.1553 -0.1169
12593TIP3    H159270   2.728   6.197   2.993 -0.5479 -0.3743 -0.5331
12593TIP3    H259271   2.770   6.066   3.055  0.1106  0.6565  1.2790
12594TIP3   OH259272   0.777   4.210   0.023 -0.0152 -0.4249 -0.7516
12594TIP3    H159273   0.812   4.235  -0.062 -0.7131 -0.3687 -1.0277
12594TIP3    H259274   0.783   4.290   0.076 -1.3985  0.1205 -1.3567
12595TIP3   OH259275   3.188   0.422   0.025  0.3177 -0.0371  0.2326
12595TIP3    H159276   3.106   0.374   0.009  0.9942 -1.2924  0.4334
12595TIP3    H259277   3.222   0.440  -0.063 -0.2231  0.6240  0.1414
12596TIP3   OH259278   3.277   1.300   2.443  0.5753  0.5312 -0.4722
12596TIP3    H159279   3.216   1.317   2.514 -1.8249 -4.8116 -0.7836
12596TIP3    H259280   3.226   1.313   2.363  0.2284 -2.1833 -0.7899
12597TIP3   OH259281   0.488   2.374   0.914  1.0125  0.0825 -0.1079
12597TIP3    H159282   0.534   2.383   0.997 -0.4600  0.7828  0.6646
12597TIP3    H259283   0.531   2.300   0.870  2.9238  0.7839  0.5007
12598TIP3   OH259284   0.001   0.147   3.806  0.2121 -0.4065  0.1371
12598TIP3    H159285  -0.061   0.107   3.867  2.3224  0.6829  3.2456
12598TIP3    H259286   0.011   0.083   3.736 -2.9796 -1.3744  0.4408
12599TIP3   OH259287   1.342   4.063   5.730 -0.6356  0.3189  0.4124
12599TIP3    H159288   1.258   4.070   5.775  0.1217 -0.2479  1.9867
12599TIP3    H259289   1.335   4.125   5.657 -2.7726 -0.4619 -0.1112
12600TIP3   OH259290   3.299   5.268   3.792 -0.5205  0.2304  0.7431
12600TIP3    H159291   3.246   5.347   3.793 -1.6995 -0.5311  0.9820
12600TIP3    H259292   3.390   5.299   3.789 -0.9009  1.5984  2.1958
12601TIP3   OH259293   0.539   6.799  14.958  0.3750  0.3931  0.4296
12601TIP3    H159294   0.478   6.792  14.884 -0.5342 -1.1435  1.2498
12601TIP3    H259295   0.621   6.764  14.924 -0.0948 -0.5196  0.1732
12602TIP3   OH259296   2.744   3.811  11.767 -0.3399  0.0763 -0.4631
12602TIP3    H159297   2.670   3.860  11.801 -0.4459  0.8913 -1.7990
12602TIP3    H259298   2.775   3.862  11.692  2.2340  0.3136  0.6590
12603TIP3   OH259299   0.200   0.492   1.200 -0.0130 -0.0008 -0.6078
12603TIP3    H159300   0.147   0.552   1.253  1.3398  0.9837 -0.3334
12603TIP3    H259301   0.183   0.519   1.110  1.0330  1.2187 -0.4642
12604TIP3   OH259302   2.823   5.597   0.802 -0.6394  0.3234 -0.0393
12604TIP3    H159303   2.779   5.630   0.880  1.2581 -0.1151  1.2863
12604TIP3    H259304   2.832   5.674   0.746 -2.3721  0.5642 -0.0631
12605TIP3   OH259305   0.224   6.606  13.981 -0.1421  0.0392  0.3576
12605TIP3    H159306   0.139   6.578  14.014 -0.5258 -0.5830 -1.0597
12605TIP3    H259307   0.203   6.663  13.907  0.5299 -3.1240 -2.5153
12606TIP3   OH259308   5.682   5.903  16.319  0.4339 -0.1492 -0.3396
12606TIP3    H159309   5.723   5.956  16.387  3.1293 -0.3085 -1.7273
12606TIP3    H259310   5.703   5.947  16.237  0.1415 -1.7232 -1.3141
12607TIP3   OH259311   2.423   5.680   3.637  0.4472 -0.3370 -0.0932
12607TIP3    H159312   2.354   5.643   3.691  1.8281 -1.1376  1.1858
12607TIP3    H259313   2.478   5.731   3.697  0.8130  0.5543 -1.1280
12608TIP3   OH259314   3.785   0.149   2.987 -0.4993  0.0590 -0.1950
12608TIP3    H159315   3.764   0.113   2.901 -1.2637  0.3585 -0.1445
12608TIP3    H259316   3.879   0.133   2.998 -0.0150  1.5704 -1.8301
12609TIP3   OH259317   1.377   5.666  11.402 -0.4851  0.1362  0.1243
12609TIP3    H159318   1.301   5.620  11.438 -0.1831  0.2735  0.9710
12609TIP3    H259319   1.442   5.598  11.386 -0.0240  0.2513  1.4144
12610TIP3   OH259320   0.031   2.632   2.222 -0.6244  0.1488 -0.3474
12610TIP3    H159321   0.051   2.649   2.130 -0.4224 -1.1471 -0.5555
12610TIP3    H259322   0.115   2.611   2.262 -0.4375  2.2548  0.5352
12611TIP3   OH259323   5.974   0.270   4.880 -0.0310 -0.4125 -0.1522
12611TIP3    H159324   5.908   0.286   4.948  0.3386 -1.8654  0.5885
12611TIP3    H259325   6.048   0.325   4.905 -0.8801  1.1753 -0.9486
12612TIP3   OH259326   1.074   6.615  16.946  0.1702  0.3326 -0.0016
12612TIP3    H159327   1.149   6.560  16.969 -0.2907  0.3470  1.6484
12612TIP3    H259328   1.098   6.702  16.978 -0.8389  0.1837  1.2269
12613TIP3   OH259329   0.228   0.258  13.541  0.3356  0.3612 -0.2389
12613TIP3    H159330   0.313   0.244  13.583  1.1300 -0.9029 -2.1823
12613TIP3    H259331   0.232   0.348  13.509 -0.0558  1.1468  1.7483
12614TIP3   OH259332   3.555   4.052  15.190 -0.3368  0.0936 -0.2099
12614TIP3    H159333   3.493   3.986  15.159  0.0680  0.6212 -2.2949
12614TIP3    H259334   3.503   4.110  15.245 -1.7113  0.4639 -1.8284
12615TIP3   OH259335   1.789   6.471  13.793  0.2611 -0.6771 -0.3165
12615TIP3    H159336   1.762   6.513  13.875  2.0379 -0.4556  0.2071
12615TIP3    H259337   1.707   6.445  13.751 -0.8579  1.6880  0.1998
12616TIP3   OH259338   2.424   1.066  13.190 -0.6729  0.0418 -0.3824
12616TIP3    H159339   2.466   1.084  13.105 -0.7741  0.9639 -0.2492
12616TIP3    H259340   2.495   1.075  13.254 -1.0607  1.6720 -0.1486
12617TIP3   OH259341   3.748   2.935   2.660 -0.1934 -0.0848 -0.1674
12617TIP3    H159342   3.705   3.015   2.688 -2.5444 -1.1789 -0.4208
12617TIP3    H259343   3.795   2.959   2.579  0.5923  1.3756  0.6877
12618TIP3   OH259344   2.680   0.268   5.594  0.4233 -0.2333  0.2769
12618TIP3    H159345   2.707   0.198   5.654 -1.4363 -0.5823  0.7711
12618TIP3    H259346   2.692   0.231   5.507 -1.2334 -1.5296  0.5325
12619TIP3   OH259347   5.723   2.927  12.428 -0.3359  0.4992 -0.9097
12619TIP3    H159348   5.748   2.946  12.519  1.1521  0.7299 -1.3300
12619TIP3    H259349   5.638   2.970  12.417 -0.1000  1.2771  0.1073
12620TIP3   OH259350   4.236   0.728   4.947  0.0778 -0.0068 -0.7887
12620TIP3    H159351   4.252   0.698   5.036  1.4304 -1.2925 -1.4376
12620TIP3    H259352   4.178   0.804   4.958  1.0194  0.4813  1.2360
12621TIP3   OH259353   4.470   4.515  13.011 -0.3129 -0.6389  0.1989
12621TIP3    H159354   4.410   4.553  12.947  0.2225  1.1452  0.6846
12621TIP3    H259355   4.532   4.464  12.959 -1.5747 -1.6297 -0.3985
12622TIP3   OH259356   2.987   4.510   4.275  0.1271  0.0468  0.3271
12622TIP3    H159357   2.959   4.418   4.283  0.2845  0.0985  1.7915
12622TIP3    H259358   3.079   4.505   4.249 -0.5177 -0.1451 -2.1964
12623TIP3   OH259359   6.092   5.602   3.305  0.4943  0.4716 -0.3199
12623TIP3    H159360   6.091   5.691   3.338  0.9279  0.9746 -1.5971
12623TIP3    H259361   6.112   5.548   3.381 -1.6674  1.2404  0.8917
12624TIP3   OH259362   3.041   5.150  13.844  0.6017 -0.1817 -0.0590
12624TIP3    H159363   3.132   5.180  13.839  0.1374  1.1786 -1.1722
12624TIP3    H259364   2.989   5.229  13.826 -0.7578 -1.2042 -0.8459
12625TIP3   OH259365   2.491   2.194  11.394  0.2290  0.1439 -0.3367
12625TIP3    H159366   2.443   2.119  11.429  0.3188 -0.2594 -1.0533
12625TIP3    H259367   2.507   2.250  11.470  1.1818 -1.1158  0.4253
12626TIP3   OH259368   1.241   6.558  15.958  0.4793 -0.5820 -0.0959
12626TIP3    H159369   1.313   6.619  15.975  0.0709 -0.6867  2.2118
12626TIP3    H259370   1.164   6.613  15.948  0.7001 -0.5204 -1.8924
12627TIP3   OH259371   6.705   4.390  15.147 -0.2567 -0.1700 -0.1237
12627TIP3    H159372   6.652   4.333  15.091  1.2302  0.6138 -2.4622
12627TIP3    H259373   6.641   4.449  15.188 -1.3634 -0.2408 -1.6531
12628TIP3   OH259374   5.528   0.753   3.581  0.0775  0.0847 -0.0917
12628TIP3    H159375   5.592   0.690   3.614 -0.1089  0.2983  0.6979
12628TIP3    H259376   5.472   0.771   3.656 -0.0187  1.0166 -0.3819
12629TIP3   OH259377   0.687   5.309   0.837  0.9588 -0.1249  0.0282
12629TIP3    H159378   0.633   5.365   0.892 -0.3288 -2.4389  1.2576
12629TIP3    H259379   0.626   5.266   0.778  2.0707  0.6337 -1.7646
12630TIP3   OH259380   0.632   5.820  14.123 -0.0632  0.6429  0.0488
12630TIP3    H159381   0.651   5.840  14.215  1.2511 -1.2225  0.2490
12630TIP3    H259382   0.572   5.889  14.095  0.3410  1.8685  1.9963
12631TIP3   OH259383   4.220   4.660  12.228  0.1960 -0.7714 -0.1741
12631TIP3    H159384   4.308   4.621  12.235 -0.6211 -2.9755 -1.1290
12631TIP3    H259385   4.197   4.683  12.317  1.2396 -1.3975  0.2839
12632TIP3   OH259386   6.173   3.433  16.207  0.3408  0.0056 -0.7229
12632TIP3    H159387   6.181   3.441  16.302 -0.7347 -0.7039 -0.5596
12632TIP3    H259388   6.163   3.524  16.177  3.1678  0.5182 -0.4663
12633TIP3   OH259389   1.718   3.841   4.117  1.1432  0.6655 -0.2737
12633TIP3    H159390   1.738   3.764   4.065  3.0085 -0.2467  1.6537
12633TIP3    H259391   1.787   3.904   4.095  0.7254  1.0693 -0.4468
12634TIP3   OH259392   2.817   2.904  15.031 -0.5421  0.5169  0.0738
12634TIP3    H159393   2.728   2.906  14.996 -0.1006 -1.1716 -1.2666
12634TIP3    H259394   2.839   2.997  15.045 -2.1084  1.0226 -0.5950
12635TIP3   OH259395   1.055   1.963  11.310 -0.0436 -0.3171  0.0784
12635TIP3    H159396   1.021   1.989  11.224  0.6335 -0.3602 -0.2126
12635TIP3    H259397   1.139   1.922  11.291 -0.0044 -0.5555  0.7451
12636TIP3   OH259398   0.892   4.600   4.610  0.2955  0.4929 -0.4023
12636TIP3    H159399   0.981   4.586   4.640  0.8636 -0.4451 -2.3719
12636TIP3    H259400   0.857   4.668   4.668  2.3739  1.1065  0.2020
12637TIP3   OH259401   1.028   1.076  10.645  0.0690  0.4487  0.3301
12637TIP3    H159402   0.998   1.163  10.619 -0.1968  0.9368  2.1120
12637TIP3    H259403   1.083   1.046  10.573 -2.0850  0.8899 -1.6091
12638TIP3   OH259404   2.988   0.849   1.423 -0.3925  0.0448 -0.0345
12638TIP3    H159405   3.017   0.762   1.396 -0.3700  0.3821 -1.1368
12638TIP3    H259406   2.957   0.837   1.513  0.8375 -0.8279  0.2991
12639TIP3   OH259407   6.787   2.115   6.413  0.3158 -0.4852  0.2624
12639TIP3    H159408   6.841   2.140   6.488  0.2758  0.9202 -0.1391
12639TIP3    H259409   6.829   2.037   6.378  0.7618 -0.7268  1.3127
12640TIP3   OH259410   2.306   6.834  13.051 -0.2708  0.6492 -0.2253
12640TIP3    H159411   2.364   6.904  13.080  1.8468 -0.9566 -0.3092
12640TIP3    H259412   2.328   6.760  13.107 -1.8829 -0.2117 -0.6406
12641TIP3   OH259413   6.135   6.355   2.444 -0.1751 -0.1087  0.0392
12641TIP3    H159414   6.074   6.281   2.455 -0.8571  0.5454  0.8755
12641TIP3    H259415   6.110   6.395   2.361  0.8018 -1.3457 -0.8756
12642TIP3   OH259416   5.820   1.486   3.632  0.7510 -0.0090 -0.2612
12642TIP3    H159417   5.826   1.581   3.643  0.3876 -0.1306  1.2188
12642TIP3    H259418   5.863   1.468   3.548  2.1816  1.3097  0.1496
12643TIP3   OH259419   2.637   0.350   0.594 -0.5556 -0.5000 -0.4514
12643TIP3    H159420   2.629   0.444   0.611 -0.3906 -0.3860 -0.9762
12643TIP3    H259421   2.556   0.312   0.628 -0.5942 -0.1744 -0.1808
12644TIP3   OH259422   4.716   2.486  12.418 -0.0588 -0.9758  0.3768
12644TIP3    H159423   4.643   2.516  12.364 -0.4833 -1.6211  0.5730
12644TIP3    H259424   4.783   2.460  12.355  1.1011  2.0866  0.1813
12645TIP3   OH259425   2.109   4.517  15.347  0.5083 -0.3026  0.0238
12645TIP3    H159426   2.137   4.534  15.437  1.0326  1.4171 -0.4297
12645TIP3    H259427   2.139   4.593  15.297 -2.2137  0.1765 -1.0895
12646TIP3   OH259428   3.505   1.235   4.423 -0.1076 -0.0150 -0.4806
12646TIP3    H159429   3.491   1.161   4.364  1.7685  1.2743 -2.7335
12646TIP3    H259430   3.417   1.263   4.448 -0.8840 -2.2512 -0.4793
12647TIP3   OH259431   1.058   0.660  16.364 -0.0664  0.6489  0.0264
12647TIP3    H159432   1.094   0.622  16.284  1.5714  0.8547  0.6110
12647TIP3    H259433   0.982   0.606  16.384  0.2475 -0.2052 -0.9816
12648TIP3   OH259434   6.393   5.507   5.013  0.0080  0.2577 -0.4959
12648TIP3    H159435   6.342   5.478   4.938 -0.7223 -2.8327  1.0234
12648TIP3    H259436   6.341   5.480   5.089  1.9228  0.8372  1.1091
12649TIP3   OH259437   4.514   6.405  12.145  0.1471  0.5149 -0.3810
12649TIP3    H159438   4.495   6.476  12.084 -3.4394  0.3943  0.3436
12649TIP3    H259439   4.430   6.359  12.154  1.4088 -1.5543  2.0229
12650TIP3   OH259440   3.316   1.784   1.746 -1.0758  0.3298  0.1750
12650TIP3    H159441   3.227   1.754   1.764 -0.7214  0.4518  2.4665
12650TIP3    H259442   3.330   1.857   1.807  0.2753  0.9655 -0.8203
12651TIP3   OH259443   6.470   4.478  12.498  0.5712 -0.1801 -0.0548
12651TIP3    H159444   6.504   4.400  12.453  4.9410  0.8091  1.0471
12651TIP3    H259445   6.484   4.549  12.435 -0.9795  0.1071 -0.0967
12652TIP3   OH259446   4.651   1.032   2.359 -0.4707  0.2876 -0.0104
12652TIP3    H159447   4.560   1.054   2.381 -0.9670 -0.3336 -1.3432
12652TIP3    H259448   4.668   0.950   2.407 -1.2212 -0.5377 -1.0917
12653TIP3   OH259449   1.412   0.430  12.112  0.6145 -0.5890  0.0875
12653TIP3    H159450   1.422   0.523  12.092 -0.0298 -0.4060  0.5764
12653TIP3    H259451   1.332   0.405  12.067  1.3989 -1.2074 -1.0153
12654TIP3   OH259452   1.750   0.110  13.416  0.1614  0.3493  0.0576
12654TIP3    H159453   1.674   0.110  13.358 -0.3152  2.5554  0.5592
12654TIP3    H259454   1.825   0.116  13.358 -0.1516 -0.1450 -0.4010
12655TIP3   OH259455   0.364   6.398   2.245  0.3748  0.0574  0.0291
12655TIP3    H159456   0.338   6.465   2.182  0.0366 -0.0320  0.0754
12655TIP3    H259457   0.303   6.326   2.231  1.6754 -0.8869 -1.0990
12656TIP3   OH259458   3.997   0.280  13.180  0.0532  0.1110  0.1388
12656TIP3    H159459   3.907   0.295  13.209  0.8462  1.9335  1.8941
12656TIP3    H259460   3.996   0.192  13.141 -2.0169 -0.8364  2.1140
12657TIP3   OH259461   5.873   3.153   5.440  0.2353  0.0076  0.1067
12657TIP3    H159462   5.808   3.189   5.501 -0.2383  0.4684 -0.6530
12657TIP3    H259463   5.844   3.063   5.424 -0.5944  0.4090 -0.7236
12658TIP3   OH259464   3.516   4.939   5.544 -0.8367 -0.0615  0.3866
12658TIP3    H159465   3.435   4.896   5.571 -0.0420 -2.2930 -0.5078
12658TIP3    H259466   3.584   4.898   5.599 -0.3445  2.2799  1.6369
12659TIP3   OH259467   6.044   4.613  15.432 -0.1052 -0.4245 -0.0171
12659TIP3    H159468   6.019   4.593  15.522 -1.3732  1.6584  0.1681
12659TIP3    H259469   6.082   4.701  15.437  0.8406 -0.7197 -1.3830
12660TIP3   OH259470   5.629   2.927  14.828  0.0002 -0.2067  0.2111
12660TIP3    H159471   5.585   2.874  14.895  0.3065  1.0359  1.4468
12660TIP3    H259472   5.570   3.000  14.812 -0.3767 -0.8173 -1.4152
12661TIP3   OH259473   3.236   3.503  14.821 -0.3431  0.6072 -0.0845
12661TIP3    H159474   3.260   3.410  14.823 -0.5965  0.5424  2.2224
12661TIP3    H259475   3.152   3.507  14.868 -0.2056  2.0361  0.0791
12662TIP3   OH259476   0.079   3.634  15.656  0.3517 -0.1517 -0.0961
12662TIP3    H159477   0.122   3.605  15.737  1.0026 -0.0760 -0.4104
12662TIP3    H259478  -0.005   3.588  15.656  0.7519 -0.8961  0.1423
12663TIP3   OH259479   2.843   1.930   2.776  0.1874  0.4100  0.1967
12663TIP3    H159480   2.833   1.839   2.747  0.6052  0.4267 -0.0141
12663TIP3    H259481   2.754   1.960   2.794 -0.2475  0.7537 -2.1558
12664TIP3   OH259482   4.479   5.661   3.316 -0.3899 -0.7142 -0.4522
12664TIP3    H159483   4.523   5.665   3.231 -0.0510  1.1336 -0.2350
12664TIP3    H259484   4.526   5.723   3.371 -1.9375 -0.2483  0.4356
12665TIP3   OH259485   0.529   0.463   6.090  0.3418 -0.3467 -0.2960
12665TIP3    H159486   0.452   0.467   6.147  0.4208 -2.4647  0.0222
12665TIP3    H259487   0.552   0.555   6.074 -0.7520  0.3039  1.6106
12666TIP3   OH259488   3.928   4.305   3.849 -0.3259  0.4003 -0.4843
12666TIP3    H159489   3.893   4.266   3.929  1.2170  0.7380  0.3966
12666TIP3    H259490   3.883   4.389   3.841  0.3491  0.8998  0.7093
12667TIP3   OH259491   3.457   5.728   1.908  0.2456 -0.7811  0.2122
12667TIP3    H159492   3.501   5.812   1.921 -0.1798 -0.4853 -0.2437
12667TIP3    H259493   3.382   5.731   1.968 -0.6414 -0.1915 -0.8710
12668TIP3   OH259494   5.607   6.794  12.412  0.5450 -0.0624  0.1103
12668TIP3    H159495   5.560   6.711  12.405 -0.9692  0.3584  3.3029
12668TIP3    H259496   5.634   6.798  12.504 -0.7504  3.5828  0.5132
12669TIP3   OH259497   5.320   1.598   2.728 -0.2563 -0.3156  0.1198
12669TIP3    H159498   5.407   1.610   2.766 -1.1662  3.0248  1.5897
12669TIP3    H259499   5.264   1.656   2.780 -3.2959 -1.9276 -1.1023
12670TIP3   OH259500   5.791   6.345   5.412  0.3942  0.2662  0.1889
12670TIP3    H159501   5.845   6.266   5.405 -0.9370 -0.6833  0.4014
12670TIP3    H259502   5.820   6.399   5.338  2.5008  0.3652  1.0009
12671TIP3   OH259503   1.894   0.359  15.232  0.1573  0.4387 -0.3996
12671TIP3    H159504   1.976   0.312  15.217 -0.5312 -0.8123 -0.3401
12671TIP3    H259505   1.826   0.300  15.200 -0.6371  2.2682 -2.3202
12672TIP3   OH259506   2.160   3.189   3.266  0.0878 -0.9388  0.5351
12672TIP3    H159507   2.249   3.219   3.246 -0.1016 -0.6198  0.1597
12672TIP3    H259508   2.114   3.192   3.182 -0.8761  0.9574  1.0924
12673TIP3   OH259509   1.477   3.348  13.683 -0.0261 -0.3881 -0.3990
12673TIP3    H159510   1.448   3.322  13.596  1.3965 -0.6718 -0.8209
12673TIP3    H259511   1.460   3.442  13.688  0.2310 -0.2960 -1.1344
12674TIP3   OH259512   6.071   6.408   6.257  0.1891 -0.1308 -0.5310
12674TIP3    H159513   6.128   6.350   6.307 -1.6152 -1.1115  0.4701
12674TIP3    H259514   6.083   6.494   6.297 -0.4830 -0.7091  0.9797
12675TIP3   OH259515   2.354   1.125   0.046 -0.1555  0.1349  0.0580
12675TIP3    H159516   2.364   1.117  -0.049  2.3366 -1.3820  0.3572
12675TIP3    H259517   2.355   1.219   0.062  2.1165  0.4216 -1.2722
12676TIP3   OH259518   1.393   0.770  14.802 -0.2859 -0.2966  0.4673
12676TIP3    H159519   1.410   0.864  14.805  2.3554 -0.7038  2.8597
12676TIP3    H259520   1.310   0.759  14.848 -0.9930  0.8835 -0.4652
12677TIP3   OH259521   2.909   5.559   1.569 -0.0207 -0.2771  0.2013
12677TIP3    H159522   2.987   5.548   1.513  1.0531  0.3125  1.5090
12677TIP3    H259523   2.874   5.471   1.579 -1.1113 -0.2543 -2.5305
12678TIP3   OH259524   3.809   1.127   0.235 -0.1481 -0.2156 -0.0138
12678TIP3    H159525   3.904   1.129   0.233 -0.0803  0.8250  1.5780
12678TIP3    H259526   3.783   1.216   0.209 -0.7222 -0.7062 -1.1534
12679TIP3   OH259527   2.924   3.588   0.224  0.3140  0.2623 -0.3948
12679TIP3    H159528   2.837   3.593   0.185 -0.0614  1.4247  0.5247
12679TIP3    H259529   2.907   3.583   0.318  1.1980 -1.9559 -0.2808
12680TIP3   OH259530   1.895   3.477  14.455  0.2570 -0.5446  0.0939
12680TIP3    H159531   1.920   3.520  14.537  1.7000  1.2828 -1.2077
12680TIP3    H259532   1.801   3.493  14.447  0.2504 -0.0493  1.0154
12681TIP3   OH259533   5.846   6.700   0.941 -0.3195 -0.2123 -0.4738
12681TIP3    H159534   5.815   6.711   0.852  0.4505 -1.9294 -0.9962
12681TIP3    H259535   5.915   6.766   0.951 -0.3114 -0.1042 -1.2145
12682TIP3   OH259536   0.326   2.022  10.163  0.1395 -0.3503  0.4582
12682TIP3    H159537   0.292   1.968  10.234 -0.1093 -0.9277 -0.0873
12682TIP3    H259538   0.412   2.051  10.194  0.2759 -1.0636  0.7690
12683TIP3   OH259539   0.350   3.406  14.002 -0.2405 -0.1495  0.2464
12683TIP3    H159540   0.391   3.365  14.078 -1.0550 -1.2413  0.1307
12683TIP3    H259541   0.418   3.462  13.965  0.4941 -0.3969  1.1852
12684TIP3   OH259542   6.041   0.644   3.286 -0.2329 -0.3446 -0.1300
12684TIP3    H159543   6.110   0.590   3.245  0.5312  0.2654  0.3215
12684TIP3    H259544   6.028   0.604   3.372  0.0013 -0.0966  0.0227
12685TIP3   OH259545   5.791   1.754   4.501  0.0315 -0.2280  0.4735
12685TIP3    H159546   5.735   1.813   4.552  1.1529  0.9050  0.4445
12685TIP3    H259547   5.754   1.667   4.516 -1.6921  0.4630  0.4968
12686TIP3   OH259548   4.265   1.637  14.612 -0.2928 -0.2048 -0.6783
12686TIP3    H159549   4.292   1.668  14.525  2.2052 -1.1213 -0.3015
12686TIP3    H259550   4.179   1.676  14.625  0.2622  1.9010 -2.5828
12687TIP3   OH259551   3.789   3.947   0.164 -0.2129  0.9175  0.0974
12687TIP3    H159552   3.884   3.941   0.155 -0.3205  0.2918 -0.7010
12687TIP3    H259553   3.756   3.936   0.075 -0.9804  2.4332  0.1577
12688TIP3   OH259554   2.074   0.416   4.260 -0.2156  0.0092 -0.7134
12688TIP3    H159555   1.985   0.445   4.236 -0.0706 -0.7485 -2.2915
12688TIP3    H259556   2.064   0.324   4.283  0.2764 -0.3268 -1.7727
12689TIP3   OH259557   4.014   6.245   5.826  0.5405 -0.0980 -0.2667
12689TIP3    H159558   4.014   6.254   5.922  0.5910 -0.6533 -0.2101
12689TIP3    H259559   3.955   6.314   5.795 -0.7293 -0.9024  0.2694
12690TIP3   OH259560   0.287   0.227   3.631  0.1889 -0.2734  0.7956
12690TIP3    H159561   0.355   0.219   3.697 -0.8539 -2.4373  1.7159
12690TIP3    H259562   0.242   0.142   3.633 -2.1949  0.8934 -0.1355
12691TIP3   OH259563   3.006   0.839  10.639 -0.1650  0.3323  0.5113
12691TIP3    H159564   2.949   0.866  10.712 -1.3486  1.0274 -0.6185
12691TIP3    H259565   2.970   0.756  10.609 -0.4805  0.6738 -0.0794
12692TIP3   OH259566   3.352   0.148   3.953  0.2091  0.3215  0.1164
12692TIP3    H159567   3.429   0.182   3.910  0.7576 -1.1690 -0.1574
12692TIP3    H259568   3.290   0.130   3.883  0.0965  0.3360  0.2107
12693TIP3   OH259569   4.168   4.554  16.497  0.5425  0.2956  0.3774
12693TIP3    H159570   4.112   4.489  16.457  0.5356  0.2611  0.4412
12693TIP3    H259571   4.255   4.539  16.460  0.0002  2.0814 -1.8107
12694TIP3   OH259572   0.568   0.023  14.065 -0.5212 -0.0104  0.7205
12694TIP3    H159573   0.516   0.086  14.015  0.6116  1.2747  1.1191
12694TIP3    H259574   0.645   0.007  14.011  1.1025  1.9914  2.2780
12695TIP3   OH259575   2.040   1.600   2.420 -0.0252 -0.4739 -0.3007
12695TIP3    H159576   2.011   1.668   2.359  1.6980 -0.7240 -1.4227
12695TIP3    H259577   2.134   1.592   2.406  0.1367 -1.7476  1.1957
12696TIP3   OH259578   4.993   3.080  13.256 -0.2898  0.1035 -0.2381
12696TIP3    H159579   4.977   3.113  13.167 -1.6664  1.6480  0.5095
12696TIP3    H259580   4.962   3.151  13.313 -1.3537 -1.6619  1.4879
12697TIP3   OH259581   2.598   0.815  15.781  0.5244  0.0970 -0.5559
12697TIP3    H159582   2.596   0.910  15.795 -0.0126  0.0907 -0.5383
12697TIP3    H259583   2.505   0.790  15.783  0.6420 -0.3703 -0.9430
12698TIP3   OH259584   0.872   4.535  11.199 -0.6528  0.4669  0.1710
12698TIP3    H159585   0.827   4.480  11.263 -1.2740 -1.6116 -1.9205
12698TIP3    H259586   0.886   4.478  11.123  1.4852  2.3406 -0.9852
12699TIP3   OH259587   3.541   0.312  13.048  0.0956  0.5024  0.2940
12699TIP3    H159588   3.504   0.333  12.962 -0.6579 -0.9618  0.2139
12699TIP3    H259589   3.483   0.356  13.110 -0.7838 -0.3556  0.1057
12700TIP3   OH259590   6.577   0.857   2.815  0.6798 -0.1770  0.1411
12700TIP3    H159591   6.640   0.921   2.847 -0.8317  0.6605  1.6102
12700TIP3    H259592   6.555   0.804   2.892 -0.7656 -0.0946 -0.1762
12701TIP3   OH259593   4.483   4.964  14.118 -0.1111 -0.3062 -0.5444
12701TIP3    H159594   4.512   4.922  14.037  2.8248 -0.5346  0.4934
12701TIP3    H259595   4.437   4.895  14.166  0.1669 -0.8494 -1.0514
12702TIP3   OH259596   6.275   0.073  15.641  0.0038 -0.3336 -0.2427
12702TIP3    H159597   6.320   0.043  15.562 -1.0902 -0.5611 -0.7899
12702TIP3    H259598   6.200   0.123  15.609 -2.1064 -2.7812  0.5559
12703TIP3   OH259599   3.026   1.693   5.653 -0.0284  0.3383 -0.1787
12703TIP3    H159600   3.041   1.769   5.596  2.1261 -0.9872 -1.5422
12703TIP3    H259601   3.110   1.677   5.695 -0.4031 -1.2853  0.0438
12704TIP3   OH259602   1.664   2.151  12.844 -0.0168 -0.2299 -0.6028
12704TIP3    H159603   1.573   2.156  12.872  0.1048 -0.8262 -0.0677
12704TIP3    H259604   1.713   2.200  12.909  0.3416 -2.1469  0.6635
12705TIP3   OH259605   4.994   4.207  15.232 -0.5935  0.5671  0.3035
12705TIP3    H159606   5.047   4.276  15.192  1.5313 -0.9108  0.4597
12705TIP3    H259607   5.031   4.196  15.320 -2.6141  0.9753  1.2786
12706TIP3   OH259608   0.460   6.386   3.584  0.3153  0.1848 -0.3062
12706TIP3    H159609   0.554   6.378   3.567 -0.0271 -0.5717 -2.1163
12706TIP3    H259610   0.420   6.382   3.497 -1.4874 -0.9335  0.5172
12707TIP3   OH259611   3.875   1.599  16.242  0.4874  0.2761  0.0635
12707TIP3    H159612   3.809   1.559  16.298  1.3744 -0.5908  0.5262
12707TIP3    H259613   3.846   1.690  16.230 -0.7606 -0.0883  0.2594
12708TIP3   OH259614   1.871   2.531  14.149 -0.3536  0.2643 -0.1895
12708TIP3    H159615   1.795   2.473  14.156 -1.3495  1.4664 -0.6814
12708TIP3    H259616   1.871   2.558  14.057  0.5564  0.4464 -0.1409
12709TIP3   OH259617   4.684   2.379  13.868 -0.0531 -0.0141  0.1285
12709TIP3    H159618   4.754   2.314  13.871 -2.0703 -2.2827  1.0832
12709TIP3    H259619   4.687   2.422  13.953 -0.3904 -0.8171  0.5648
12710TIP3   OH259620   1.148   1.365  10.323  0.1597 -0.1687  0.0424
12710TIP3    H159621   1.055   1.387  10.329 -0.0015 -1.2032  3.6402
12710TIP3    H259622   1.151   1.293  10.261 -1.1310  1.0018 -1.4803
12711TIP3   OH259623   2.544   4.610  16.000 -0.4771  0.1784 -0.4899
12711TIP3    H159624   2.569   4.551  15.929 -0.7283 -2.0941  1.2055
12711TIP3    H259625   2.461   4.576  16.032 -0.1677  0.8702  1.1682
12712TIP3   OH259626   0.746   3.204   2.807 -0.1254  0.6627 -0.2091
12712TIP3    H159627   0.797   3.283   2.823 -0.6872  0.7845  1.1491
12712TIP3    H259628   0.739   3.162   2.893 -3.0114  1.0812 -0.1437
12713TIP3   OH259629   4.908   1.147   0.117  0.1331 -1.1112 -0.1620
12713TIP3    H159630   4.843   1.085   0.149  0.6409 -2.0625 -0.9160
12713TIP3    H259631   4.937   1.110   0.034 -0.2105  0.6261 -1.0866
12714TIP3   OH259632   5.471   5.231  13.479 -0.2201 -0.4616 -0.0872
12714TIP3    H159633   5.412   5.182  13.537 -1.1383 -0.0527 -0.6488
12714TIP3    H259634   5.557   5.224  13.520 -1.0822  1.0479  2.1407
12715TIP3   OH259635   2.541   6.826   4.781  0.0969  0.1154 -0.1648
12715TIP3    H159636   2.562   6.823   4.875  0.1244 -0.4057 -0.1819
12715TIP3    H259637   2.446   6.838   4.779 -0.0661 -1.0389 -0.0506
12716TIP3   OH259638   1.467   1.504   3.233 -0.0922 -0.3530 -0.3565
12716TIP3    H159639   1.421   1.557   3.298 -0.1854 -1.4071  0.4641
12716TIP3    H259640   1.478   1.563   3.158 -1.4184  0.3940 -0.0046
12717TIP3   OH259641   5.472   0.172   1.931 -0.1734 -0.4237 -0.4630
12717TIP3    H159642   5.413   0.241   1.959 -2.2030 -2.1355 -0.2333
12717TIP3    H259643   5.418   0.093   1.932  2.6395 -2.5106  1.7602
12718TIP3   OH259644   2.230   2.150   2.078 -0.0554 -0.0189  0.5510
12718TIP3    H159645   2.171   2.225   2.086  0.3482  0.1932  1.7506
12718TIP3    H259646   2.307   2.185   2.034  0.3688  0.4373  1.6148
12719TIP3   OH259647   0.528   0.496  15.440 -0.1935 -0.1132  0.2632
12719TIP3    H159648   0.574   0.472  15.520  2.0669  0.2481 -0.8503
12719TIP3    H259649   0.573   0.447  15.371 -1.7173  0.0183 -0.8658
12720TIP3   OH259650   6.715   0.841  13.278 -0.3422 -0.7023 -0.1527
12720TIP3    H159651   6.783   0.880  13.333  0.2756 -1.2268 -0.5442
12720TIP3    H259652   6.683   0.914  13.225  1.3650 -0.8578 -1.4568
12721TIP3   OH259653   0.201   5.667  14.469 -0.6805 -0.1767 -0.1662
12721TIP3    H159654   0.107   5.668  14.447 -0.5110  2.8533 -1.2229
12721TIP3    H259655   0.236   5.745  14.426  1.6234  0.8343  3.1327
12722TIP3   OH259656   1.893   3.904   1.377  0.5388 -0.6141 -0.1975
12722TIP3    H159657   1.939   3.861   1.304  2.6127  0.7863  0.2142
12722TIP3    H259658   1.898   3.997   1.356 -2.1016 -0.3813 -0.0559
12723TIP3   OH259659   3.603   3.635   0.300  0.1726 -0.4285  0.0627
12723TIP3    H159660   3.635   3.594   0.380 -0.3557 -0.0482  0.4803
12723TIP3    H259661   3.519   3.593   0.283 -0.2952  0.3469  0.4027
12724TIP3   OH259662   2.261   0.127   1.950  0.1369  0.5438  0.4461
12724TIP3    H159663   2.209   0.160   2.023 -0.6702  1.4429 -0.5111
12724TIP3    H259664   2.352   0.148   1.974  0.3506 -2.3765  2.8300
12725TIP3   OH259665   1.902   5.396   1.116  0.0474  0.0180  0.2451
12725TIP3    H159666   1.896   5.444   1.199  0.4910 -2.9227  2.1047
12725TIP3    H259667   1.820   5.347   1.111 -0.3068  0.7159 -1.5147
12726TIP3   OH259668   4.803   3.693  15.714 -0.2038  0.3933  0.0145
12726TIP3    H159669   4.735   3.750  15.748  0.0117  0.3133  0.5947
12726TIP3    H259670   4.767   3.605  15.721  0.3529  0.2485  1.3304
12727TIP3   OH259671   6.122   1.499  16.239  0.1023  0.7882 -0.4518
12727TIP3    H159672   6.094   1.409  16.221  0.0818  0.6499  0.2465
12727TIP3    H259673   6.141   1.500  16.333 -0.6334  1.7129 -0.2945
12728TIP3   OH259674   3.400   5.507  13.071  1.0014  0.0423  0.0513
12728TIP3    H159675   3.405   5.420  13.031 -0.7487  0.9169 -2.3345
12728TIP3    H259676   3.336   5.497  13.142 -0.9780 -0.2393 -1.6600
12729TIP3   OH259677   3.625   2.814   3.717  0.3102  0.1884  0.0358
12729TIP3    H159678   3.610   2.723   3.690 -2.1474  0.3209  0.7414
12729TIP3    H259679   3.606   2.814   3.810  0.0002  1.4829 -0.0171
12730TIP3   OH259680   3.982   2.477  12.033 -0.3311 -0.0479 -0.0323
12730TIP3    H159681   4.067   2.488  12.076 -0.8506 -0.7146  1.2331
12730TIP3    H259682   3.922   2.459  12.105 -1.7570  1.4619 -0.7875
12731TIP3   OH259683   4.293   2.383  14.863  0.5618 -0.3121  0.2242
12731TIP3    H159684   4.283   2.320  14.934  0.6271 -0.1976  0.3357
12731TIP3    H259685   4.384   2.372  14.834  0.3881 -0.7194 -0.1848
12732TIP3   OH259686   2.936   3.261   4.931  0.0266 -0.1036  0.5070
12732TIP3    H159687   2.940   3.345   4.887 -0.4711  1.1892  2.7582
12732TIP3    H259688   2.893   3.203   4.869  0.3100  1.3018 -1.0738
12733TIP3   OH259689   3.683   0.339  13.486  0.3048  0.0300  0.4084
12733TIP3    H159690   3.621   0.272  13.459 -0.8983  1.3361 -0.1939
12733TIP3    H259691   3.724   0.369  13.405  0.5020  0.3297  0.6145
12734TIP3   OH259692   4.815   0.663  12.162 -0.7528  0.0124 -0.1476
12734TIP3    H159693   4.791   0.701  12.246 -0.9223 -0.8881  0.2155
12734TIP3    H259694   4.798   0.733  12.099 -1.7100  0.3121  0.4242
12735TIP3   OH259695   4.682   3.278   6.613 -0.2235 -0.6503 -0.0682
12735TIP3    H159696   4.704   3.186   6.602  1.0422 -0.2969 -0.7627
12735TIP3    H259697   4.620   3.281   6.686  0.2392 -1.9698  0.3859
12736TIP3   OH259698   3.728   2.530  15.156  0.0776 -0.1102  0.2659
12736TIP3    H159699   3.658   2.465  15.155 -0.5715  0.5290 -2.2043
12736TIP3    H259700   3.711   2.585  15.079  1.7371  1.7619  1.1553
12737TIP3   OH259701   4.800   1.806  14.848 -0.1264 -0.1681 -0.0799
12737TIP3    H159702   4.778   1.822  14.756  0.6541 -0.1972 -0.2725
12737TIP3    H259703   4.890   1.835  14.857  0.2975 -1.5325  0.3216
12738TIP3   OH259704   0.948   0.934  13.017  0.4263 -0.3568 -0.5760
12738TIP3    H159705   0.971   0.906  13.106  2.3066  2.0246 -0.2265
12738TIP3    H259706   1.028   0.920  12.966  0.1109  0.5311 -1.3367
12739TIP3   OH259707   5.857   6.791   0.164  0.0708 -0.5718  0.3085
12739TIP3    H159708   5.844   6.707   0.209  1.4987 -0.8269  0.3163
12739TIP3    H259709   5.781   6.800   0.107 -0.9547 -1.0486  1.5436
12740TIP3   OH259710   4.674   4.867  15.917  0.6484  0.6412  0.2182
12740TIP3    H159711   4.588   4.831  15.935  1.8546 -1.3448  2.7386
12740TIP3    H259712   4.711   4.810  15.850  0.5379  0.5390  0.2449
12741TIP3   OH259713   5.104   3.748   2.686  0.0926 -0.0889  0.2025
12741TIP3    H159714   5.150   3.751   2.601  0.1935 -0.3799  0.2448
12741TIP3    H259715   5.113   3.837   2.721  1.4187 -0.3674  0.6278
12742TIP3   OH259716   5.945   4.477  17.042 -0.2955  0.1931 -0.1295
12742TIP3    H159717   5.967   4.393  17.003  1.7243  1.3813 -1.7527
12742TIP3    H259718   5.928   4.458  17.134  0.1397 -1.9614 -0.4534
12743TIP3   OH259719   1.511   4.769   1.480 -0.2344  0.5387 -0.3843
12743TIP3    H159720   1.527   4.728   1.395 -1.4080  0.0994 -0.4069
12743TIP3    H259721   1.479   4.698   1.535 -3.1612  1.5028 -0.6592
12744TIP3   OH259722   6.727   3.108  16.914  0.8379  0.1692  0.1552
12744TIP3    H159723   6.728   3.203  16.904 -0.0339  0.2933  1.1128
12744TIP3    H259724   6.751   3.074  16.828  2.5043  1.2643  0.1433
12745TIP3   OH259725   6.456   6.283   5.516 -0.0696  0.2462  0.3423
12745TIP3    H159726   6.507   6.244   5.587 -0.8605 -1.1783  0.1642
12745TIP3    H259727   6.367   6.253   5.532 -0.1966 -0.4710 -1.4989
12746TIP3   OH259728   2.831   4.232   6.453  0.0539  0.2075  0.2356
12746TIP3    H159729   2.773   4.274   6.390 -1.4175 -0.5768  1.0039
12746TIP3    H259730   2.916   4.274   6.440 -0.3614  0.5296 -1.7858
12747TIP3   OH259731   3.518   6.002  14.202 -0.0586 -0.5564 -0.7103
12747TIP3    H159732   3.588   5.946  14.168 -0.4322 -1.5828  0.1622
12747TIP3    H259733   3.519   6.079  14.145  0.9238 -1.1369 -1.5062
12748TIP3   OH259734   5.429   0.902  14.837 -0.1248  0.5531  0.0243
12748TIP3    H159735   5.381   0.826  14.868  0.1070  0.5130  0.2834
12748TIP3    H259736   5.505   0.908  14.894  0.0143  0.8034 -0.1843
12749TIP3   OH259737   3.140   5.680   0.875  0.4953 -0.1776  0.0418
12749TIP3    H159738   3.131   5.589   0.903 -0.5302 -0.3427 -0.7793
12749TIP3    H259739   3.182   5.674   0.789 -1.4623 -0.0333 -0.9750
12750TIP3   OH259740   3.645   1.001  16.793 -0.4770  0.1659 -0.1653
12750TIP3    H159741   3.629   1.077  16.849 -1.9959  0.2044 -0.5895
12750TIP3    H259742   3.723   1.024  16.743  1.8309 -0.4597  2.8563
12751TIP3   OH259743   0.119   5.970   2.840 -0.0198 -0.1041  0.0118
12751TIP3    H159744   0.037   5.927   2.865  0.6780 -0.7191  1.3600
12751TIP3    H259745   0.170   5.974   2.921  1.5272 -0.2792 -0.9074
12752TIP3   OH259746   3.239   5.043  12.293  0.1754  0.0103 -0.4541
12752TIP3    H159747   3.222   5.134  12.267 -0.4208  0.1355  0.3467
12752TIP3    H259748   3.294   5.051  12.371 -0.3915 -0.3041 -0.0217
12753TIP3   OH259749   3.392   0.235  13.353 -0.5476  0.4816  0.6047
12753TIP3    H159750   3.320   0.175  13.331  1.6339 -1.6718 -1.3373
12753TIP3    H259751   3.381   0.309  13.293 -1.3582  0.3435  0.5803
12754TIP3   OH259752   2.425   3.377   2.450 -0.0156  0.0847 -0.1349
12754TIP3    H159753   2.374   3.296   2.442  1.4745 -0.7598 -2.0360
12754TIP3    H259754   2.510   3.355   2.412  0.0409  2.8754 -1.9074
12755TIP3   OH259755   1.467   0.231  13.038  0.0914 -0.4876  0.2115
12755TIP3    H159756   1.391   0.173  13.038  0.3281 -0.8020  0.3722
12755TIP3    H259757   1.496   0.233  13.129  0.5437 -0.7330  0.0792
12756TIP3   OH259758   1.482   6.056  15.098 -0.0743 -0.2347 -0.5119
12756TIP3    H159759   1.438   6.044  15.014  1.3005 -0.6116 -1.1975
12756TIP3    H259760   1.537   5.978  15.108  0.8557  0.4732  0.0516
12757TIP3   OH259761   6.622   1.173   0.683 -0.7475 -0.4498 -0.4295
12757TIP3    H159762   6.711   1.179   0.649 -0.6936  0.3520 -0.1484
12757TIP3    H259763   6.594   1.084   0.660 -0.1744 -0.4299 -1.2386
12758TIP3   OH259764   4.616   0.705  14.112  0.3100  0.3187  0.2948
12758TIP3    H159765   4.674   0.713  14.037 -0.2832 -1.6757 -0.4418
12758TIP3    H259766   4.661   0.753  14.182  0.7983  2.3511 -1.3142
12759TIP3   OH259767   6.649   6.491   3.595 -0.0937 -0.2866 -0.4113
12759TIP3    H159768   6.625   6.400   3.574  1.0287 -0.7323  0.1623
12759TIP3    H259769   6.599   6.543   3.532 -0.7117 -1.2958 -0.7971
12760TIP3   OH259770   4.378   1.300  13.560  0.5777 -0.2365  0.2256
12760TIP3    H159771   4.347   1.246  13.633 -0.1538  1.6857  1.4264
12760TIP3    H259772   4.364   1.246  13.483 -1.0368 -1.3999  1.2635
12761TIP3   OH259773   1.522   4.334   4.059  0.1946  0.0165  0.0075
12761TIP3    H159774   1.432   4.355   4.034  0.0270 -1.3884 -0.6593
12761TIP3    H259775   1.558   4.418   4.088 -1.3947  0.5667  0.5481
12762TIP3   OH259776   3.220   4.326   5.958 -0.1841  0.4887  0.6673
12762TIP3    H159777   3.156   4.257   5.940  0.1221  0.2046  0.6324
12762TIP3    H259778   3.229   4.325   6.053  1.1472 -0.7847  0.5791
12763TIP3   OH259779   6.722   1.211  11.190  0.4666 -0.3474 -0.4034
12763TIP3    H159780   6.748   1.276  11.125  0.3012  0.0152 -0.1092
12763TIP3    H259781   6.628   1.203  11.179  0.6229 -1.2936 -1.1298
12764TIP3   OH259782   5.651   1.682  11.238  0.4447 -0.0686 -0.5502
12764TIP3    H159783   5.605   1.766  11.245 -0.6601 -0.5199 -1.9071
12764TIP3    H259784   5.647   1.661  11.145  0.1236 -1.9304 -0.1513
12765TIP3   OH259785   5.562   0.114   1.346 -0.0295  0.4213  0.2025
12765TIP3    H159786   5.471   0.084   1.340  0.4742 -1.0349 -0.8186
12765TIP3    H259787   5.598   0.098   1.258  0.9649  1.8734  0.3136
12766TIP3   OH259788   6.531   3.931  11.212  0.0331 -0.6212 -0.0160
12766TIP3    H159789   6.617   3.930  11.254 -0.9789 -1.3203  2.2220
12766TIP3    H259790   6.508   4.023  11.206  1.6490 -0.2894 -2.3736
12767TIP3   OH259791   5.264   6.247   3.659 -0.6182  0.0689 -0.0056
12767TIP3    H159792   5.217   6.308   3.715 -0.9696  0.9435 -1.1910
12767TIP3    H259793   5.308   6.187   3.719 -2.3980 -0.1348  1.1582
12768TIP3   OH259794   3.195   3.412  12.323 -0.0231 -0.2924  0.6220
12768TIP3    H159795   3.254   3.371  12.386  0.5026  0.5944  0.7250
12768TIP3    H259796   3.107   3.391  12.355  0.2353 -0.0025  1.5562
12769TIP3   OH259797   5.088   0.233   1.431 -0.5081 -0.3196  0.3988
12769TIP3    H159798   5.076   0.288   1.353  0.0821 -2.4180 -1.2660
12769TIP3    H259799   5.164   0.270   1.475 -1.6142  1.6865  0.7483
12770TIP3   OH259800   6.822   2.053   2.302 -0.4383 -0.1322  0.2090
12770TIP3    H159801   6.845   2.004   2.222 -1.2168 -0.6302  0.2851
12770TIP3    H259802   6.860   2.140   2.288  0.1487 -0.4638 -0.3416
12771TIP3   OH259803   4.379   1.327   4.238 -0.0416  0.2261  0.2545
12771TIP3    H159804   4.288   1.328   4.269 -0.4599 -0.5705 -0.8998
12771TIP3    H259805   4.384   1.401   4.178  0.1073  0.3299  0.3942
12772TIP3   OH259806   4.073   5.777  14.811  0.3289 -0.3239 -0.3777
12772TIP3    H159807   4.131   5.703  14.793  0.0605 -0.7350  0.4236
12772TIP3    H259808   3.985   5.741  14.799  0.2186  0.1595 -1.0670
12773TIP3   OH259809   4.884   5.367  11.074 -0.7278  0.0963  0.1086
12773TIP3    H159810   4.812   5.304  11.070  0.4722 -1.2666 -0.8695
12773TIP3    H259811   4.841   5.452  11.070 -2.3923 -0.6327  1.4677
12774TIP3   OH259812   0.794   0.213  11.963  0.6162 -0.5083 -0.2375
12774TIP3    H159813   0.871   0.156  11.966  0.1150 -1.1813  0.0984
12774TIP3    H259814   0.761   0.204  11.874  0.3615 -0.9877 -0.0970
12775TIP3   OH259815   4.315   1.706  14.359  0.8332 -0.4409 -0.3143
12775TIP3    H159816   4.343   1.796  14.372 -0.3564 -0.3180  1.6881
12775TIP3    H259817   4.280   1.704  14.270  1.4135  0.9107 -0.5874
12776TIP3   OH259818   2.748   0.879  12.253 -0.1769 -0.1124  0.5990
12776TIP3    H159819   2.673   0.822  12.237 -0.4485  0.3214  0.2796
12776TIP3    H259820   2.815   0.822  12.289  0.1626 -0.9910 -1.3113
12777TIP3   OH259821   5.466   0.320  15.051 -0.4235  0.5343 -0.6994
12777TIP3    H159822   5.474   0.402  15.002 -0.7026  0.7954 -0.3133
12777TIP3    H259823   5.376   0.290  15.033 -0.3987  0.4314 -0.6510
12778TIP3   OH259824   1.898   1.538   2.645 -0.4583 -0.1951 -0.3570
12778TIP3    H159825   1.965   1.491   2.693 -1.3937 -1.1767  0.0310
12778TIP3    H259826   1.941   1.567   2.565  0.1314 -1.8313 -0.6703
12779TIP3   OH259827   4.227   6.628  14.097  0.4707  0.6368 -0.0154
12779TIP3    H159828   4.151   6.622  14.039  0.4545  0.0869  0.0622
12779TIP3    H259829   4.294   6.576  14.053  0.0820 -0.8205  1.0579
12780TIP3   OH259830   5.206   0.326  11.900  0.0592 -0.1606  0.0155
12780TIP3    H159831   5.157   0.323  11.982  0.3642 -0.5047  0.1875
12780TIP3    H259832   5.240   0.237  11.889 -0.5245 -0.2895 -0.8208
12781TIP3   OH259833   6.315   5.650   1.861  0.2952  0.1327 -0.3190
12781TIP3    H159834   6.398   5.698   1.857  1.7625 -2.1659  0.4630
12781TIP3    H259835   6.286   5.645   1.770  1.8358 -0.3318 -0.8207
12782TIP3   OH259836   2.638   3.036  14.791 -0.2739  0.1753  0.2141
12782TIP3    H159837   2.556   3.081  14.768  0.8276  1.0484 -2.5155
12782TIP3    H259838   2.627   2.948  14.756  0.4234  0.7260 -1.5016
12783TIP3   OH259839   5.261   2.653  13.262 -0.0133 -0.3727 -0.3909
12783TIP3    H159840   5.353   2.658  13.236 -0.4136  0.5075 -1.7748
12783TIP3    H259841   5.213   2.674  13.182 -1.4038 -0.2679  0.4471
12784TIP3   OH259842   6.180   3.778  10.315  0.2252  0.2370 -0.0463
12784TIP3    H159843   6.121   3.847  10.345 -0.7501 -0.7182  0.3389
12784TIP3    H259844   6.219   3.743  10.395  2.3778  1.7015 -0.3702
12785TIP3   OH259845   5.639   1.926   2.628 -0.2066 -0.7234  0.3452
12785TIP3    H159846   5.628   2.018   2.605  1.1902 -0.4741  0.5736
12785TIP3    H259847   5.581   1.913   2.703 -1.4052 -0.3908 -0.4911
12786TIP3   OH259848   6.135   6.060   5.700 -0.1118 -0.4025 -0.1364
12786TIP3    H159849   6.074   6.076   5.773 -1.7310  0.0424 -1.5238
12786TIP3    H259850   6.210   6.116   5.721 -0.7920  0.1811  0.9011
12787TIP3   OH259851   2.415   0.346   0.945 -0.3964 -0.3750  0.0429
12787TIP3    H159852   2.426   0.335   0.851 -1.6036 -1.5630  0.0110
12787TIP3    H259853   2.322   0.327   0.961 -1.1265  3.2623  1.0256
12788TIP3   OH259854   4.421   0.079   2.785  0.0481  0.4642 -0.3061
12788TIP3    H159855   4.366   0.090   2.708 -1.1888  0.2891  0.5302
12788TIP3    H259856   4.505   0.049   2.750 -0.1511  1.4073 -1.6589
12789TIP3   OH259857   6.557   3.272   5.425  0.2221 -0.0613  0.2389
12789TIP3    H159858   6.640   3.316   5.403 -0.0761  0.1312 -0.5199
12789TIP3    H259859   6.532   3.311   5.509  0.4325  0.5507  0.0230
12790TIP3   OH259860   4.240   5.382   1.883 -0.3059 -0.1431  0.1436
12790TIP3    H159861   4.145   5.393   1.875 -0.5529 -2.0330  0.0295
12790TIP3    H259862   4.276   5.455   1.834 -1.7013  0.6012  0.1656
12791TIP3   OH259863   4.156   4.702  11.653 -0.1826 -0.7186 -0.1270
12791TIP3    H159864   4.164   4.664  11.565 -0.2235 -0.9376 -0.0359
12791TIP3    H259865   4.145   4.627  11.711  1.0717 -0.6559  0.2234
12792TIP3   OH259866   2.229   1.850  12.179 -0.4899 -0.5185  0.3847
12792TIP3    H159867   2.283   1.924  12.154  1.1213 -1.3183  1.3244
12792TIP3    H259868   2.258   1.779  12.121 -0.6749 -0.9016  0.7568
12793TIP3   OH259869   4.601   0.675   5.014  0.1832 -0.0718 -0.5328
12793TIP3    H159870   4.514   0.681   4.972 -0.1308 -1.7528 -0.2143
12793TIP3    H259871   4.583   0.639   5.100  1.1260  0.5233 -0.0778
12794TIP3   OH259872   5.486   3.197  16.358  0.2630 -0.0652 -0.0872
12794TIP3    H159873   5.460   3.285  16.386 -0.4125 -1.0560  2.7942
12794TIP3    H259874   5.525   3.158  16.437  1.6136 -1.9816 -1.6052
12795TIP3   OH259875   5.870   5.106  13.908  0.0118  0.4172 -0.1584
12795TIP3    H159876   5.886   5.035  13.845  0.7935  1.1571 -0.8014
12795TIP3    H259877   5.777   5.098  13.928 -0.0814 -0.3247 -0.8092
12796TIP3   OH259878   4.595   1.752   1.913  0.6731  0.5607 -0.2060
12796TIP3    H159879   4.519   1.742   1.971 -1.8052  0.9329 -3.1540
12796TIP3    H259880   4.625   1.842   1.928 -1.1718  1.3270 -0.8193
12797TIP3   OH259881   3.509   6.144  15.709  0.2496 -0.3617 -0.0388
12797TIP3    H159882   3.529   6.185  15.624  0.2756  1.9115  0.9977
12797TIP3    H259883   3.561   6.063  15.709  1.7432  0.5271 -1.4141
12798TIP3   OH259884   3.221   5.315  12.224  0.4865 -0.5624 -0.1673
12798TIP3    H159885   3.269   5.371  12.286 -2.8821  2.4002  0.1305
12798TIP3    H259886   3.243   5.350  12.138 -0.8949  0.7633 -0.0327
12799TIP3   OH259887   6.100   2.402  10.963 -1.0527  0.4524 -0.4117
12799TIP3    H159888   6.067   2.336  11.023 -0.5968  0.4047 -0.2119
12799TIP3    H259889   6.040   2.399  10.888  0.5763 -2.2276 -1.7535
12800TIP3   OH259890   1.759   6.458   2.299 -0.0415  0.3422  0.1925
12800TIP3    H159891   1.840   6.489   2.338  0.0085  0.3419  0.0900
12800TIP3    H259892   1.691   6.482   2.362  0.1855 -0.8737  0.9295
12801TIP3   OH259893   0.919   0.926  14.366 -0.3631  0.5399  0.0997
12801TIP3    H159894   0.912   0.992  14.435  0.8131  2.2896 -1.3598
12801TIP3    H259895   0.995   0.952  14.315 -1.4451 -0.3971 -2.1513
12802TIP3   OH259896   6.359   6.238   1.888  0.4595 -0.1540 -0.0631
12802TIP3    H159897   6.307   6.304   1.842  0.7792 -0.1334 -0.4022
12802TIP3    H259898   6.295   6.180   1.928  0.1694  0.5037  0.4480
12803TIP3   OH259899   3.870   5.591   4.174 -0.4388  0.0032  0.0309
12803TIP3    H159900   3.874   5.587   4.269 -0.2247 -0.5535  0.0021
12803TIP3    H259901   3.791   5.541   4.151  0.3634 -1.2419 -0.1548
12804TIP3   OH259902   3.856   0.367   3.179  0.5348 -0.1852  0.1949
12804TIP3    H159903   3.952   0.362   3.172  0.5460  1.0440 -0.9239
12804TIP3    H259904   3.838   0.461   3.185 -0.7084 -0.2590 -1.7586
12805TIP3   OH259905   5.338   3.157  13.637  0.1137  0.3909 -0.0966
12805TIP3    H159906   5.301   3.107  13.564  0.8258 -0.0285 -0.1739
12805TIP3    H259907   5.286   3.238  13.638 -0.8618 -0.2153 -0.1436
12806TIP3   OH259908   0.461   6.422   5.727 -0.3078 -0.0054 -0.3843
12806TIP3    H159909   0.412   6.500   5.700  0.1297  0.6770  0.7057
12806TIP3    H259910   0.468   6.430   5.822  0.0658 -1.1988 -0.2945
12807TIP3   OH259911   5.401   0.031   5.411 -0.4707  0.8137  0.1103
12807TIP3    H159912   5.441   0.092   5.349 -0.8100  0.9810  0.0535
12807TIP3    H259913   5.435  -0.055   5.385 -0.3365  0.9259 -0.0877
12808TIP3   OH259914   5.536   2.483  12.687 -0.1432  0.2403 -0.1139
12808TIP3    H159915   5.482   2.404  12.677 -0.9863  0.8559 -0.5601
12808TIP3    H259916   5.496   2.547  12.628  0.4618  1.0421  0.3251
12809TIP3   OH259917   4.997   2.080  16.974  1.1535  0.2342 -0.2331
12809TIP3    H159918   5.060   2.018  16.935  1.1814 -0.1726  0.4331
12809TIP3    H259919   4.930   2.092  16.908  0.6332 -1.2865 -0.0205
12810TIP3   OH259920   5.694   6.008   5.860  0.1029 -0.0825  0.6315
12810TIP3    H159921   5.700   5.933   5.920 -1.2492  1.2756  2.5885
12810TIP3    H259922   5.602   6.009   5.832  0.6770 -0.6053 -1.4327
12811TIP3   OH259923   0.305   3.200  12.652 -0.1802  0.2689  0.6941
12811TIP3    H159924   0.396   3.174  12.643 -0.2630 -0.8360  2.4953
12811TIP3    H259925   0.256   3.140  12.596  0.1274  0.2888  0.4077
12812TIP3   OH259926   3.324   0.369   2.480 -0.0449  0.4367 -0.0181
12812TIP3    H159927   3.260   0.419   2.531  0.1472  0.4167  0.2490
12812TIP3    H259928   3.299   0.383   2.389 -1.2877 -0.7131  0.1136
12813TIP3   OH259929   5.362   5.052  11.621  0.1807  0.3015  0.3683
12813TIP3    H159930   5.444   5.005  11.609  0.4719  0.7700  0.5044
12813TIP3    H259931   5.300   5.008  11.562 -0.1777 -1.7403  2.1372
12814TIP3   OH259932   5.808   2.960  15.260 -0.7430 -0.1237 -0.0904
12814TIP3    H159933   5.740   3.014  15.220 -0.9488 -0.3333 -0.0283
12814TIP3    H259934   5.788   2.961  15.354 -1.1014 -0.7822 -0.1489
12815TIP3   OH259935   0.031   4.801  15.101 -0.0152  0.4356  0.1332
12815TIP3    H159936   0.058   4.840  15.018 -0.9073  1.6483  0.3804
12815TIP3    H259937   0.061   4.863  15.168 -1.6758  0.8708  0.5217
12816TIP3   OH259938   3.959   5.965  13.034 -0.1377 -0.0129 -0.5543
12816TIP3    H159939   3.955   6.054  13.069  0.0434  0.1883 -1.0375
12816TIP3    H259940   3.998   5.913  13.105  1.2403  0.5976 -0.8342
12817TIP3   OH259941   5.156   1.171   5.361  0.7353 -0.2793 -0.2883
12817TIP3    H159942   5.089   1.205   5.421  2.6067  0.4755  1.4831
12817TIP3    H259943   5.106   1.135   5.288 -1.6781 -1.1376  1.6302
12818TIP3   OH259944   4.717   0.094  11.806  0.4384  0.1086  0.4577
12818TIP3    H159945   4.724   0.084  11.901  0.2138 -0.5242  0.4156
12818TIP3    H259946   4.747   0.010  11.770  0.2633  0.2411 -0.0135
12819TIP3   OH259947   2.908   4.892  14.906 -0.1373  0.1468 -0.1474
12819TIP3    H159948   2.982   4.907  14.964  1.3689  1.5489 -2.3071
12819TIP3    H259949   2.853   4.970  14.916 -0.3483 -0.0157  0.0009
12820TIP3   OH259950   0.868   4.384  14.824 -0.1570  0.2547  0.6409
12820TIP3    H159951   0.789   4.330  14.832 -0.8298  1.2164  0.7241
12820TIP3    H259952   0.834   4.472  14.805  0.9513  0.1724 -2.2675
12821TIP3   OH259953   5.433   0.566  14.171 -0.4175 -0.4019  0.0049
12821TIP3    H159954   5.447   0.501  14.103  1.0358  1.4410 -1.5893
12821TIP3    H259955   5.344   0.599  14.155 -1.7532 -2.8704  1.7404
12822TIP3   OH259956   2.246   2.303   4.960 -0.2523  0.4450 -0.6241
12822TIP3    H159957   2.271   2.231   5.018  0.0789  1.0917  0.0484
12822TIP3    H259958   2.150   2.298   4.955 -0.3138  0.5698  0.2366
12823TIP3   OH259959   3.127   5.873   6.303  0.3484 -0.2212 -0.3580
12823TIP3    H159960   3.038   5.854   6.272 -1.4784 -0.4113  4.2103
12823TIP3    H259961   3.165   5.787   6.322  0.0077 -0.0740  1.1184
12824TIP3   OH259962   3.117   4.100   2.299 -0.8349 -0.4026  0.0457
12824TIP3    H159963   3.024   4.101   2.276 -0.2994  1.1867 -2.3939
12824TIP3    H259964   3.127   4.173   2.360 -1.0911 -0.1781 -0.1796
12825TIP3   OH259965   0.849   6.379   0.608 -0.2380  0.2631  0.0588
12825TIP3    H159966   0.926   6.419   0.649 -1.1085  0.4795  1.5455
12825TIP3    H259967   0.779   6.444   0.619 -0.5773  0.2089 -1.5644
12826TIP3   OH259968   6.528   3.777  17.088 -0.3573  0.0362  0.4112
12826TIP3    H159969   6.617   3.743  17.101 -0.7920 -1.2830  0.1074
12826TIP3    H259970   6.541   3.865  17.054  0.8055  0.6375  2.3065
12827TIP3   OH259971   3.858   2.053  13.613  0.8032 -0.0012 -0.6411
12827TIP3    H159972   3.867   2.070  13.520  0.4900 -0.2264 -0.7163
12827TIP3    H259973   3.776   2.095  13.638  2.1252  2.3090  0.1039
12828TIP3   OH259974   2.047   2.006   4.486  0.0222  0.1108  0.5266
12828TIP3    H159975   2.079   1.988   4.574  0.0955  0.1930  0.5172
12828TIP3    H259976   2.070   1.928   4.435  0.9226  0.4973  0.3302
12829TIP3   OH259977   1.258   3.619  11.282  0.1308  0.7733  0.3035
12829TIP3    H159978   1.324   3.688  11.293 -0.2206  2.1361 -4.2429
12829TIP3    H259979   1.175   3.667  11.273 -0.3001 -0.2774 -1.7317
12830TIP3   OH259980   5.365   0.370  13.942 -0.0369  0.4789 -0.7085
12830TIP3    H159981   5.359   0.323  13.859  0.6407  0.7142 -0.8942
12830TIP3    H259982   5.432   0.323  13.992  0.4749  1.0906 -0.8031
12831TIP3   OH259983   6.162   1.513  15.538  0.1694 -0.7393 -0.0967
12831TIP3    H159984   6.234   1.576  15.527 -0.4992 -0.0078 -0.3362
12831TIP3    H259985   6.206   1.432  15.563  1.0656 -0.2364  0.0212
12832TIP3   OH259986   1.537   3.881   0.793  0.2762 -0.0198 -0.3353
12832TIP3    H159987   1.568   3.864   0.882  1.3240  1.1690 -0.4428
12832TIP3    H259988   1.454   3.928   0.806 -0.0657 -0.6970 -0.0114
12833TIP3   OH259989   3.682   1.853  12.800 -0.2251  0.1456  0.7597
12833TIP3    H159990   3.625   1.778  12.812 -2.9640  1.9976  0.3283
12833TIP3    H259991   3.677   1.873  12.706  0.9913  0.4836  0.7475
12834TIP3   OH259992   3.656   6.509  13.406 -0.0426  0.1657  0.2818
12834TIP3    H159993   3.684   6.574  13.470 -0.5245 -0.9846  1.7010
12834TIP3    H259994   3.561   6.505  13.414 -0.4166  1.6880 -2.2088
12835TIP3   OH259995   6.420   1.177  10.420  0.2547  0.6442  0.2908
12835TIP3    H159996   6.381   1.093  10.442  0.3167  0.7265  0.7319
12835TIP3    H259997   6.429   1.176  10.325  0.3399  0.1177  0.3029
12836TIP3   OH259998   2.480   2.578  11.998 -0.1145  0.3818  0.0001
12836TIP3    H159999   2.424   2.632  12.054  0.2214  0.8121 -0.0734
12836TIP3    H260000   2.545   2.639  11.964  1.4492 -0.3928  1.4280
12837TIP3   OH260001   4.042   0.479  13.750 -0.5847 -0.5715 -0.1477
12837TIP3    H160002   3.989   0.496  13.828 -0.6443 -1.2193 -0.0427
12837TIP3    H260003   4.019   0.550  13.690 -0.5500 -0.0788  0.4155
12838TIP3   OH260004   5.726   4.296   0.904  0.1349 -0.3478  0.1021
12838TIP3    H160005   5.812   4.290   0.944  0.3456 -3.5160 -0.4935
12838TIP3    H260006   5.665   4.270   0.973 -0.0459 -0.5417 -0.1241
12839TIP3   OH260007   0.707   6.677  11.401  0.3582  0.2455  0.0693
12839TIP3    H160008   0.688   6.611  11.334  2.3565  2.9744 -3.5796
12839TIP3    H260009   0.656   6.754  11.374  0.5168  1.2158  2.2859
12840TIP3   OH260010   6.725   1.854   2.457  0.5061 -0.0752  0.3370
12840TIP3    H160011   6.747   1.944   2.433 -0.3729 -0.4548 -2.2058
12840TIP3    H260012   6.803   1.804   2.434  0.3524 -0.2048  0.1045
12841TIP3   OH260013   0.283   1.092   0.863  0.4789  0.4724  0.6975
12841TIP3    H160014   0.292   1.128   0.951  2.8339 -1.5031  1.3841
12841TIP3    H260015   0.342   1.144   0.809  0.8219  0.2067  0.8130
12842TIP3   OH260016   0.556   4.613  15.645 -0.5245  0.5804  0.1769
12842TIP3    H160017   0.514   4.546  15.591  1.7999 -0.5244 -0.3656
12842TIP3    H260018   0.629   4.568  15.686  1.4293  2.8701 -0.5828
12843TIP3   OH260019   5.103   0.361  14.469  0.2344  0.3971  0.2884
12843TIP3    H160020   5.052   0.323  14.397 -1.2352 -0.6134  1.7876
12843TIP3    H260021   5.037   0.397  14.528  1.4784  2.5172  0.4787
12844TIP3   OH260022   5.309   4.966  16.495 -0.1053 -0.6832 -0.0073
12844TIP3    H160023   5.295   5.060  16.493 -1.4259 -0.8662 -0.2373
12844TIP3    H260024   5.398   4.954  16.462  0.1171  0.4806  0.1406
12845TIP3   OH260025   6.103   0.917  14.445  0.3137 -0.1758  0.0188
12845TIP3    H160026   6.173   0.927  14.381  0.1643  1.1353  0.0399
12845TIP3    H260027   6.056   1.001  14.444 -0.7608 -0.7381  0.5881
12846TIP3   OH260028   1.664   1.121   4.133 -0.4904 -0.6492  0.4859
12846TIP3    H160029   1.654   1.146   4.225 -0.3041 -1.0713  0.6221
12846TIP3    H260030   1.716   1.041   4.135 -0.7405 -0.8290  0.0323
12847TIP3   OH260031   0.234   0.470  11.667 -0.2729 -0.2550  0.3772
12847TIP3    H160032   0.287   0.478  11.747  0.2394 -1.8719  0.2347
12847TIP3    H260033   0.272   0.534  11.607 -0.0205  0.2711  1.0780
12848TIP3   OH260034   1.257   3.338  13.424  0.1615 -0.5323 -0.1287
12848TIP3    H160035   1.195   3.410  13.409  1.4444  0.5627 -0.4343
12848TIP3    H260036   1.296   3.322  13.338  2.1044  0.5582  0.5000
12849TIP3   OH260037   2.188   2.201  16.635 -0.0299  0.3165 -0.6617
12849TIP3    H160038   2.097   2.189  16.607 -0.0249 -0.0991 -0.5170
12849TIP3    H260039   2.230   2.118  16.611  0.3621  0.5960 -0.9343
12850TIP3   OH260040   2.630   3.669  12.586  0.3523  0.0682  0.5180
12850TIP3    H160041   2.582   3.606  12.640  1.1227 -1.0651 -0.1059
12850TIP3    H260042   2.563   3.733  12.561 -0.3640 -0.2752  1.4695
12851TIP3   OH260043   0.148   5.985  15.200 -0.3534  0.3070  0.7556
12851TIP3    H160044   0.210   5.953  15.135 -2.3323 -2.4564  0.0312
12851TIP3    H260045   0.174   5.943  15.282  0.7438  1.9544  1.3099
12852TIP3   OH260046   0.198   5.024  17.054 -0.7800 -0.0993  0.0212
12852TIP3    H160047   0.147   4.966  17.110 -0.1308  0.3874  1.1531
12852TIP3    H260048   0.278   4.975  17.036 -0.1937  0.4421  1.0489
12853TIP3   OH260049   2.243   5.947   0.124  0.8637 -0.2374  0.2659
12853TIP3    H160050   2.290   5.891   0.062 -0.8166 -0.5038 -0.8309
12853TIP3    H260051   2.266   6.036   0.098  0.3493 -0.3535 -0.5951
12854TIP3   OH260052   1.464   2.512  14.609 -0.3521 -0.2325 -0.6347
12854TIP3    H160053   1.536   2.574  14.596 -1.7899  1.3091 -1.6284
12854TIP3    H260054   1.491   2.434  14.560  0.8770  0.0944 -0.5278
12855TIP3   OH260055   5.107   1.707   2.242  0.0736  0.3823  0.4938
12855TIP3    H160056   5.108   1.644   2.170 -3.1289 -1.3557  1.7668
12855TIP3    H260057   5.164   1.669   2.308  1.0506  0.7524 -0.0990
12856TIP3   OH260058   6.188   0.171  13.640 -0.1417 -0.1737  0.0362
12856TIP3    H160059   6.264   0.113  13.634  0.1619  0.1898  0.3013
12856TIP3    H260060   6.175   0.203  13.551 -0.8131 -1.2703 -0.2774
12857TIP3   OH260061   0.476   6.047  11.657  0.2170 -0.3918  0.3804
12857TIP3    H160062   0.438   6.118  11.709  0.8074  1.3764 -1.4447
12857TIP3    H260063   0.570   6.057  11.667  0.3534  0.1176 -1.1088
12858TIP3   OH260064   3.454   4.542   1.702  0.4574 -0.3316 -0.0721
12858TIP3    H160065   3.511   4.468   1.721 -1.5402 -2.2576 -1.1278
12858TIP3    H260066   3.476   4.567   1.612  2.6026  1.8909  0.9369
12859TIP3   OH260067   1.629   4.441   5.892 -0.1456  0.0082  0.1570
12859TIP3    H160068   1.706   4.473   5.845  0.9178 -2.4439  0.0343
12859TIP3    H260069   1.558   4.500   5.868  2.1025  3.9179  2.1686
12860TIP3   OH260070   3.010   4.203   4.940 -0.0793 -0.2639  0.1721
12860TIP3    H160071   2.921   4.194   4.906 -0.2131  0.4827  0.3044
12860TIP3    H260072   3.005   4.276   5.001  0.8333  0.4525 -0.5735
12861TIP3   OH260073   6.324   6.591  13.147 -0.3320 -0.0790  0.2169
12861TIP3    H160074   6.293   6.523  13.207  0.6873  0.2186  1.1056
12861TIP3    H260075   6.416   6.603  13.170  0.1532 -0.1151 -1.5649
12862TIP3   OH260076   1.025   5.928  13.892 -0.3892 -0.1713  0.4022
12862TIP3    H160077   0.956   5.905  13.830  0.4116 -1.0424 -0.2033
12862TIP3    H260078   1.089   5.858  13.883  2.6647  2.6136 -2.2023
12863TIP3   OH260079   5.399   4.602   3.054  0.0339 -0.2048 -0.0336
12863TIP3    H160080   5.417   4.643   2.969  1.6874 -0.5853  0.0896
12863TIP3    H260081   5.308   4.624   3.073  0.4560  2.3485 -0.5595
12864TIP3   OH260082   4.798   5.957   3.088  0.0700 -0.1372  0.2013
12864TIP3    H160083   4.751   6.033   3.054 -0.9578 -1.2157 -0.8692
12864TIP3    H260084   4.729   5.898   3.119  0.5507 -2.1699 -2.2834
12865TIP3   OH260085   4.793   0.315   2.772  0.5159  0.4047 -0.0566
12865TIP3    H160086   4.873   0.328   2.721  1.5501 -1.1683  1.0726
12865TIP3    H260087   4.723   0.348   2.715  1.8339  0.7268 -1.5690
12866TIP3   OH260088   1.561   4.854  16.026  0.7744 -0.2076 -0.2765
12866TIP3    H160089   1.574   4.802  15.947  0.9944  1.2820 -1.2621
12866TIP3    H260090   1.481   4.819  16.065  0.7575 -1.0768 -1.0519
12867TIP3   OH260091   5.218   0.924   5.895  0.0895 -0.5741  0.5994
12867TIP3    H160092   5.277   0.907   5.969  1.5833 -0.1634 -0.4644
12867TIP3    H260093   5.131   0.928   5.935  1.0243  1.5034  2.6325
12868TIP3   OH260094   5.418   1.286  15.609  0.1246 -0.3706 -0.1970
12868TIP3    H160095   5.415   1.198  15.570 -0.2036 -0.9570  1.0810
12868TIP3    H260096   5.337   1.327  15.581 -0.5222 -1.1022  0.5348
12869TIP3   OH260097   1.478   1.314  14.732  0.4989 -0.1925  0.2102
12869TIP3    H160098   1.479   1.352  14.644 -1.3308  0.5001  0.4536
12869TIP3    H260099   1.563   1.339  14.769  0.5484  1.1055 -0.7106
12870TIP3   OH260100   3.898   2.230   4.471  0.6433 -0.1830  0.2581
12870TIP3    H160101   3.870   2.273   4.552  0.1005 -1.0310  0.5314
12870TIP3    H260102   3.991   2.254   4.463  0.6999 -0.0665  1.1216
12871TIP3   OH260103   1.372   0.850  12.994 -0.4214 -0.2397  0.1551
12871TIP3    H160104   1.358   0.809  12.908  1.1208  1.5099 -1.0090
12871TIP3    H260105   1.310   0.922  12.996 -0.7462 -0.5360  0.6966
12872TIP3   OH260106   5.527   2.283  10.462 -0.1343 -0.2462 -0.0948
12872TIP3    H160107   5.522   2.190  10.485  1.0420 -0.3017 -0.0065
12872TIP3    H260108   5.590   2.320  10.524 -0.2683  0.5272 -0.4084
12873TIP3   OH260109   4.531   0.240   3.614  1.2326 -0.7750 -0.0102
12873TIP3    H160110   4.518   0.290   3.533  0.0729  0.4345  0.8755
12873TIP3    H260111   4.482   0.289   3.680  2.1767 -1.7199  1.4401
12874TIP3   OH260112   1.229   1.076  13.053  0.1835  0.3843 -0.0753
12874TIP3    H160113   1.318   1.111  13.054  0.4016 -0.1140 -1.2511
12874TIP3    H260114   1.195   1.097  12.967 -0.5213 -0.2246  0.0398
12875TIP3   OH260115   3.146   1.460   1.235  0.5637  0.0679  0.2604
12875TIP3    H160116   3.104   1.377   1.213  0.6764 -0.0234  0.3876
12875TIP3    H260117   3.239   1.440   1.236  0.7009  0.5267 -1.1418
12876TIP3   OH260118   2.875   4.787   5.061  0.4994 -0.3993 -0.4196
12876TIP3    H160119   2.953   4.814   5.012  0.3735  0.2597 -0.2654
12876TIP3    H260120   2.853   4.863   5.115  1.7230 -1.6825  2.1023
12877TIP3   OH260121   0.206   5.875   4.547 -0.4711 -0.0673  0.4319
12877TIP3    H160122   0.301   5.867   4.544 -0.2709  1.3595 -3.7624
12877TIP3    H260123   0.174   5.820   4.476 -2.6347  0.8350  0.6092
12878TIP3   OH260124   4.560   0.940  13.629 -0.0173  0.0878  0.2472
12878TIP3    H160125   4.600   0.913  13.546  0.3567 -0.9822  0.7564
12878TIP3    H260126   4.495   0.873  13.647  0.3268 -0.0129  1.1278
12879TIP3   OH260127   0.590   5.875  15.668  0.8404  0.0265 -0.1017
12879TIP3    H160128   0.594   5.917  15.582 -0.7528  0.4061 -0.0292
12879TIP3    H260129   0.588   5.948  15.730 -0.3427 -0.1503  0.1042
12880TIP3   OH260130   3.607   2.174  13.632 -0.6122 -0.5086 -0.3669
12880TIP3    H160131   3.539   2.147  13.571  0.0145  2.0228 -2.3514
12880TIP3    H260132   3.636   2.259  13.599  0.8030  0.3076  2.6504
12881TIP3   OH260133   3.852   6.254   4.725 -0.3398  0.2498 -0.3726
12881TIP3    H160134   3.767   6.257   4.681 -0.1856  0.3077 -0.6702
12881TIP3    H260135   3.903   6.192   4.673  0.8434  2.5325 -2.1202
12882TIP3   OH260136   4.999   2.295   4.255  0.2035  0.7090 -0.1462
12882TIP3    H160137   5.019   2.264   4.166 -2.5732 -0.7587 -0.3829
12882TIP3    H260138   4.974   2.387   4.243  0.1170  0.6011 -0.8543
12883TIP3   OH260139   1.335   5.358  16.795  0.1589  0.2541  0.6038
12883TIP3    H160140   1.321   5.358  16.890 -0.4502  0.6560  0.5220
12883TIP3    H260141   1.364   5.269  16.775  1.9608  0.6299  1.3934
12884TIP3   OH260142   2.930   3.312  16.126 -0.9463  0.1220  0.0519
12884TIP3    H160143   2.893   3.359  16.051  0.9580  0.0971 -0.9858
12884TIP3    H260144   2.945   3.223  16.093  3.0651  0.9314 -0.8051
12885TIP3   OH260145   6.121   1.751  12.931 -0.1101 -0.2916  0.1713
12885TIP3    H160146   6.084   1.705  13.007 -0.2947 -1.4656 -0.5992
12885TIP3    H260147   6.204   1.785  12.962  0.0217 -1.1381  0.7931
12886TIP3   OH260148   3.568   4.131   1.809  1.2713 -0.4411 -0.6806
12886TIP3    H160149   3.602   4.120   1.898 -0.2918 -0.5483 -0.0656
12886TIP3    H260150   3.576   4.225   1.792  1.2344 -0.3617 -0.2722
12887TIP3   OH260151   1.594   4.543   1.290  0.0891  0.0853 -0.6357
12887TIP3    H160152   1.551   4.467   1.330 -0.1223  0.5484  0.0471
12887TIP3    H260153   1.687   4.525   1.296  0.0303 -0.2274 -0.6893
12888TIP3   OH260154   6.507   5.747  15.978  0.1012  0.5718 -0.1783
12888TIP3    H160155   6.595   5.716  15.955 -0.3549 -0.5573 -0.4543
12888TIP3    H260156   6.453   5.668  15.978 -0.7879  1.1602  0.6204
12889TIP3   OH260157   3.497   4.285  11.995  0.1335 -0.0916 -0.3020
12889TIP3    H160158   3.583   4.326  11.978  2.0846 -3.2285  1.1323
12889TIP3    H260159   3.507   4.195  11.965 -1.2258 -1.6931  3.5325
12890TIP3   OH260160   6.150   5.648  14.770 -0.2749 -0.0757  0.2406
12890TIP3    H160161   6.201   5.727  14.789 -1.5793  1.3214 -1.6492
12890TIP3    H260162   6.060   5.672  14.792 -0.7211 -0.9759 -0.5179
12891TIP3   OH260163   2.247   5.852   2.254  0.6882  0.1506 -0.1546
12891TIP3    H160164   2.238   5.934   2.205  2.9168  0.6738  0.2419
12891TIP3    H260165   2.189   5.791   2.207 -1.8036  2.1171  0.0912
12892TIP3   OH260166   0.946   3.900   2.923 -0.6315 -0.1842 -0.0096
12892TIP3    H160167   0.911   3.823   2.880  0.1658 -0.1363 -0.7590
12892TIP3    H260168   0.868   3.950   2.949 -1.1966  0.7210 -3.0499
12893TIP3   OH260169   4.561   2.521   3.412  0.2672 -0.5323  0.3775
12893TIP3    H160170   4.492   2.588   3.417  0.4768 -0.4229  3.1856
12893TIP3    H260171   4.514   2.441   3.388 -0.3126  0.1536 -0.8885
12894TIP3   OH260172   6.180   1.126  15.277  0.0501  0.2439  0.3848
12894TIP3    H160173   6.133   1.050  15.312  0.0756 -0.5437 -1.1844
12894TIP3    H260174   6.232   1.091  15.205  1.8364  1.3779  1.0311
12895TIP3   OH260175   3.487   1.532  10.604  0.2446  0.2346 -0.4048
12895TIP3    H160176   3.416   1.581  10.645 -0.7261 -1.4067 -0.0441
12895TIP3    H260177   3.465   1.532  10.511  0.8522  1.3942 -0.5723
12896TIP3   OH260178   2.479   5.128   4.194  0.5923 -0.7320  0.2049
12896TIP3    H160179   2.524   5.209   4.217  0.6017 -0.4218 -0.8513
12896TIP3    H260180   2.392   5.136   4.234  0.1464  0.3687 -0.9161
12897TIP3   OH260181   0.005   2.972  14.647  0.6148  0.2682  0.4779
12897TIP3    H160182   0.045   3.046  14.600  0.0430  0.4143  0.2092
12897TIP3    H260183   0.066   2.953  14.718  0.2156  1.7968  1.2977
12898TIP3   OH260184   0.436   5.658   2.517  0.2643 -0.4167  0.8352
12898TIP3    H160185   0.508   5.720   2.513  0.0960 -0.2679 -0.2716
12898TIP3    H260186   0.357   5.712   2.515  0.1165 -0.6145  1.1814
12899TIP3   OH260187   3.433   2.968  13.007 -0.1774  0.0761 -0.1641
12899TIP3    H160188   3.409   2.932  12.922  1.8493 -2.3252  0.1550
12899TIP3    H260189   3.351   2.971  13.056 -1.0597 -0.3553 -1.5667
12900TIP3   OH260190   1.782   0.262   5.324  0.0127 -0.1464 -0.1072
12900TIP3    H160191   1.755   0.291   5.236 -2.1859 -0.6606  0.3333
12900TIP3    H260192   1.820   0.175   5.310 -0.8535 -0.4750 -0.5180
12901TIP3   OH260193   3.042   6.815  16.018  0.1049 -0.0045  0.3497
12901TIP3    H160194   3.092   6.887  15.981  0.2259 -0.3212 -0.1076
12901TIP3    H260195   2.955   6.822  15.979  0.4331 -0.7493 -0.5427
12902TIP3   OH260196   4.698   2.644  16.230 -0.2680 -0.0157 -0.2104
12902TIP3    H160197   4.607   2.672  16.221 -0.6742 -1.3032 -0.3692
12902TIP3    H260198   4.698   2.554  16.197  0.2467 -1.4296  3.2329
12903TIP3   OH260199   1.982   4.775   0.195 -0.3829  0.1505 -0.0914
12903TIP3    H160200   1.916   4.727   0.244  1.3606 -0.9326  1.3209
12903TIP3    H260201   2.022   4.834   0.259 -1.3276  2.3461 -1.4069
12904TIP3   OH260202   0.140   3.852   4.817  0.1708  0.6069 -0.4711
12904TIP3    H160203   0.190   3.881   4.894 -2.8082  1.1842  1.3999
12904TIP3    H260204   0.106   3.933   4.779 -0.3212  0.1577 -0.9984
12905TIP3   OH260205   1.960   2.940   4.871 -0.2147 -0.6401 -0.3941
12905TIP3    H160206   1.883   2.994   4.885 -0.4015 -1.1020  0.4055
12905TIP3    H260207   2.000   2.975   4.791 -1.2499 -0.4115 -0.8210
12906TIP3   OH260208   6.650   5.164   1.286  0.1702 -0.3490  0.3150
12906TIP3    H160209   6.746   5.161   1.281  0.1468 -1.2549  0.1322
12906TIP3    H260210   6.623   5.072   1.278 -0.6897 -0.1584  0.9103
12907TIP3   OH260211   1.192   2.124  16.363  0.6367 -0.2845 -0.0016
12907TIP3    H160212   1.202   2.050  16.423  0.2276 -1.1471 -0.9667
12907TIP3    H260213   1.281   2.153  16.346  0.8169 -0.6637  0.2575
12908TIP3   OH260214   2.724   6.746  15.939 -0.0151  0.3302  0.3545
12908TIP3    H160215   2.708   6.787  15.853 -1.2536 -2.1819 -0.7171
12908TIP3    H260216   2.734   6.653  15.920  0.7765 -0.1758  2.8657
12909TIP3   OH260217   6.480   2.715   1.511 -0.5762  0.1468  0.0505
12909TIP3    H160218   6.508   2.724   1.602  0.2698  0.7197 -0.2576
12909TIP3    H260219   6.531   2.641   1.478 -0.2774  0.4634 -0.1925
12910TIP3   OH260220   4.815   3.779  11.485  0.0797 -0.0679  0.3217
12910TIP3    H160221   4.818   3.804  11.577 -1.3671 -0.1573  0.4172
12910TIP3    H260222   4.756   3.704  11.482  0.0156  0.0053 -0.7006
12911TIP3   OH260223   4.173   2.401   1.776  0.0805  0.2081 -0.6050
12911TIP3    H160224   4.211   2.314   1.780 -1.5273 -0.4801  2.3367
12911TIP3    H260225   4.193   2.440   1.861 -4.6983  0.1441  0.8254
12912TIP3   OH260226   1.574   4.588  12.227  0.6481  0.0926  0.0811
12912TIP3    H160227   1.595   4.537  12.305  1.7223 -1.0422 -0.9131
12912TIP3    H260228   1.647   4.649  12.219 -0.5978  1.8330  1.2277
12913TIP3   OH260229   5.263   2.378   4.308  0.0344  0.2221  0.0610
12913TIP3    H160230   5.189   2.318   4.317 -0.2439  0.7648  1.7809
12913TIP3    H260231   5.329   2.346   4.370 -0.0639  1.5581  0.9106
12914TIP3   OH260232   0.398   6.222  15.102 -0.2857 -0.1050  0.5800
12914TIP3    H160233   0.493   6.228  15.113 -0.0161 -0.4578 -1.2551
12914TIP3    H260234   0.386   6.208  15.008 -2.1292 -0.6481  0.8682
12915TIP3   OH260235   3.846   1.501   0.400 -0.8484 -0.2073  0.2580
12915TIP3    H160236   3.754   1.487   0.424 -1.4934  0.6958 -1.4973
12915TIP3    H260237   3.890   1.419   0.424 -1.5692  0.1646  3.3497
12916TIP3   OH260238   4.477   2.911   3.280  0.5309 -0.2357  0.4740
12916TIP3    H160239   4.564   2.894   3.315 -0.0666 -1.3895  1.4796
12916TIP3    H260240   4.444   2.825   3.254 -0.2563  0.2015 -0.0305
12917TIP3   OH260241   0.721   2.248  14.680 -0.2600  0.2762 -0.0322
12917TIP3    H160242   0.684   2.277  14.597 -1.4524 -0.2386  0.2970
12917TIP3    H260243   0.686   2.159  14.692 -2.3836  1.3206  2.3212
12918TIP3   OH260244   5.597   0.904  10.315 -0.0316  0.0819  0.2499
12918TIP3    H160245   5.593   0.995  10.345 -1.7898  0.6353 -1.4330
12918TIP3    H260246   5.688   0.890  10.291 -0.0150  1.9430 -0.9314
12919TIP3   OH260247   4.973   5.537   4.527  0.1609  0.1377 -0.2951
12919TIP3    H160248   5.012   5.478   4.591  0.0783 -1.1468 -1.3865
12919TIP3    H260249   4.882   5.547   4.555  0.2974  0.1378  0.1561
12920TIP3   OH260250   2.901   3.330   0.995 -0.1888 -0.5986 -0.0262
12920TIP3    H160251   2.932   3.356   1.081 -0.9267 -1.3090  0.4675
12920TIP3    H260252   2.980   3.298   0.950  0.2706  0.1441  0.2224
12921TIP3   OH260253   5.793   0.350  11.533 -0.0739  0.2753 -0.8802
12921TIP3    H160254   5.753   0.421  11.483 -1.0182  0.1690 -0.2898
12921TIP3    H260255   5.721   0.291  11.554  0.6347 -0.7005 -1.0698
12922TIP3   OH260256   5.040   3.875  15.120  0.0611  0.2833 -0.3923
12922TIP3    H160257   5.058   3.785  15.092  0.4861  0.3417 -0.3054
12922TIP3    H260258   4.949   3.890  15.092  0.2662  0.1246 -1.1826
12923TIP3   OH260259   1.795   0.348  17.051  0.3900 -0.3065  0.1318
12923TIP3    H160260   1.712   0.395  17.047  1.4780  1.7569  0.4818
12923TIP3    H260261   1.825   0.345  16.960 -0.6792 -2.3479 -0.2178
12924TIP3   OH260262   2.328   0.147  13.328 -0.9690 -0.4539 -0.0383
12924TIP3    H160263   2.263   0.077  13.338 -1.6052  0.1698  0.2309
12924TIP3    H260264   2.364   0.160  13.416 -0.0355 -1.1991 -0.2869
12925TIP3   OH260265   3.031   6.031   1.814  0.2846 -0.1811 -0.1980
12925TIP3    H160266   3.029   5.961   1.748 -0.3197 -0.4705  0.1320
12925TIP3    H260267   3.123   6.036   1.840  0.2912 -1.0269 -0.0374
12926TIP3   OH260268   3.701   4.590  16.862 -0.3827  0.4208 -0.7759
12926TIP3    H160269   3.617   4.634  16.878 -1.4383 -1.4073 -1.0661
12926TIP3    H260270   3.757   4.620  16.934 -1.0032  2.2623 -0.9950
12927TIP3   OH260271   1.717   4.261  14.067  0.3028 -0.1794  0.1358
12927TIP3    H160272   1.653   4.288  14.002  0.9510  0.9829 -0.0553
12927TIP3    H260273   1.735   4.170  14.048 -0.3272 -0.1502 -0.6212
12928TIP3   OH260274   6.788   1.691  11.611  0.4557 -0.0562  0.1768
12928TIP3    H160275   6.751   1.778  11.623 -2.1342 -0.7928 -1.7437
12928TIP3    H260276   6.726   1.632  11.654  0.1595 -1.2205 -1.7397
12929TIP3   OH260277   2.115   5.355   6.186  0.0166 -0.0598  0.1989
12929TIP3    H160278   2.070   5.341   6.103  0.0536 -1.6944  0.4316
12929TIP3    H260279   2.047   5.389   6.244 -0.5868 -1.1129  0.1333
12930TIP3   OH260280   3.929   4.553   6.510 -0.5475 -0.4265  0.0936
12930TIP3    H160281   4.010   4.585   6.472  0.3788 -1.5281  1.0894
12930TIP3    H260282   3.861   4.608   6.470  0.4320 -0.9181 -2.4461
12931TIP3   OH260283   4.306   3.919   6.824 -0.3333 -0.3365  0.3266
12931TIP3    H160284   4.384   3.944   6.775 -0.2858 -0.2603  0.4407
12931TIP3    H260285   4.330   3.931   6.916  0.3364 -2.6065  0.5127
12932TIP3   OH260286   6.175   2.591   5.683  0.0446 -0.1851  0.2131
12932TIP3    H160287   6.179   2.592   5.778  1.7086  0.8204  0.1664
12932TIP3    H260288   6.091   2.632   5.662 -0.3249 -0.4019  1.2281
12933TIP3   OH260289   6.187   6.825  16.043  0.3473  0.5545 -0.2243
12933TIP3    H160290   6.133   6.875  15.981 -1.0508  0.1808  0.6512
12933TIP3    H260291   6.276   6.856  16.026 -0.2370  1.9427 -1.0211
12934TIP3   OH260292   2.314   3.008  16.639 -0.7001  0.5428 -0.5071
12934TIP3    H160293   2.285   2.988  16.550  3.7332  0.7673 -2.2558
12934TIP3    H260294   2.348   3.098  16.634 -1.8973  1.2426  1.9729
12935TIP3   OH260295   3.341   5.392   2.872 -0.0031  0.1967  0.0342
12935TIP3    H160296   3.269   5.328   2.876 -1.6031  1.8833 -0.5307
12935TIP3    H260297   3.298   5.477   2.873  2.0953  1.3294  1.3431
12936TIP3   OH260298   6.113   6.726  13.432 -0.1343 -0.2141  0.0302
12936TIP3    H160299   6.037   6.783  13.424  0.7407  0.8594 -0.8417
12936TIP3    H260300   6.185   6.784  13.455  0.5282 -1.1523  0.3981
12937TIP3   OH260301   4.645   1.026   2.071 -0.3179 -0.2415  0.3940
12937TIP3    H160302   4.587   0.952   2.053 -0.1360 -0.1228 -0.7819
12937TIP3    H260303   4.649   1.031   2.166  1.3363 -3.0332  0.5656
12938TIP3   OH260304   3.515   2.801  16.702 -0.1977  0.2294 -0.5049
12938TIP3    H160305   3.453   2.728  16.703  0.4179 -0.3009  0.4135
12938TIP3    H260306   3.462   2.877  16.676 -0.4172 -0.8857 -3.6727
12939TIP3   OH260307   3.994   4.848  11.395 -0.1380  0.1792  0.2153
12939TIP3    H160308   4.045   4.769  11.415 -0.9647 -0.5461 -0.4766
12939TIP3    H260309   3.976   4.841  11.301 -1.7829  0.2486  0.5054
12940TIP3   OH260310   3.168   0.491  11.838  0.2386 -0.0341  0.0224
12940TIP3    H160311   3.249   0.505  11.788  0.1977  0.7047  0.1479
12940TIP3    H260312   3.099   0.493  11.771  0.4098 -1.9256 -0.2527
12941TIP3   OH260313   4.583   0.820   3.620  0.0369 -0.3852  0.2852
12941TIP3    H160314   4.602   0.847   3.530 -3.2506  1.2007 -0.0752
12941TIP3    H260315   4.581   0.902   3.669 -0.1895 -1.0395  1.3939
12942TIP3   OH260316   1.612   3.438  15.487 -0.0170  0.2755  0.2350
12942TIP3    H160317   1.641   3.397  15.568 -0.3406  0.6497  0.5431
12942TIP3    H260318   1.632   3.373  15.419 -1.7995 -1.0188  0.8627
12943TIP3   OH260319   5.728   2.804   3.231  0.0003 -0.3207 -0.4361
12943TIP3    H160320   5.732   2.730   3.292  0.8793 -0.4264 -0.5971
12943TIP3    H260321   5.759   2.768   3.148  0.2553  0.1822 -0.5618
12944TIP3   OH260322   1.920   5.443   6.387  0.2825  0.5547 -0.0813
12944TIP3    H160323   1.909   5.408   6.476  0.2265 -1.1402 -0.7184
12944TIP3    H260324   1.863   5.389   6.333  1.7368  0.2976 -1.4383
12945TIP3   OH260325   3.621   5.142  14.092  0.8668  0.0720  0.3639
12945TIP3    H160326   3.543   5.196  14.108  2.2596  2.2540  0.1409
12945TIP3    H260327   3.613   5.116  14.001  0.1265 -0.1866  0.4961
12946TIP3   OH260328   4.067   6.805   3.467 -0.1986  0.1749  0.1438
12946TIP3    H160329   4.155   6.791   3.432 -0.4516 -0.8482 -0.1312
12946TIP3    H260330   4.080   6.821   3.560  0.2352 -0.8300  0.2688
12947TIP3   OH260331   2.252   2.550  16.496  0.0487 -0.6238  0.0102
12947TIP3    H160332   2.329   2.498  16.471  1.9184  2.2015 -0.4829
12947TIP3    H260333   2.267   2.575  16.587  0.5241  1.2000 -0.5348
12948TIP3   OH260334   2.541   0.040   5.908 -0.2102  0.1312 -0.2362
12948TIP3    H160335   2.578   0.075   5.989 -0.4985  0.4173 -0.2259
12948TIP3    H260336   2.447   0.040   5.922 -0.2819  0.4943 -0.6883
12949TIP3   OH260337   5.762   0.219  12.233 -0.0834  0.6355  0.1069
12949TIP3    H160338   5.821   0.294  12.230 -0.1633  0.8051  1.7996
12949TIP3    H260339   5.688   0.249  12.287  0.2298 -0.8615  1.4542
12950TIP3   OH260340   5.948   1.446   2.435 -0.0492 -0.3887  0.1892
12950TIP3    H160341   6.007   1.376   2.405  0.2748 -0.3035  0.6274
12950TIP3    H260342   5.872   1.399   2.470  0.3297 -0.5338  0.8247
12951TIP3   OH260343   5.969   5.023   2.147  0.3716  0.1940 -0.3765
12951TIP3    H160344   5.956   4.937   2.187  3.0743  0.9148  2.4135
12951TIP3    H260345   6.019   5.005   2.068  0.1183 -0.8640 -0.3153
12952TIP3   OH260346   0.069   6.581  13.508 -0.3231 -0.4202 -0.0175
12952TIP3    H160347   0.045   6.584  13.601  1.6438  0.3190  0.5175
12952TIP3    H260348   0.048   6.491  13.481  2.3928 -1.9073  2.1732
12953TIP3   OH260349   4.247   1.023  13.534 -0.4477 -0.0454 -0.4869
12953TIP3    H160350   4.249   0.953  13.469 -1.4899 -0.8569  0.3089
12953TIP3    H260351   4.242   0.977  13.618  0.2703  0.9821  0.1360
12954TIP3   OH260352   1.430   4.852  15.456 -0.3259  0.7183  0.3270
12954TIP3    H160353   1.401   4.858  15.365  0.5760 -0.0114 -0.0315
12954TIP3    H260354   1.380   4.779  15.492 -1.1097  1.3761  0.5998
12955TIP3   OH260355   5.339   0.962  16.211  0.1098  0.1808 -0.0681
12955TIP3    H160356   5.302   1.047  16.234  2.0707  1.1326 -0.1915
12955TIP3    H260357   5.265   0.901  16.215 -0.9389  1.4990  2.0771
12956TIP3   OH260358   5.248   4.310  10.906 -0.0875 -0.0186 -0.1537
12956TIP3    H160359   5.223   4.401  10.921 -0.9468  0.1168 -2.0842
12956TIP3    H260360   5.172   4.259  10.933  0.5101 -0.2175  1.2213
12957TIP3   OH260361   1.255   3.705   6.252 -0.4902 -0.0553 -0.7503
12957TIP3    H160362   1.349   3.699   6.269 -0.3234  2.0854 -0.6392
12957TIP3    H260363   1.221   3.761   6.322 -1.6560  0.0818 -1.3998
12958TIP3   OH260364   1.469   3.184   0.112  0.3973  0.3313 -0.0367
12958TIP3    H160365   1.559   3.162   0.134  0.1561 -1.0246 -0.3566
12958TIP3    H260366   1.419   3.164   0.191  0.0825 -0.9702 -0.5360
12959TIP3   OH260367   0.291   0.141   4.902 -0.0192  0.6869  0.5268
12959TIP3    H160368   0.343   0.065   4.877 -1.4191  0.0284 -0.5022
12959TIP3    H260369   0.317   0.209   4.841  0.7206  0.8245  0.9898
12960TIP3   OH260370   0.154   0.110  16.607 -0.1198 -0.0792  0.3679
12960TIP3    H160371   0.174   0.154  16.690 -0.4993 -0.9381  0.9262
12960TIP3    H260372   0.199   0.163  16.541  0.6650  0.2989  1.1788
12961TIP3   OH260373   6.389   5.401   3.906 -0.6904 -0.0112 -0.5837
12961TIP3    H160374   6.351   5.483   3.874  0.1573  0.4828 -0.3437
12961TIP3    H260375   6.458   5.428   3.966  0.7745 -0.8495 -1.8112
12962TIP3   OH260376   3.513   3.085   5.747 -0.0297 -0.3050 -0.3293
12962TIP3    H160377   3.557   3.059   5.828  1.0143  0.6175 -0.5715
12962TIP3    H260378   3.441   3.141   5.776  1.4271  1.5342 -0.0624
12963TIP3   OH260379   2.827   3.774   3.650 -0.3412  0.4197 -0.2888
12963TIP3    H160380   2.862   3.701   3.599 -0.2024 -0.1233  0.5603
12963TIP3    H260381   2.775   3.824   3.587  0.6532  0.3547 -1.2007
12964TIP3   OH260382   6.287   0.493  13.570 -0.1497  1.2685  0.2498
12964TIP3    H160383   6.205   0.460  13.605 -0.3007  0.1710 -1.0503
12964TIP3    H260384   6.271   0.586  13.555  0.6464  2.4234  5.0285
12965TIP3   OH260385   5.173   3.780  11.958  0.2159  0.0797  0.1004
12965TIP3    H160386   5.219   3.710  12.004  1.6619  0.6246 -0.4581
12965TIP3    H260387   5.225   3.796  11.879  0.0697  1.9301  0.3317
12966TIP3   OH260388   1.397   3.222  11.689  0.1452 -0.2670 -0.4485
12966TIP3    H160389   1.393   3.314  11.660  0.6456 -0.3961 -0.9375
12966TIP3    H260390   1.432   3.175  11.614  2.2785 -0.4985  0.6210
12967TIP3   OH260391   1.405   0.807   4.046 -0.0563 -0.1383 -0.1002
12967TIP3    H160392   1.314   0.835   4.042 -0.0975 -0.0934  0.8399
12967TIP3    H260393   1.443   0.834   3.963  0.0133  3.0639  0.8514
12968TIP3   OH260394   5.291   3.325  12.442  0.2251 -0.2746  0.5080
12968TIP3    H160395   5.246   3.349  12.524 -0.4688 -0.0715  0.0803
12968TIP3    H260396   5.232   3.355  12.373  1.6803  1.3314 -0.1157
12969TIP3   OH260397   2.789   2.170  11.381  0.0836 -0.0898 -0.6089
12969TIP3    H160398   2.703   2.207  11.404 -0.0131  0.0523 -1.1810
12969TIP3    H260399   2.837   2.167  11.463 -0.2871  0.3250 -0.3769
12970TIP3   OH260400   3.282   5.796  12.444  0.5833  0.1915 -0.4906
12970TIP3    H160401   3.343   5.796  12.518 -0.5175  0.6385  0.4608
12970TIP3    H260402   3.335   5.824  12.369  1.9675 -1.3055 -0.1130
12971TIP3   OH260403   5.136   6.091  12.892 -0.0573  0.5123 -0.4490
12971TIP3    H160404   5.084   6.156  12.939 -0.6871  0.4427 -1.0343
12971TIP3    H260405   5.076   6.055  12.826  0.6537  0.2397 -0.9644
12972TIP3   OH260406   4.146   0.619   5.602 -0.3907 -0.0194 -0.0391
12972TIP3    H160407   4.086   0.659   5.540 -1.2872 -0.9276  0.2182
12972TIP3    H260408   4.090   0.571   5.663  0.5712 -0.6294  0.3963
12973TIP3   OH260409   5.659   3.427  12.064 -0.0034  0.0723  0.2762
12973TIP3    H160410   5.660   3.379  12.147 -0.0293  2.2863  1.6496
12973TIP3    H260411   5.747   3.464  12.057  0.0983 -0.3651 -0.8802
12974TIP3   OH260412   4.732   0.096   5.303  0.2988 -0.4228 -0.1226
12974TIP3    H160413   4.823   0.098   5.333  0.4675 -0.3767 -0.6405
12974TIP3    H260414   4.719   0.006   5.275 -0.0651 -0.6404  0.7083
12975TIP3   OH260415   2.417   5.252  11.241  0.2461 -0.4585 -0.7283
12975TIP3    H160416   2.417   5.342  11.209 -0.3855  0.8709  2.6090
12975TIP3    H260417   2.504   5.218  11.218  1.4276  1.8616 -0.0395
12976TIP3   OH260418   1.991   6.225  17.113 -0.2951  0.6401  0.2901
12976TIP3    H160419   2.023   6.279  17.040 -0.9385 -0.2081 -0.6499
12976TIP3    H260420   2.023   6.137  17.093  0.7622  0.6355  1.8070
12977TIP3   OH260421   1.809   3.314   5.666  0.0699 -0.5084  0.7225
12977TIP3    H160422   1.716   3.299   5.648  0.0966 -0.5937  0.6594
12977TIP3    H260423   1.855   3.274   5.592  0.1810 -0.9314  1.0221
12978TIP3   OH260424   5.870   2.945   0.712 -0.3608  0.5228  0.6349
12978TIP3    H160425   5.839   2.965   0.800 -3.0436 -1.4374  0.2634
12978TIP3    H260426   5.878   2.850   0.710 -2.5776  0.2374 -1.7634
12979TIP3   OH260427   0.944   0.488   3.362  0.4043 -0.5073 -0.1357
12979TIP3    H160428   1.023   0.522   3.320 -0.5628  0.4380 -1.2397
12979TIP3    H260429   0.875   0.499   3.296 -0.3228 -2.9968  0.0969
12980TIP3   OH260430   6.265   5.852  14.321  0.1181 -0.4580  0.5921
12980TIP3    H160431   6.285   5.826  14.231 -1.5024  1.6610 -0.4749
12980TIP3    H260432   6.179   5.815  14.338  0.4332 -0.8771  1.3100
12981TIP3   OH260433   4.801   6.360  11.436  0.6704 -0.6201 -0.4831
12981TIP3    H160434   4.827   6.280  11.481  2.7737 -0.5548 -1.4539
12981TIP3    H260435   4.861   6.427  11.471 -1.9803  0.9389  1.4128
12982TIP3   OH260436   2.550   2.860   2.394 -0.1933 -0.3268 -0.0828
12982TIP3    H160437   2.545   2.765   2.396  0.8497 -0.3999 -0.5342
12982TIP3    H260438   2.626   2.880   2.339  0.3458  0.7344  0.9887
12983TIP3   OH260439   3.165   5.349   2.576 -0.1242  0.3620  0.0182
12983TIP3    H160440   3.238   5.410   2.586  1.1228 -0.9332 -0.7654
12983TIP3    H260441   3.112   5.388   2.507 -0.9310  1.9789  1.4870
12984TIP3   OH260442   4.138   0.978  15.002  0.2518 -0.0595 -0.0378
12984TIP3    H160443   4.180   0.944  14.923 -0.2310  0.6583 -0.6232
12984TIP3    H260444   4.050   0.941  15.001 -0.2316  1.0320 -0.6091
12985TIP3   OH260445   3.011   5.948  15.444  0.3052  0.2574  0.5041
12985TIP3    H160446   3.008   6.028  15.393  0.7436  0.7038  1.1599
12985TIP3    H260447   2.922   5.937  15.478 -0.7466 -1.4642 -2.4244
12986TIP3   OH260448   6.786   1.218   0.329 -0.0559 -0.1790 -0.4298
12986TIP3    H160449   6.696   1.212   0.297 -0.5497  0.1550  0.8173
12986TIP3    H260450   6.840   1.221   0.250 -1.0525 -1.4526 -1.2095
12987TIP3   OH260451   3.498   1.783   2.121 -0.5146  0.2544 -0.0114
12987TIP3    H160452   3.492   1.854   2.057  0.3324  0.2376 -0.1276
12987TIP3    H260453   3.560   1.721   2.083 -1.6264 -0.8123 -0.1354
12988TIP3   OH260454   6.505   5.062   2.390  0.1986 -0.3327  0.0674
12988TIP3    H160455   6.441   5.102   2.332 -1.5114 -0.5502  1.7286
12988TIP3    H260456   6.510   5.121   2.465  1.0787 -0.9235  0.4902
12989TIP3   OH260457   2.637   3.074  16.176 -0.0001  0.0888  0.4941
12989TIP3    H160458   2.562   3.123  16.210 -0.3041 -0.4506  0.6091
12989TIP3    H260459   2.637   2.993  16.226 -0.2332 -0.5620 -0.5359
12990TIP3   OH260460   5.681   6.632  14.004 -0.0133  0.5859  0.0591
12990TIP3    H160461   5.759   6.669  13.963 -1.3416  1.4295 -1.8274
12990TIP3    H260462   5.696   6.537  14.003  0.8824  0.7218 -0.4666
12991TIP3   OH260463   3.457   2.319  11.217 -0.5604 -0.3718 -0.3728
12991TIP3    H160464   3.477   2.225  11.215 -0.1708 -0.2977 -0.1538
12991TIP3    H260465   3.522   2.355  11.278  0.0242  0.2120 -1.3137
12992TIP3   OH260466   6.633   0.491   4.167  0.0300 -0.3824 -0.3199
12992TIP3    H160467   6.667   0.525   4.250 -0.4305 -1.0354  0.1493
12992TIP3    H260468   6.710   0.456   4.122  0.0464 -1.6535  0.6411
12993TIP3   OH260469   2.695   3.205  11.197  0.1087  0.0774 -0.0000
12993TIP3    H160470   2.732   3.228  11.112  0.2684  0.8176  0.2591
12993TIP3    H260471   2.676   3.290  11.239 -2.6290 -0.2213 -0.4215
12994TIP3   OH260472   6.136   5.142   3.295  0.7627 -0.3670  0.0739
12994TIP3    H160473   6.175   5.092   3.223  2.5011  0.4578  0.3934
12994TIP3    H260474   6.082   5.078   3.342 -1.2665 -0.6989 -2.4848
12995TIP3   OH260475   3.652   4.895   1.174  0.6096 -0.4825  0.1941
12995TIP3    H160476   3.700   4.835   1.230 -1.0100 -1.9176  0.1139
12995TIP3    H260477   3.619   4.841   1.103 -1.5854  0.2988  0.5406
12996TIP3   OH260478   5.995   3.916   0.277  0.0776  0.3603 -0.4226
12996TIP3    H160479   5.976   3.823   0.291 -0.4470  0.0500 -2.8105
12996TIP3    H260480   6.090   3.921   0.274  0.1359  0.0596  0.4827
12997TIP3   OH260481   1.589   5.748   3.180 -0.9855  0.1090  0.6511
12997TIP3    H160482   1.659   5.705   3.229 -2.2285 -1.0589  1.4600
12997TIP3    H260483   1.621   5.748   3.089 -0.7238 -2.1595  0.6839
12998TIP3   OH260484   4.940   5.523   0.665 -0.6774  0.2227 -0.1072
12998TIP3    H160485   4.857   5.475   0.653 -0.0255 -0.7707 -0.7641
12998TIP3    H260486   4.924   5.579   0.741 -2.1862  0.5755 -0.6466
12999TIP3   OH260487   1.509   5.852   2.833 -0.3063  0.1604  0.1199
12999TIP3    H160488   1.433   5.909   2.844 -1.1321 -0.9897  0.4951
12999TIP3    H260489   1.485   5.794   2.761  0.6380  0.4273 -0.4382
13000TIP3   OH260490   6.732   6.442  11.374  0.2625 -0.3942  0.3197
13000TIP3    H160491   6.777   6.523  11.399  0.6497 -0.4125 -0.3079
13000TIP3    H260492   6.778   6.411  11.296 -2.0364  0.6488 -1.6074
13001TIP3   OH260493   5.674   1.059   1.131  0.3603 -0.1465 -0.1121
13001TIP3    H160494   5.741   0.997   1.104  0.1816 -0.1757 -0.4994
13001TIP3    H260495   5.696   1.140   1.084 -0.4181 -0.4295 -1.0002
13002TIP3   OH260496   3.479   3.241   0.887  0.2317  0.1611 -0.3546
13002TIP3    H160497   3.473   3.320   0.940  0.3267 -1.8927  2.9612
13002TIP3    H260498   3.572   3.236   0.863  0.5901  0.1709  0.9453
13003TIP3   OH260499   5.078   3.202  12.140 -0.3110  0.6490  0.7269
13003TIP3    H160500   5.113   3.285  12.108  2.0376  0.1771  1.8803
13003TIP3    H260501   5.010   3.227  12.202 -0.1542  1.6947  0.5025
13004TIP3   OH260502   3.536   0.173   1.180 -0.0377 -0.1413  0.2607
13004TIP3    H160503   3.602   0.129   1.127  0.5150  2.2885 -1.2435
13004TIP3    H260504   3.454   0.158   1.134  0.0764  0.0009  0.0092
13005TIP3   OH260505   5.167   3.385   3.653 -0.3640  0.2320  0.2818
13005TIP3    H160506   5.233   3.446   3.621  0.3710  0.2183  1.6675
13005TIP3    H260507   5.099   3.440   3.690 -0.2964  0.2317  0.4083
13006TIP3   OH260508   6.496   4.591   3.874 -0.2727 -0.2627 -0.3062
13006TIP3    H160509   6.471   4.567   3.785  0.1761  2.5906 -1.3097
13006TIP3    H260510   6.434   4.545   3.930 -0.4251 -2.3194 -2.0265
13007TIP3   OH260511   3.307   6.364   0.038 -0.0381 -0.0270  0.3044
13007TIP3    H160512   3.223   6.334   0.072  0.4768 -0.1787  1.5038
13007TIP3    H260513   3.310   6.330  -0.052 -0.4722 -1.6383  0.8532
13008TIP3   OH260514   2.061   3.744  14.702  0.1526  0.1449  0.3042
13008TIP3    H160515   2.094   3.832  14.717 -1.1323  0.5943  0.6947
13008TIP3    H260516   2.024   3.717  14.786 -0.4333 -0.3181 -0.0869
13009TIP3   OH260517   3.363   1.564   3.261  0.1927  0.2064  0.3638
13009TIP3    H160518   3.299   1.619   3.216 -0.1757 -0.5140  0.0016
13009TIP3    H260519   3.445   1.579   3.212 -0.1568 -0.4136 -0.4391
13010TIP3   OH260520   3.664   5.208  17.172  0.3338 -0.3859  0.1739
13010TIP3    H160521   3.652   5.270  17.244 -1.8710 -0.6157  0.0694
13010TIP3    H260522   3.686   5.264  17.097 -0.4063  0.1768  0.3586
13011TIP3   OH260523   0.129   6.129   1.749 -0.0373 -0.5155 -0.0304
13011TIP3    H160524   0.171   6.076   1.817  0.7808 -1.3365 -1.1280
13011TIP3    H260525   0.045   6.154   1.786  0.3390 -1.0441  1.2301
13012TIP3   OH260526   3.232   3.490  15.761 -0.1604 -0.3022  0.0651
13012TIP3    H160527   3.294   3.490  15.688 -1.1530  0.3688 -0.8071
13012TIP3    H260528   3.171   3.560  15.740 -0.5531 -0.1917  1.4874
13013TIP3   OH260529   4.861   3.870   3.639 -0.3969 -0.6694 -0.3950
13013TIP3    H160530   4.911   3.886   3.560 -1.1031  2.6811 -0.3288
13013TIP3    H260531   4.784   3.821   3.610  0.6541 -1.8792 -1.2435
13014TIP3   OH260532   1.850   2.049  15.749  0.7191 -0.3344 -0.9663
13014TIP3    H160533   1.914   2.022  15.816  0.0087 -1.4604 -0.7126
13014TIP3    H260534   1.824   2.137  15.775 -1.8348 -1.8134  2.1089
13015TIP3   OH260535   3.402   4.048  13.345 -0.1010  0.4992 -0.5159
13015TIP3    H160536   3.478   4.106  13.336 -0.8385  1.3425 -1.6951
13015TIP3    H260537   3.356   4.082  13.422 -0.0746  0.9618 -0.6971
13016TIP3   OH260538   5.309   2.127  14.907 -0.2143 -0.1099 -0.2163
13016TIP3    H160539   5.385   2.171  14.869 -0.8043 -0.2955 -1.7204
13016TIP3    H260540   5.345   2.064  14.968  0.7701  0.6711  0.0384
13017TIP3   OH260541   4.035   2.292  14.066  0.6597  0.3364 -0.2176
13017TIP3    H160542   4.092   2.216  14.077 -0.5940 -0.6397 -0.1520
13017TIP3    H260543   3.979   2.291  14.145 -0.4590  0.3309 -0.9819
13018TIP3   OH260544   2.809   5.738   5.513  0.0050  0.0508 -0.4704
13018TIP3    H160545   2.807   5.733   5.418 -0.4959 -1.9455 -0.3998
13018TIP3    H260546   2.885   5.793   5.533 -0.3840  1.2184 -1.9985
13019TIP3   OH260547   6.247   5.554  12.472 -0.7649  0.1631  0.5063
13019TIP3    H160548   6.265   5.467  12.508  0.9319 -0.5785 -1.8711
13019TIP3    H260549   6.332   5.596  12.469 -0.5202 -0.2327 -3.3523
13020TIP3   OH260550   5.128   2.198  14.490  0.0390  0.3084  0.1390
13020TIP3    H160551   5.037   2.189  14.518 -0.1895  0.4803 -0.5138
13020TIP3    H260552   5.140   2.126  14.428  0.7377 -0.4847  1.1765
13021TIP3   OH260553   2.334   5.833  15.788 -0.0273  0.4472  0.0123
13021TIP3    H160554   2.271   5.772  15.827 -0.9801  0.8982 -0.7978
13021TIP3    H260555   2.334   5.810  15.695  1.1283  0.3565  0.0204
13022TIP3   OH260556   1.033   0.053   0.607  0.3640 -0.8899 -0.6028
13022TIP3    H160557   1.046   0.148   0.609 -0.8424 -0.6860 -1.1316
13022TIP3    H260558   0.989   0.033   0.689  0.4963 -0.9619 -0.5508
13023TIP3   OH260559   6.685   0.993  17.127  0.2525 -0.5846 -0.2327
13023TIP3    H160560   6.694   0.920  17.188  0.9586 -1.7253 -1.6433
13023TIP3    H260561   6.599   0.980  17.086  0.6574 -1.0124 -0.9566
13024TIP3   OH260562   0.440   4.487  15.259  0.0685  0.0136 -0.3593
13024TIP3    H160563   0.438   4.418  15.192  0.5251  1.2353 -1.6716
13024TIP3    H260564   0.347   4.503  15.278 -0.1410  0.5198 -1.6604
13025TIP3   OH260565   2.905   4.529  16.712  0.1002 -0.3072 -0.0883
13025TIP3    H160566   2.816   4.497  16.726  0.0977  0.7348  2.8843
13025TIP3    H260567   2.893   4.614  16.669 -0.3342 -0.1679  0.3050
13026TIP3   OH260568   3.185   4.601   6.465  0.3082  0.4120  0.3268
13026TIP3    H160569   3.165   4.681   6.514  1.6878  0.0673  1.5140
13026TIP3    H260570   3.280   4.596   6.465  0.2801 -0.6349 -0.7490
13027TIP3   OH260571   4.198   5.762  12.952  0.4867  0.0065  0.7009
13027TIP3    H160572   4.119   5.812  12.973 -0.0585 -1.4219  2.1586
13027TIP3    H260573   4.219   5.789  12.862 -0.7150  1.6087  0.8514
13028TIP3   OH260574   4.069   6.734  10.858  0.0385 -0.3648  0.5280
13028TIP3    H160575   4.139   6.726  10.794 -1.9305 -2.4582 -1.5599
13028TIP3    H260576   4.027   6.648  10.858 -2.5103  0.7765  1.6655
13029TIP3   OH260577   2.940   1.774   1.980 -0.0584  0.4053  0.1068
13029TIP3    H160578   2.942   1.792   2.074  0.6477  2.3070 -0.2270
13029TIP3    H260579   3.020   1.724   1.964  0.1255  0.5935  0.4270
13030TIP3   OH260580   0.083   2.165  11.235  0.5209 -0.3149  0.0810
13030TIP3    H160581   0.107   2.073  11.230 -0.7478 -0.7539  1.2126
13030TIP3    H260582   0.105   2.191  11.325  1.2579  0.6185 -0.3494
13031TIP3   OH260583   6.185   6.743   1.479 -0.0668 -0.2976 -0.4450
13031TIP3    H160584   6.140   6.813   1.527 -0.0943 -0.8045  0.2848
13031TIP3    H260585   6.227   6.788   1.405  0.1589  0.5366  0.1742
13032TIP3   OH260586   0.079   2.442  13.354  0.6899 -0.5392 -0.7066
13032TIP3    H160587   0.021   2.489  13.414 -0.7511 -1.2354 -1.5063
13032TIP3    H260588   0.158   2.496  13.350 -1.0619  2.1535 -1.9567
13033TIP3   OH260589   5.392   6.740   3.942  0.2741  0.4078 -0.0475
13033TIP3    H160590   5.396   6.763   3.849  1.5867  2.0440  0.3747
13033TIP3    H260591   5.299   6.745   3.964  0.1888  2.3827 -0.7299
13034TIP3   OH260592   4.608   0.366  14.527  0.1295 -0.7882 -0.3531
13034TIP3    H160593   4.596   0.416  14.446  1.0445 -0.1380 -0.1052
13034TIP3    H260594   4.694   0.394  14.559 -0.8105  0.0105  1.5726
13035TIP3   OH260595   1.597   1.227   4.392 -0.4232 -0.2014  0.2932
13035TIP3    H160596   1.555   1.223   4.478 -1.4854  0.6279 -0.1630
13035TIP3    H260597   1.607   1.320   4.375  0.2023 -0.3683 -0.2876
13036TIP3   OH260598   3.873   6.205   0.421 -0.3421 -0.1698  0.2682
13036TIP3    H160599   3.910   6.117   0.416 -1.8706 -0.8261 -0.1550
13036TIP3    H260600   3.786   6.192   0.459 -0.7228  1.1134 -0.1204
13037TIP3   OH260601   1.456   3.659   4.637 -0.1895 -0.8470  0.3015
13037TIP3    H160602   1.402   3.638   4.561  0.2578 -4.7164  0.8799
13037TIP3    H260603   1.394   3.694   4.701 -0.7000  1.7087 -1.4265
13038TIP3   OH260604   5.733   3.745  13.526  0.5779  0.2980 -0.1327
13038TIP3    H160605   5.824   3.722  13.542  0.4372 -0.2871 -0.1446
13038TIP3    H260606   5.686   3.661  13.532 -0.6498  1.0058  4.5633
13039TIP3   OH260607   3.227   3.963   5.667 -0.7122 -0.3603  0.3308
13039TIP3    H160608   3.141   3.960   5.626 -1.2606 -0.6757  1.4539
13039TIP3    H260609   3.287   3.928   5.601 -1.7603 -2.1906  0.2873
13040TIP3   OH260610   2.930   3.258  14.602  0.0500  0.1119  0.1308
13040TIP3    H160611   2.864   3.292  14.662 -0.6050  0.4617 -0.7651
13040TIP3    H260612   2.983   3.199  14.655 -0.6527  0.2381  0.9906
13041TIP3   OH260613   1.566   2.226  16.007 -1.3523  0.0224 -0.5809
13041TIP3    H160614   1.607   2.312  16.011 -0.9949 -0.1385 -0.7341
13041TIP3    H260615   1.639   2.165  16.002 -1.6218 -0.2116 -2.0016
13042TIP3   OH260616   5.767   2.228  12.744  0.5037 -0.1496 -0.3369
13042TIP3    H160617   5.762   2.305  12.799  0.7368  1.0120 -1.8645
13042TIP3    H260618   5.676   2.198  12.736  0.4958 -0.4498  0.8080
13043TIP3   OH260619   5.401   2.041  12.186  0.4590 -0.0839 -0.1400
13043TIP3    H160620   5.420   2.081  12.271 -1.1178 -0.7458  0.5575
13043TIP3    H260621   5.418   2.111  12.123  0.0698  0.9519  0.8561
13044TIP3   OH260622   1.258   5.128  14.145  0.3295  0.1088  0.0010
13044TIP3    H160623   1.333   5.183  14.169 -1.7800  2.1390  2.4833
13044TIP3    H260624   1.244   5.072  14.222 -1.7038  0.9915  0.3206
13045TIP3   OH260625   0.789   2.559  11.494  0.6922  0.0797  0.5999
13045TIP3    H160626   0.800   2.532  11.403 -0.0409  4.3374 -0.9914
13045TIP3    H260627   0.878   2.564  11.529  1.0405 -0.7469 -0.1547
13046TIP3   OH260628   0.099   4.860   2.991 -0.0930  0.0611 -0.0992
13046TIP3    H160629   0.021   4.906   3.021 -0.3239 -0.5256  0.1903
13046TIP3    H260630   0.169   4.926   2.998 -0.7760  0.9937 -1.5798
13047TIP3   OH260631   3.966   1.344   2.964 -0.2032 -0.3785 -0.0620
13047TIP3    H160632   3.989   1.380   3.050 -0.5561  1.2512 -0.6115
13047TIP3    H260633   4.007   1.404   2.901  0.5366 -1.8653 -1.0602
13048TIP3   OH260634   0.474   0.990   3.778 -0.3996  0.5299  0.0135
13048TIP3    H160635   0.461   1.021   3.868  1.5605  2.9157 -0.4183
13048TIP3    H260636   0.395   1.019   3.732 -0.6417  0.8416  0.6083
13049TIP3   OH260637   0.798   5.700  15.531 -0.2277  0.4195 -0.0559
13049TIP3    H160638   0.755   5.772  15.576 -0.2699  0.5153 -0.2500
13049TIP3    H260639   0.730   5.632  15.524  0.3803 -0.5073  2.0453
13050TIP3   OH260640   4.155   6.496  13.118 -0.2154  0.5695  0.2698
13050TIP3    H160641   4.161   6.413  13.165 -1.1652 -0.1220 -0.7829
13050TIP3    H260642   4.247   6.520  13.102  0.0711 -0.4806  0.2421
13051TIP3   OH260643   4.606   6.669   3.849  0.0354 -0.5492 -0.5101
13051TIP3    H160644   4.520   6.696   3.882  0.4504  0.9988 -0.6612
13051TIP3    H260645   4.634   6.740   3.792  1.1058 -1.3775 -1.0557
13052TIP3   OH260646   3.363   5.585   0.701  0.3577 -0.3327  0.2086
13052TIP3    H160647   3.300   5.539   0.644 -0.8522  0.6976  0.6764
13052TIP3    H260648   3.447   5.570   0.659 -0.5494  0.8905 -2.2346
13053TIP3   OH260649   6.709   4.485  16.426 -0.3571  0.0768 -0.2399
13053TIP3    H160650   6.710   4.552  16.358 -1.4394 -1.8478 -2.3229
13053TIP3    H260651   6.658   4.523  16.497  0.1633  1.9026 -0.8017
13054TIP3   OH260652   6.346   6.696   1.749  0.0436 -0.1335  0.1103
13054TIP3    H160653   6.396   6.764   1.792  0.8460 -0.6315 -0.0069
13054TIP3    H260654   6.357   6.713   1.655  0.5690 -0.6470  0.0755
13055TIP3   OH260655   2.141   0.011  11.160  0.6470 -0.7571  0.3597
13055TIP3    H160656   2.109  -0.069  11.119  0.5722 -1.4199  1.6623
13055TIP3    H260657   2.095   0.015  11.244 -0.0021  1.1120 -0.0323
13056TIP3   OH260658   2.783   5.124   3.151 -0.1942  0.2677  0.0014
13056TIP3    H160659   2.809   5.199   3.097 -1.5171  0.2502 -0.7076
13056TIP3    H260660   2.798   5.153   3.241 -2.5697  2.1975 -0.1349
13057TIP3   OH260661   1.050   3.869  12.420  0.1517 -0.4772  0.3158
13057TIP3    H160662   1.027   3.839  12.508  0.9455  1.4880  1.2547
13057TIP3    H260663   1.137   3.833  12.404  0.8168  0.6654  1.1648
13058TIP3   OH260664   3.960   0.952   2.046 -0.1303 -0.3890  0.1272
13058TIP3    H160665   3.891   1.006   2.084  0.0221 -0.2550  0.2173
13058TIP3    H260666   3.919   0.867   2.033 -0.1013 -0.5291  0.8865
13059TIP3   OH260667   5.036   1.462  12.552 -0.1827  0.1833 -0.6141
13059TIP3    H160668   5.021   1.371  12.577 -2.5424  0.6260 -0.1722
13059TIP3    H260669   4.999   1.469  12.464  0.5354  0.5928 -0.8906
13060TIP3   OH260670   1.684   0.778   3.511  0.0469  0.0723 -0.1056
13060TIP3    H160671   1.653   0.689   3.527  1.2509  0.0934  3.1211
13060TIP3    H260672   1.759   0.768   3.452 -2.1574 -0.5421 -3.0278
13061TIP3   OH260673   1.810   6.747  13.171  0.0540 -0.5228  0.0655
13061TIP3    H160674   1.812   6.672  13.231 -1.8311 -0.4229  0.3050
13061TIP3    H260675   1.870   6.811  13.211 -0.1749 -0.9612  1.1644
13062TIP3   OH260676   0.528   3.320  10.853 -0.0503 -0.6114  0.2114
13062TIP3    H160677   0.602   3.269  10.821 -1.5577 -1.9593 -1.4046
13062TIP3    H260678   0.525   3.396  10.795  0.1509 -0.4824  0.3699
13063TIP3   OH260679   6.263   1.658  13.349  0.0735 -0.4618  0.7262
13063TIP3    H160680   6.340   1.619  13.307 -0.9167 -0.3660 -1.3109
13063TIP3    H260681   6.264   1.749  13.319 -1.2024 -0.6429  0.0606
13064TIP3   OH260682   2.268   5.330  16.691 -0.0598 -0.2320 -0.5978
13064TIP3    H160683   2.348   5.360  16.735  0.3602 -1.7347 -0.2768
13064TIP3    H260684   2.299   5.298  16.606 -0.3773 -0.4216 -0.6421
13065TIP3   OH260685   0.176   5.036   5.692 -0.1992  0.7097  0.2041
13065TIP3    H160686   0.192   4.976   5.618  1.4971  0.1141  1.0016
13065TIP3    H260687   0.226   5.114   5.670 -1.4627  1.4185 -0.2714
13066TIP3   OH260688   4.152   5.485  13.247 -0.1627 -0.3615  0.3505
13066TIP3    H160689   4.207   5.563  13.250 -1.4644  0.6074 -0.0087
13066TIP3    H260690   4.195   5.423  13.306  1.8591 -0.0500 -0.6897
13067TIP3   OH260691   1.491   3.515  16.028 -0.3432  0.5725  0.3281
13067TIP3    H160692   1.481   3.421  16.046  2.3035  0.0396 -0.5149
13067TIP3    H260693   1.539   3.549  16.103  2.0059  0.3862 -0.9749
13068TIP3   OH260694   6.131   2.127  15.699 -0.0202  0.3849 -0.3676
13068TIP3    H160695   6.137   2.082  15.783  1.9873 -0.4475 -0.8696
13068TIP3    H260696   6.039   2.121  15.675 -0.5360  0.1649  1.5032
13069TIP3   OH260697   3.262   0.244  13.628  0.3551 -0.1679  0.0348
13069TIP3    H160698   3.186   0.291  13.593  0.1032 -0.1656  0.5772
13069TIP3    H260699   3.266   0.163  13.576  0.7837  0.4303 -0.8941
13070TIP3   OH260700   1.283   4.582   3.481 -0.0536  0.2037  0.4091
13070TIP3    H160701   1.298   4.587   3.387 -1.1734 -4.4203 -0.2604
13070TIP3    H260702   1.192   4.609   3.492 -0.2143 -0.1309 -0.0403
13071TIP3   OH260703   5.632   0.485  17.151  0.1767  0.3726  0.3216
13071TIP3    H160704   5.555   0.429  17.141  0.8849 -0.5078 -0.4550
13071TIP3    H260705   5.702   0.424  17.177  0.4592  1.2601  1.7180
13072TIP3   OH260706   0.116   5.604  14.001  0.3054 -0.0235 -0.0983
13072TIP3    H160707   0.105   5.605  14.096  2.3642 -1.5166  0.2249
13072TIP3    H260708   0.202   5.643  13.986  0.5345 -0.9053 -1.2338
13073TIP3   OH260709   1.039   1.003   2.191 -0.3234 -0.3306 -0.1882
13073TIP3    H160710   1.126   1.020   2.226 -0.4149 -0.7657  0.2594
13073TIP3    H260711   1.000   1.089   2.179  0.1304 -0.1401 -0.2939
13074TIP3   OH260712   5.670   2.917  13.206  0.3842 -0.2750 -0.2997
13074TIP3    H160713   5.708   2.956  13.285 -2.1735  2.1475 -0.1313
13074TIP3    H260714   5.678   2.822  13.221  1.7762  0.1081  1.9059
13075TIP3   OH260715   4.809   1.646  16.710 -0.3134 -0.0219 -0.9472
13075TIP3    H160716   4.732   1.699  16.728  0.3791  0.1121  2.3425
13075TIP3    H260717   4.854   1.640  16.794  2.5761 -1.2237 -2.4311
13076TIP3   OH260718   6.496   4.896   1.237 -0.0092 -0.3608 -0.4036
13076TIP3    H160719   6.511   4.834   1.165 -2.0154  1.5801 -2.6630
13076TIP3    H260720   6.404   4.920   1.228  0.0350  0.9581  2.0656
13077TIP3   OH260721   0.162   6.699   3.900 -0.0178 -0.2403 -0.5050
13077TIP3    H160722   0.225   6.655   3.843 -1.5653 -0.9105 -1.7655
13077TIP3    H260723   0.112   6.757   3.842 -0.7205  0.0898  0.4033
13078TIP3   OH260724   3.813   0.852   2.634  0.1744 -0.3155  0.6268
13078TIP3    H160725   3.736   0.841   2.691  0.4626 -1.9946  0.7363
13078TIP3    H260726   3.777   0.866   2.547 -0.2616 -0.6215  0.7549
13079TIP3   OH260727   5.171   5.979  10.810  0.3033 -0.1455  0.3587
13079TIP3    H160728   5.197   6.003  10.721  1.0440  0.7672  0.8042
13079TIP3    H260729   5.230   5.907  10.833  1.9164  1.2935  1.0148
13080TIP3   OH260730   4.749   0.796  16.342  0.0922  0.1911  0.3101
13080TIP3    H160731   4.721   0.806  16.251 -2.5399  0.4523  1.0686
13080TIP3    H260732   4.830   0.847  16.347 -0.9802  2.2599 -1.3436
13081TIP3   OH260733   4.611   6.241  15.418  0.0231 -0.3499 -0.3437
13081TIP3    H160734   4.526   6.209  15.448 -0.3350  1.0092  0.1677
13081TIP3    H260735   4.614   6.217  15.325 -0.6084 -1.0091 -0.2106
13082TIP3   OH260736   3.016   1.080  14.861  0.0185 -0.2090 -0.4608
13082TIP3    H160737   2.944   1.025  14.893 -0.4293 -0.3804 -1.7342
13082TIP3    H260738   2.974   1.155  14.821  0.5399 -0.2817 -1.1743
13083TIP3   OH260739   0.995   5.947  13.426  0.4855 -0.4190 -0.1537
13083TIP3    H160740   0.937   5.875  13.405 -0.5964  0.2831  0.3595
13083TIP3    H260741   0.938   6.014  13.464  1.4947  0.6200 -0.4165
13084TIP3   OH260742   0.249   4.889   5.958  0.0631  0.3303 -0.8348
13084TIP3    H160743   0.160   4.898   5.922 -0.1702 -1.6160 -0.8468
13084TIP3    H260744   0.251   4.949   6.032 -1.1937  0.5972 -0.9890
13085TIP3   OH260745   1.602   1.486  16.490 -0.9011 -0.5343 -0.0258
13085TIP3    H160746   1.570   1.554  16.431  0.5276  0.5039  0.3267
13085TIP3    H260747   1.631   1.415  16.432 -0.9139 -0.1603 -0.4959
13086TIP3   OH260748   2.805   0.670  15.057 -0.4395 -0.0713 -0.4171
13086TIP3    H160749   2.810   0.637  15.146 -0.1265 -0.5032 -0.5886
13086TIP3    H260750   2.723   0.634  15.022 -0.1027 -0.6927 -0.6018
13087TIP3   OH260751   1.888   0.026  11.933 -0.4894 -0.8943 -0.4763
13087TIP3    H160752   1.874  -0.066  11.956  0.3054 -0.8716  0.1456
13087TIP3    H260753   1.983   0.038  11.939 -0.5228 -0.1950 -1.1867
13088TIP3   OH260754   3.799   0.609   4.448 -0.0683 -0.1282  0.0205
13088TIP3    H160755   3.736   0.619   4.519 -1.3368 -1.3898 -0.8631
13088TIP3    H260756   3.748   0.574   4.374  1.5062 -0.4586 -0.9826
13089TIP3   OH260757   2.291   3.635   0.958  0.0280 -0.4735  0.3525
13089TIP3    H160758   2.221   3.575   0.987 -0.3597 -0.1185  0.1670
13089TIP3    H260759   2.244   3.713   0.928  0.4477 -0.6671 -0.8461
13090TIP3   OH260760   0.279   3.143   4.772 -0.1459 -0.1236  0.0957
13090TIP3    H160761   0.330   3.141   4.853 -0.2845  0.2193  0.1933
13090TIP3    H260762   0.280   3.235   4.746  0.7569 -0.3764 -0.8448
13091TIP3   OH260763   5.911   5.327  13.110 -0.0757 -0.7272 -0.1964
13091TIP3    H160764   5.854   5.275  13.053 -0.3982 -0.6672  0.0687
13091TIP3    H260765   5.915   5.278  13.192  0.3735 -0.8025 -0.2562
13092TIP3   OH260766   1.849   1.290  11.571  0.2569  0.1742  0.2396
13092TIP3    H160767   1.901   1.284  11.652  0.1918  0.8681  0.3463
13092TIP3    H260768   1.764   1.254  11.594  0.1423  0.6457  0.5805
13093TIP3   OH260769   5.620   4.706  12.727  0.2376 -0.1445  0.2550
13093TIP3    H160770   5.658   4.713  12.640  1.6047  0.1325  0.8437
13093TIP3    H260771   5.535   4.748  12.720  0.5713  0.3855 -0.8009
13094TIP3   OH260772   4.996   6.589   6.144  0.4449 -0.2476  0.3386
13094TIP3    H160773   4.970   6.644   6.070  1.0497  0.8978  0.9477
13094TIP3    H260774   5.091   6.582   6.136  0.4351 -0.7237  0.6060
13095TIP3   OH260775   3.669   4.537   0.186 -0.3407 -0.1060  0.1507
13095TIP3    H160776   3.761   4.549   0.163 -0.4915 -0.9906 -0.9615
13095TIP3    H260777   3.656   4.442   0.187 -1.6869  0.0203 -1.6097
13096TIP3   OH260778   5.353   3.093   5.587 -0.1174  0.5340 -0.2145
13096TIP3    H160779   5.297   3.133   5.653 -1.0927  1.7146 -1.6851
13096TIP3    H260780   5.365   3.003   5.617  0.3590  1.2918  2.0839
13097TIP3   OH260781   0.617   6.490   0.300  0.2284  0.6315 -0.7099
13097TIP3    H160782   0.544   6.511   0.358  1.3654  2.2652  0.2030
13097TIP3    H260783   0.605   6.548   0.225 -0.5222 -0.5738 -1.5625
13098TIP3   OH260784   3.945   1.455  14.455  0.0718  0.5765  0.1368
13098TIP3    H160785   3.991   1.535  14.429 -0.3714  1.0104  0.6742
13098TIP3    H260786   3.897   1.478  14.535  0.9864 -0.5940  1.0651
13099TIP3   OH260787   6.243   5.957  15.082  0.0674 -0.1529 -0.8420
13099TIP3    H160788   6.268   5.916  15.000 -0.4834 -3.3553  0.4562
13099TIP3    H260789   6.147   5.957  15.081  0.0496  0.5902 -0.5345
13100TIP3   OH260790   0.363   6.030  12.310  0.3467  0.2318  0.3143
13100TIP3    H160791   0.371   5.935  12.307  3.7248  0.4308 -2.1133
13100TIP3    H260792   0.295   6.050  12.245  0.5688 -0.4531 -0.1326
13101TIP3   OH260793   4.382   1.128   4.064  0.4798 -0.0110 -0.0858
13101TIP3    H160794   4.392   1.191   4.136 -1.9921  1.4800 -0.9292
13101TIP3    H260795   4.471   1.116   4.031  1.2533  1.7911  1.1513
13102TIP3   OH260796   0.280   3.213   3.951 -0.8331  0.3372  0.2477
13102TIP3    H160797   0.355   3.159   3.976 -0.8002  0.4213  0.3280
13102TIP3    H260798   0.295   3.297   3.994 -0.8708  0.4199  0.0986
13103TIP3   OH260799   2.671   4.737   2.077  0.3776  0.1145  0.0229
13103TIP3    H160800   2.686   4.730   1.983 -0.7640 -1.4623 -0.0832
13103TIP3    H260801   2.587   4.784   2.084  0.4285  0.1743  0.2561
13104TIP3   OH260802   1.179   0.860   3.915 -0.3620  0.3008 -0.1537
13104TIP3    H160803   1.135   0.942   3.896 -1.2469 -0.1927 -0.2957
13104TIP3    H260804   1.265   0.869   3.875 -1.0235  0.5413 -1.5889
13105TIP3   OH260805   0.866   0.513  15.775 -0.2806 -1.1026  0.3794
13105TIP3    H160806   0.807   0.583  15.804  1.5453 -0.1132  1.9792
13105TIP3    H260807   0.932   0.557  15.722 -0.5716 -2.0826 -0.8449
13106TIP3   OH260808   3.345   3.628   2.059 -0.5390 -0.8760  0.2909
13106TIP3    H160809   3.287   3.704   2.054 -0.3150 -0.6910  0.4646
13106TIP3    H260810   3.367   3.609   1.968 -0.0807 -0.3267  0.2812
13107TIP3   OH260811   0.973   3.741  14.729  0.6615  0.0486 -0.0209
13107TIP3    H160812   0.998   3.821  14.775  0.4188 -0.3536  0.8420
13107TIP3    H260813   0.977   3.764  14.636  0.7666  1.0081  0.2087
13108TIP3   OH260814   4.548   3.432  15.169 -0.2829  0.0665 -0.2332
13108TIP3    H160815   4.520   3.502  15.228  0.4685  1.1101 -1.0596
13108TIP3    H260816   4.473   3.373  15.164 -1.4000  1.4326 -0.4051
13109TIP3   OH260817   4.487   5.216  12.760  0.1606 -0.5078  0.3170
13109TIP3    H160818   4.523   5.302  12.781  3.6244 -1.9365  0.8208
13109TIP3    H260819   4.430   5.195  12.833  1.1586  0.3849  1.3859
13110TIP3   OH260820   5.177   0.398   5.098  0.4863  0.0306 -0.2131
13110TIP3    H160821   5.146   0.471   5.154  0.6010  0.7320 -1.0453
13110TIP3    H260822   5.185   0.324   5.158  0.8951  0.8459  0.7727
13111TIP3   OH260823   4.433   4.814  15.013 -0.2855 -0.7337 -0.1065
13111TIP3    H160824   4.349   4.788  14.976  0.3499 -1.7230 -0.9240
13111TIP3    H260825   4.494   4.808  14.939  0.5033  0.0003  0.4601
13112TIP3   OH260826   1.145   4.933  14.318  0.0751  0.4887 -0.4013
13112TIP3    H160827   1.151   4.892  14.405  0.3713  1.7357  0.1780
13112TIP3    H260828   1.051   4.945  14.305  0.0718  1.1544  0.1681
13113TIP3   OH260829   4.873   3.402   4.095  0.1800 -0.1475 -0.5213
13113TIP3    H160830   4.937   3.407   4.024  0.6524 -0.5290 -0.1303
13113TIP3    H260831   4.832   3.488   4.096  2.3692  1.0051  0.7509
13114TIP3   OH260832   4.557   4.882   3.608 -0.5042 -0.4404  1.0459
13114TIP3    H160833   4.514   4.961   3.576 -0.5925 -0.0622  2.0664
13114TIP3    H260834   4.488   4.815   3.606 -0.2411 -0.7022 -0.5139
13115TIP3   OH260835   3.469   6.707   3.399  0.2764 -0.0070  0.4765
13115TIP3    H160836   3.373   6.705   3.398  0.2586  0.6538 -0.3560
13115TIP3    H260837   3.494   6.635   3.456 -0.7206 -0.1671  0.7280
13116TIP3   OH260838   3.317   4.804  14.588 -0.3938  0.1157  0.0746
13116TIP3    H160839   3.229   4.795  14.625 -0.0824 -0.5578  0.6773
13116TIP3    H260840   3.352   4.715  14.588 -0.1350  0.1978 -1.2437
13117TIP3   OH260841   5.415   0.182  14.797  0.4730 -0.0297  0.0707
13117TIP3    H160842   5.370   0.141  14.722 -0.0094 -0.4948  0.6038
13117TIP3    H260843   5.393   0.275  14.790 -0.3700 -0.2138  0.1763
13118TIP3   OH260844   2.980   2.502   1.856  0.1950 -0.2151  0.0545
13118TIP3    H160845   2.947   2.492   1.767  0.9716  2.1331 -0.5382
13118TIP3    H260846   3.068   2.464   1.854 -0.0244 -0.7314  0.0052
13119TIP3   OH260847   2.674   5.717  14.486  0.1590 -0.6447 -0.4704
13119TIP3    H160848   2.612   5.779  14.449  0.2871  0.7239  1.4904
13119TIP3    H260849   2.744   5.771  14.522  0.4104 -1.9214  1.0632
13120TIP3   OH260850   1.734   2.782  15.948  0.4280  0.9667 -0.2458
13120TIP3    H160851   1.641   2.782  15.971  0.3235  1.1874 -0.6520
13120TIP3    H260852   1.776   2.837  16.014  0.4766 -0.1857  0.7210
13121TIP3   OH260853   6.581   5.900  16.985 -0.0597 -0.4124  0.3229
13121TIP3    H160854   6.605   5.808  16.976  0.5310 -0.2626  0.3411
13121TIP3    H260855   6.488   5.903  16.962  0.4079 -0.6796 -1.8069
13122TIP3   OH260856   1.594   0.946   4.446 -0.0943  0.1259 -0.2306
13122TIP3    H160857   1.584   0.902   4.362 -0.9319 -0.4078  0.1309
13122TIP3    H260858   1.607   1.038   4.424  1.3114 -0.2213 -0.9898
13123TIP3   OH260859   0.519   0.891   0.615 -0.3680 -0.1071  0.3150
13123TIP3    H160860   0.575   0.863   0.543  0.4404  0.7857  0.5734
13123TIP3    H260861   0.485   0.975   0.588 -1.5630 -0.6151  0.1898
13124TIP3   OH260862   4.121   0.375   3.195  0.6545  0.4231  0.7869
13124TIP3    H160863   4.195   0.430   3.171  0.9645 -0.4958 -0.4530
13124TIP3    H260864   4.161   0.300   3.240  0.3697  0.5249  1.2084
13125TIP3   OH260865   5.895   5.557  17.162 -0.6456 -0.7195 -0.5117
13125TIP3    H160866   5.984   5.539  17.130 -0.6763 -0.4061 -0.7832
13125TIP3    H260867   5.873   5.482  17.217 -0.0380 -0.5852 -0.0817
13126TIP3   OH260868   0.053   6.658  11.525  0.4592  0.2388  0.6528
13126TIP3    H160869   0.044   6.605  11.604  1.1107  0.0617  0.6081
13126TIP3    H260870   0.021   6.744  11.550 -0.7541 -0.1913  0.6913
13127TIP3   OH260871   4.327   5.230  16.202  0.2638 -0.4604 -0.1086
13127TIP3    H160872   4.237   5.217  16.231  0.9130  0.4990  2.6503
13127TIP3    H260873   4.349   5.151  16.154 -1.8506 -0.9455 -0.3709
13128TIP3   OH260874   5.776   6.496  16.246  0.2834 -0.3890  0.5607
13128TIP3    H160875   5.771   6.502  16.151 -0.3185 -3.0418  0.3431
13128TIP3    H260876   5.860   6.452  16.263  0.5571  0.4007  1.2766
13129TIP3   OH260877   6.212   1.681   3.489 -0.2962 -0.7739  0.1008
13129TIP3    H160878   6.226   1.602   3.435 -0.7072 -0.5067 -0.4059
13129TIP3    H260879   6.201   1.648   3.578  0.3023 -1.2320  0.0098
13130TIP3   OH260880   1.461   1.813   0.483  0.2370 -0.3734 -0.3682
13130TIP3    H160881   1.382   1.858   0.452 -0.0386  0.4333  1.3786
13130TIP3    H260882   1.522   1.884   0.503  0.8356 -0.9187 -0.2651
13131TIP3   OH260883   0.208   3.386  14.658  0.5096  0.3177 -0.2970
13131TIP3    H160884   0.303   3.399  14.664  0.4349  0.4290  0.8331
13131TIP3    H260885   0.177   3.393  14.748 -0.5007 -0.3122 -0.5808
13132TIP3   OH260886   0.143   1.076   4.307  0.1356  0.3339 -0.6009
13132TIP3    H160887   0.224   1.047   4.349  0.0384  0.2304 -0.4829
13132TIP3    H260888   0.164   1.083   4.214  0.8923  2.3892 -0.3174
13133TIP3   OH260889   0.583   6.066   1.747  0.5764 -0.4373 -0.7811
13133TIP3    H160890   0.618   6.083   1.659 -1.5536  2.6101 -1.2370
13133TIP3    H260891   0.527   5.990   1.736 -0.0516  0.1865 -2.2667
13134TIP3   OH260892   3.082   0.001  16.583  0.1191  0.3919  0.0108
13134TIP3    H160893   2.989   0.011  16.562  0.6561  3.4372 -1.4373
13134TIP3    H260894   3.118  -0.049  16.510 -0.1104  0.6482 -0.2812
13135TIP3   OH260895   2.555   5.339   2.301  0.4393 -0.1210 -0.4479
13135TIP3    H160896   2.558   5.318   2.207 -1.3273 -0.4338 -0.4733
13135TIP3    H260897   2.630   5.292   2.338  0.2814 -1.2598 -1.4895
13136TIP3   OH260898   5.886   3.421   1.705  0.1875 -0.4006  0.0038
13136TIP3    H160899   5.830   3.351   1.738 -0.3676  0.0210 -0.0276
13136TIP3    H260900   5.861   3.498   1.755 -0.8958  0.3297 -1.5842
13137TIP3   OH260901   6.787   0.909  15.868  0.6610  0.5344 -0.0060
13137TIP3    H160902   6.785   0.816  15.846  0.9513 -0.3702  3.2631
13137TIP3    H260903   6.868   0.941  15.828  0.7858 -0.7095 -0.8059
13138TIP3   OH260904   2.002   1.900  11.754 -0.2651 -0.0186  0.0114
13138TIP3    H160905   1.929   1.937  11.803 -0.6078 -0.0663 -0.4559
13138TIP3    H260906   2.054   1.976  11.728 -1.5082  0.2769 -1.8147
13139TIP3   OH260907   2.023   3.242  16.666 -0.2007 -0.1124 -0.2737
13139TIP3    H160908   2.083   3.294  16.718 -0.3483  0.4927 -0.7024
13139TIP3    H260909   2.018   3.158  16.712 -0.9763  0.6817  1.1450
13140TIP3   OH260910   0.618   3.795   3.023  0.6675  0.6799  0.1760
13140TIP3    H160911   0.596   3.702   3.029  2.7516  0.0931 -0.1949
13140TIP3    H260912   0.556   3.831   2.959  0.0245 -0.5215  0.0970
13141TIP3   OH260913   5.603   2.901  15.957 -0.2898 -0.1880  0.0504
13141TIP3    H160914   5.605   2.889  16.052  0.5388 -0.2110  0.0408
13141TIP3    H260915   5.510   2.901  15.935 -0.4726 -1.9627  0.6440
13142TIP3   OH260916   1.799   6.165  13.650  0.0773 -0.4203 -0.8172
13142TIP3    H160917   1.708   6.189  13.635  0.5346  1.3289 -1.0812
13142TIP3    H260918   1.795   6.080  13.693 -1.6245 -0.9069 -1.8326
13143TIP3   OH260919   3.896   3.762   0.889 -0.0191  0.3183  0.0181
13143TIP3    H160920   3.851   3.797   0.966 -1.2325 -1.0433 -0.0142
13143TIP3    H260921   3.850   3.802   0.815 -0.9754 -0.7680 -0.0086
13144TIP3   OH260922   4.859   0.110  15.453 -0.3138 -0.3715  0.0184
13144TIP3    H160923   4.774   0.146  15.427 -0.9265 -1.7597  0.0618
13144TIP3    H260924   4.897   0.179  15.508 -0.9459  0.7023 -0.8396
13145TIP3   OH260925   2.649   1.928   2.131 -0.7085 -0.0034  0.9170
13145TIP3    H160926   2.704   1.849   2.134 -1.0421 -0.3515 -0.7271
13145TIP3    H260927   2.642   1.948   2.037 -3.0202  0.2839  1.0923
13146TIP3   OH260928   2.627   4.492   1.266 -0.0147 -0.1340 -0.2865
13146TIP3    H160929   2.680   4.547   1.210 -0.9405 -0.2767 -1.3352
13146TIP3    H260930   2.689   4.428   1.303  0.5420 -0.3301 -1.5178
13147TIP3   OH260931   1.874   1.105   4.958 -0.2405  0.0544  0.0219
13147TIP3    H160932   1.852   1.126   5.049 -1.1076 -1.3297  0.1598
13147TIP3    H260933   1.868   1.189   4.912 -0.6397  0.6258  1.0645
13148TIP3   OH260934   1.010   0.049   3.709  0.2098  0.1837  0.7605
13148TIP3    H160935   0.966   0.043   3.794 -0.3757  1.3348  0.5469
13148TIP3    H260936   0.956  -0.005   3.650  0.7614 -0.8322  1.1516
13149TIP3   OH260937   6.197   6.468   3.281 -0.3008 -0.3241  0.2563
13149TIP3    H160938   6.136   6.441   3.213  0.8655  0.7714 -1.2918
13149TIP3    H260939   6.274   6.413   3.266  0.1587  0.2945  0.3507
13150TIP3   OH260940   1.972   0.143  13.208  0.3653 -0.5849  0.7035
13150TIP3    H160941   2.010   0.182  13.129 -0.9459 -0.8339 -0.0776
13150TIP3    H260942   2.046   0.103  13.254  1.5322  1.5917  0.8275
13151TIP3   OH260943   5.369   2.370   5.603  0.1458 -0.2642  0.3764
13151TIP3    H160944   5.327   2.288   5.627  0.0364  0.6000  3.6233
13151TIP3    H260945   5.304   2.416   5.549 -0.3509 -1.6689 -0.2713
13152TIP3   OH260946   0.318   0.569   0.624 -0.0646  0.2575 -0.3288
13152TIP3    H160947   0.347   0.659   0.634 -0.7312  0.5686 -1.0590
13152TIP3    H260948   0.358   0.540   0.542 -2.8238  1.1652 -2.1432
13153TIP3   OH260949   0.265   4.626  14.951  0.3109 -0.1247 -1.0135
13153TIP3    H160950   0.273   4.609  15.045  0.7017 -1.1622 -1.2208
13153TIP3    H260951   0.203   4.699  14.945  2.3219  1.8322  0.1812
13154TIP3   OH260952   6.082   0.346   5.268  0.0075  0.0920 -0.6156
13154TIP3    H160953   6.151   0.405   5.297  0.4306  0.7018 -2.6792
13154TIP3    H260954   6.020   0.402   5.221 -1.8976 -0.4532  1.0812
13155TIP3   OH260955   1.250   4.139  13.469  0.0402  0.0084 -0.5574
13155TIP3    H160956   1.238   4.180  13.555 -0.1756 -2.2561  0.5655
13155TIP3    H260957   1.165   4.151  13.426 -0.9700 -1.6443  0.8668
13156TIP3   OH260958   2.401   2.035   2.734  0.7565  0.0330 -0.3846
13156TIP3    H160959   2.439   2.084   2.661  0.7718  0.4995 -0.0641
13156TIP3    H260960   2.313   2.013   2.705  0.6427  0.5161 -0.3998
13157TIP3   OH260961   4.288   5.218  13.658 -0.0480 -0.2527 -0.1746
13157TIP3    H160962   4.273   5.188  13.748 -0.5295 -0.5021 -0.3313
13157TIP3    H260963   4.232   5.161  13.604 -2.0267  1.7514 -0.3672
13158TIP3   OH260964   4.155   2.264   2.186  0.0247  0.3154 -0.1887
13158TIP3    H160965   4.112   2.190   2.228 -0.3761 -0.9140 -2.5830
13158TIP3    H260966   4.092   2.335   2.192 -0.9072 -0.4597 -0.5913
13159TIP3   OH260967   5.128   2.466  12.672 -0.3281  0.1623 -0.4130
13159TIP3    H160968   5.088   2.552  12.683 -2.3979 -0.9117  1.2727
13159TIP3    H260969   5.069   2.419  12.614  0.3101 -0.4129 -0.6156
13160TIP3   OH260970   2.912   4.198   5.363 -0.4362 -0.1196 -0.0350
13160TIP3    H160971   2.826   4.158   5.372 -0.7655  0.9453  2.5504
13160TIP3    H260972   2.973   4.131   5.393 -0.9617  0.9400  3.9947
13161TIP3   OH260973   1.600   3.179  10.867  0.2971 -0.4405  0.2632
13161TIP3    H160974   1.538   3.117  10.905 -1.5397 -0.9174 -3.0460
13161TIP3    H260975   1.552   3.262  10.864 -0.4738 -0.8591 -2.5140
13162TIP3   OH260976   5.242   3.854   0.652  0.2480  0.3075  0.1026
13162TIP3    H160977   5.283   3.926   0.604 -0.3223  0.0174 -0.8427
13162TIP3    H260978   5.239   3.885   0.743 -1.1078  2.0079 -0.4620
13163TIP3   OH260979   0.886   0.624   0.270  0.1809  0.0480  0.4428
13163TIP3    H160980   0.823   0.556   0.246  1.0788 -1.2047  1.4755
13163TIP3    H260981   0.969   0.577   0.279  1.1236  1.5392 -0.1799
13164TIP3   OH260982   1.252   6.475  14.577  0.0968 -0.2256  0.7817
13164TIP3    H160983   1.226   6.534  14.647  0.2472  1.4060 -0.4798
13164TIP3    H260984   1.177   6.472  14.518  0.7360  0.1487 -0.0782
13165TIP3   OH260985   6.491   3.721  11.753 -0.2237 -0.0396 -0.0718
13165TIP3    H160986   6.504   3.792  11.691  1.4499 -0.0327  0.2284
13165TIP3    H260987   6.562   3.659  11.733 -0.5802 -0.7612  0.8321
13166TIP3   OH260988   4.703   5.757  12.883 -0.2953 -0.0193 -0.0873
13166TIP3    H160989   4.708   5.662  12.898 -0.5019  0.0218  0.2733
13166TIP3    H260990   4.659   5.766  12.799 -0.8251 -0.2405  0.1568
13167TIP3   OH260991   6.416   1.851   1.875 -0.1729 -0.2240 -0.5320
13167TIP3    H160992   6.463   1.920   1.922  0.2097  0.3832 -1.7672
13167TIP3    H260993   6.424   1.774   1.931  0.6433  0.3638  0.1875
13168TIP3   OH260994   1.277   4.127  16.624 -0.1812  0.1758 -0.1132
13168TIP3    H160995   1.313   4.066  16.687  0.3732 -1.0433 -1.5427
13168TIP3    H260996   1.182   4.119  16.634 -0.1060 -0.5174  0.0917
13169TIP3   OH260997   3.748   5.285   3.501 -0.0331 -0.0863  0.3249
13169TIP3    H160998   3.755   5.284   3.405  1.2129 -0.2518  0.4020
13169TIP3    H260999   3.788   5.368   3.527 -1.0936  0.3336  0.6731
13170TIP3   OH261000   1.666   4.860   4.737 -0.1259 -0.6797  1.1395
13170TIP3    H161001   1.734   4.858   4.669  0.8428  1.0890  1.9971
13170TIP3    H261002   1.586   4.834   4.691  0.7730 -1.0198 -0.3105
13171TIP3   OH261003   0.632   2.605  13.695 -0.1230  0.2256  0.4978
13171TIP3    H161004   0.616   2.523  13.648  1.2559  0.2130 -0.0123
13171TIP3    H261005   0.557   2.660  13.675 -0.6454 -0.6064  0.1246
13172TIP3   OH261006   6.063   2.217   5.828 -0.0083  0.2005  0.5022
13172TIP3    H161007   6.019   2.132   5.830  0.1185  0.1150 -0.0700
13172TIP3    H261008   6.123   2.215   5.902 -0.4408  0.0343  0.8569
13173TIP3   OH261009   1.413   3.932   2.814  0.4141 -0.3072 -0.3968
13173TIP3    H161010   1.384   3.905   2.901  1.6596 -0.0455  0.1145
13173TIP3    H261011   1.349   3.997   2.786 -0.0041 -0.4089  0.3138
13174TIP3   OH261012   5.412   6.227   3.260  0.8103 -0.3395  0.5604
13174TIP3    H161013   5.443   6.164   3.195 -0.3519 -0.7674  0.3932
13174TIP3    H261014   5.457   6.202   3.341 -0.7221 -2.3743  0.8721
13175TIP3   OH261015   3.896   0.456  13.995  0.4109 -0.2565 -0.4490
13175TIP3    H161016   3.812   0.412  13.980  1.5384 -2.5185 -0.6657
13175TIP3    H261017   3.927   0.422  14.079  2.0844 -1.2516 -1.4014
13176TIP3   OH261018   5.440   6.618  15.142  0.0864  0.1366  0.1020
13176TIP3    H161019   5.481   6.669  15.072  0.5268 -0.2084  0.1028
13176TIP3    H261020   5.427   6.531  15.103 -0.1757  0.0994  0.2712
13177TIP3   OH261021   3.337   0.813   6.318 -0.1053  0.0515  0.2770
13177TIP3    H161022   3.352   0.791   6.410  2.1619 -1.3680 -0.3552
13177TIP3    H261023   3.271   0.749   6.290  0.0231 -0.2496  0.6402
13178TIP3   OH261024   6.436   0.343  11.384 -0.7345  0.1607  0.1037
13178TIP3    H161025   6.340   0.352  11.387 -0.7984 -0.6112  0.6308
13178TIP3    H261026   6.468   0.408  11.446 -0.7759  2.0362 -1.7381
13179TIP3   OH261027   5.267   2.721  15.719  0.8057 -0.0962  0.1587
13179TIP3    H161028   5.341   2.662  15.733  0.4350 -0.8640 -0.9343
13179TIP3    H261029   5.199   2.689  15.779  0.4617 -1.0792 -0.7243
13180TIP3   OH261030   2.150   5.664  12.534  0.9104  0.1858  0.1552
13180TIP3    H161031   2.162   5.640  12.626  0.3589  2.3203  0.8503
13180TIP3    H261032   2.154   5.760  12.533 -1.9293  0.4103 -1.5817
13181TIP3   OH261033   3.223   4.072  12.493  0.5426 -0.0497  0.2400
13181TIP3    H161034   3.306   4.110  12.462  0.7638 -0.4295  0.3611
13181TIP3    H261035   3.185   4.141  12.547  0.6957  0.1924  0.0459
13182TIP3   OH261036   1.148   6.227  17.130 -0.0822  0.0896 -0.2349
13182TIP3    H161037   1.192   6.162  17.075 -1.9183 -0.0348 -1.6574
13182TIP3    H261038   1.055   6.207  17.121 -0.5316  1.0002  1.8040
13183TIP3   OH261039   3.986   4.671   3.047  0.8477 -0.2369 -0.2996
13183TIP3    H161040   3.980   4.644   3.139 -1.2084  0.7841 -0.0644
13183TIP3    H261041   4.003   4.765   3.052 -1.7088  0.3340 -0.8350
13184TIP3   OH261042   2.659   3.280   2.307  1.1556 -0.1317 -0.2516
13184TIP3    H161043   2.698   3.361   2.341 -1.0564  0.6701  0.5524
13184TIP3    H261044   2.651   3.295   2.213 -1.1001  1.5341  0.1175
13185TIP3   OH261045   6.161   5.336  14.280  0.1173  0.2896 -0.1591
13185TIP3    H161046   6.102   5.285  14.224 -0.4106 -0.6751  1.2365
13185TIP3    H261047   6.103   5.399  14.324  0.6023  1.3707 -1.0175
13186TIP3   OH261048   3.306   5.634  15.806  0.3421 -0.5127 -0.1274
13186TIP3    H161049   3.216   5.664  15.791  1.4932  2.1904 -2.9604
13186TIP3    H261050   3.347   5.707  15.853  1.3882 -1.0486 -0.1921
13187TIP3   OH261051   3.942   5.220  16.318 -0.1385 -0.1620 -0.6136
13187TIP3    H161052   3.992   5.299  16.336  2.2403 -1.7216  0.0988
13187TIP3    H261053   3.904   5.195  16.402  1.3400 -1.1767 -0.2166
13188TIP3   OH261054   3.677   6.708  16.022  1.0159  0.2625 -0.2334
13188TIP3    H161055   3.704   6.671  15.938 -0.9499  0.7591 -1.1557
13188TIP3    H261056   3.647   6.797  16.000  2.5067  1.2299  1.3813
13189TIP3   OH261057   0.513   3.877   2.036 -0.3473 -0.3259  0.3896
13189TIP3    H161058   0.541   3.968   2.051  0.1529 -0.6168  1.2646
13189TIP3    H261059   0.455   3.883   1.960  0.3005  0.6128 -0.0590
13190TIP3   OH261060   3.995   5.982   2.433 -0.0031  1.3093 -0.1117
13190TIP3    H161061   3.916   5.943   2.469  1.3173 -1.3069  0.1748
13190TIP3    H261062   4.066   5.926   2.464  1.7814  2.4146 -1.9418
13191TIP3   OH261063   0.031   4.452   4.470  0.1743 -0.3730  0.3132
13191TIP3    H161064   0.121   4.483   4.467 -0.4279  1.5060  0.5083
13191TIP3    H261065   0.038   4.358   4.490  2.0369  0.0183  1.7714
13192TIP3   OH261066   5.745   5.838  16.938 -0.2519 -0.1451 -0.2130
13192TIP3    H161067   5.819   5.852  16.878 -0.4427  1.4456 -0.1271
13192TIP3    H261068   5.668   5.844  16.882 -0.3745 -0.2084 -0.0505
13193TIP3   OH261069   5.500   2.259  13.769 -0.1752  0.7580 -0.4153
13193TIP3    H161070   5.406   2.242  13.774 -0.0397 -0.2086 -1.0232
13193TIP3    H261071   5.506   2.353  13.750 -1.0418  0.6522 -1.3084
13194TIP3   OH261072   0.462   0.444  12.575  0.1710 -0.6366 -0.1284
13194TIP3    H161073   0.488   0.362  12.616 -0.2215 -1.1470 -0.8726
13194TIP3    H261074   0.510   0.511  12.623 -0.0726 -1.2344  0.9728
13195TIP3   OH261075   2.420   5.379  13.942  0.0649  0.0987 -1.1010
13195TIP3    H161076   2.334   5.373  13.984  0.8663 -0.4917  0.5468
13195TIP3    H261077   2.476   5.418  14.010  0.8451  1.6415 -2.5638
13196TIP3   OH261078   3.540   6.570  17.037 -0.0693 -0.4651  0.4291
13196TIP3    H161079   3.484   6.524  16.974 -1.0232  0.1365  0.8052
13196TIP3    H261080   3.525   6.526  17.120 -0.5991  0.1865  0.6895
13197TIP3   OH261081   1.879   4.254   0.727 -0.1942  0.3138 -0.3293
13197TIP3    H161082   1.876   4.158   0.723  0.1984  0.1697  1.7384
13197TIP3    H261083   1.969   4.276   0.706 -0.0331  0.1388  0.1495
13198TIP3   OH261084   1.724   1.130   2.441 -0.1768  0.0998  0.1856
13198TIP3    H161085   1.732   1.121   2.346 -1.6805 -1.0880  0.1381
13198TIP3    H261086   1.715   1.225   2.455 -0.0805  0.2768 -0.8630
13199TIP3   OH261087   3.038   1.485  15.230 -0.7392 -0.3845 -0.3701
13199TIP3    H161088   3.082   1.570  15.221 -0.3840 -0.0239  3.1692
13199TIP3    H261089   2.959   1.493  15.177  0.6107  1.0883 -2.3136
13200TIP3   OH261090   2.564   3.636   3.701  0.3433 -0.0887  0.2202
13200TIP3    H161091   2.614   3.710   3.666 -0.3484  0.5258  0.4942
13200TIP3    H261092   2.475   3.648   3.667 -0.0628 -0.1205  1.2088
13201TIP3   OH261093   1.340   3.965   4.588  0.2071 -0.5209  0.1378
13201TIP3    H161094   1.408   4.019   4.548 -1.8050  0.3942 -2.3003
13201TIP3    H261095   1.335   3.888   4.533 -1.9139  0.2741 -0.8835
13202TIP3   OH261096   1.065   6.066   4.532  0.0803  0.1797  0.4424
13202TIP3    H161097   1.134   6.008   4.564  2.2569  1.8734 -0.9411
13202TIP3    H261098   1.066   6.140   4.593  0.2230  0.7052 -0.1923
13203TIP3   OH261099   2.307   0.649  10.940  0.2992 -0.2417  0.1290
13203TIP3    H161100   2.327   0.579  10.877 -1.0923  0.6678 -1.4078
13203TIP3    H261101   2.351   0.726  10.903 -1.6476  0.6088 -0.5152
13204TIP3   OH261102   1.693   0.285  16.498  0.3845  0.0839  0.2992
13204TIP3    H161103   1.733   0.206  16.535 -1.4186 -0.7493  0.5616
13204TIP3    H261104   1.603   0.259  16.478 -0.0338  1.8803 -0.2902
13205TIP3   OH261105   1.792   2.372   0.847 -0.3368 -0.3522 -0.4781
13205TIP3    H161106   1.739   2.389   0.924 -0.3418  0.1956 -0.5986
13205TIP3    H261107   1.806   2.458   0.808  1.3323 -0.3678  0.0116
13206TIP3   OH261108   1.343   0.932   3.242  0.8646  0.8463 -0.2031
13206TIP3    H161109   1.432   0.952   3.271 -0.0665  1.7811  2.3327
13206TIP3    H261110   1.292   1.009   3.266 -0.9071 -0.2725 -0.1559
13207TIP3   OH261111   2.288   6.698   5.819 -0.0551 -0.0774 -0.7613
13207TIP3    H161112   2.213   6.712   5.878  0.2608 -2.1261  0.2129
13207TIP3    H261113   2.323   6.613   5.844  1.1671 -0.2524 -2.8000
13208TIP3   OH261114   4.030   5.562  16.644  0.0831  0.1468 -0.0097
13208TIP3    H161115   4.010   5.561  16.550 -1.0898  1.1392  0.2062
13208TIP3    H261116   4.104   5.622  16.653 -0.5269  0.9310 -0.1797
13209TIP3   OH261117   2.966   1.005  12.508 -0.0659  0.2414  0.0150
13209TIP3    H161118   2.878   1.006  12.545 -0.0614 -0.2580  0.0436
13209TIP3    H261119   3.017   1.062  12.567 -0.6725  1.6950 -0.8115
13210TIP3   OH261120   0.130   0.647   3.852  0.5104 -0.1984 -0.6353
13210TIP3    H161121   0.066   0.585   3.816  1.1337 -1.4292  0.3076
13210TIP3    H261122   0.215   0.608   3.834  0.8949 -0.0384  0.7049
13211TIP3   OH261123   3.014   3.230   3.381  0.1310  0.1157 -0.4627
13211TIP3    H161124   3.093   3.176   3.378  1.1286  0.6390  5.1889
13211TIP3    H261125   3.045   3.317   3.407 -2.0892  1.4021 -1.7805
13212TIP3   OH261126   3.431   3.694  13.050 -0.3130 -0.0936 -0.0920
13212TIP3    H161127   3.361   3.635  13.022 -2.0487 -0.8331  4.8333
13212TIP3    H261128   3.388   3.779  13.058  0.0474  0.0401  0.4419
13213TIP3   OH261129   5.174   2.757  16.888 -0.4549 -0.3735 -0.0818
13213TIP3    H161130   5.159   2.756  16.794  1.8705  0.9883 -0.5563
13213TIP3    H261131   5.188   2.665  16.911  0.5038 -0.5894 -1.3945
13214TIP3   OH261132   3.153   3.678  13.094  0.4005 -0.1421  0.8251
13214TIP3    H161133   3.201   3.761  13.087 -1.2977  0.8670  0.6761
13214TIP3    H261134   3.146   3.647  13.004  1.4628 -0.7329  0.9274
13215TIP3   OH261135   6.542   5.969  12.626 -0.6553  0.1561  0.5458
13215TIP3    H161136   6.465   6.011  12.662 -0.0363 -0.1971  2.3872
13215TIP3    H261137   6.616   6.010  12.671  0.0790 -1.1911  0.6449
13216TIP3   OH261138   0.811   2.443  12.911 -0.4122  0.0847  0.4594
13216TIP3    H161139   0.784   2.513  12.970  0.7693  1.3526 -0.4574
13216TIP3    H261140   0.747   2.446  12.840 -0.2922  0.2983  0.3621
13217TIP3   OH261141   0.544   2.999  16.136  0.2018  0.6129  0.1586
13217TIP3    H161142   0.484   3.041  16.075 -2.0858  1.5983  2.8872
13217TIP3    H261143   0.626   3.048  16.127 -0.6837  1.9939 -0.7080
13218TIP3   OH261144   2.769   2.136  16.888  0.2000 -0.2435  0.3926
13218TIP3    H161145   2.721   2.077  16.829 -1.1118  0.4145  0.7527
13218TIP3    H261146   2.756   2.097  16.975  0.1952  0.0268  0.5125
13219TIP3   OH261147   3.978   0.219  12.291  0.0523  0.2724 -0.3757
13219TIP3    H161148   3.886   0.216  12.263  0.5264  1.7183 -2.2766
13219TIP3    H261149   4.022   0.154  12.236  0.5112  1.1083 -1.0154
13220TIP3   OH261150   6.661   3.683  12.195  0.1538 -0.3123  0.1553
13220TIP3    H161151   6.598   3.713  12.129  2.0147  2.4233 -0.5484
13220TIP3    H261152   6.677   3.760  12.249  1.8604 -1.3129  1.1594
13221TIP3   OH261153   1.851   2.001  14.033  0.2590  0.0528  0.1514
13221TIP3    H161154   1.781   1.949  13.992  1.6684 -1.4399 -0.5126
13221TIP3    H261155   1.894   2.045  13.960  1.5171 -0.9995  0.2262
13222TIP3   OH261156   2.177   4.066   4.544 -0.0889 -0.0013  0.3574
13222TIP3    H161157   2.158   4.086   4.452 -0.4622  0.6306  0.5642
13222TIP3    H261158   2.102   4.014   4.573 -1.1900  1.8250  0.9534
13223TIP3   OH261159   2.563   1.334   3.072  0.0248 -0.1660  0.4787
13223TIP3    H161160   2.539   1.360   3.161  0.4965 -0.9115  0.8455
13223TIP3    H261161   2.572   1.238   3.078 -1.6650 -0.4455 -0.8035
13224TIP3   OH261162   5.394   0.448   5.374  0.4461 -0.0959  0.4750
13224TIP3    H161163   5.402   0.521   5.312 -2.5489 -0.5490 -0.6397
13224TIP3    H261164   5.408   0.487   5.460 -0.9528  1.8168 -0.0992
13225TIP3   OH261165   5.210   5.411  12.310 -0.8722 -0.7186 -0.7104
13225TIP3    H161166   5.289   5.439  12.264 -0.6834  0.2847  0.1902
13225TIP3    H261167   5.152   5.379  12.240  0.4630 -1.8928 -1.3370
13226TIP3   OH261168   1.543   6.570  15.313 -0.0003  0.5070 -0.1183
13226TIP3    H161169   1.515   6.497  15.369 -0.5206  1.1362  0.4594
13226TIP3    H261170   1.638   6.568  15.316 -0.0186  0.0990  0.2150
13227TIP3   OH261171   1.377   1.627  12.955 -0.5368  0.3371  0.2410
13227TIP3    H161172   1.449   1.622  12.892  0.0590 -1.0006  0.9973
13227TIP3    H261173   1.298   1.615  12.902 -0.0872 -0.0527 -0.3493
13228TIP3   OH261174   5.608   5.815   2.232 -0.3977  0.2038 -0.0279
13228TIP3    H161175   5.596   5.832   2.326  0.4785 -0.9819  0.3369
13228TIP3    H261176   5.680   5.872   2.207 -0.2103  0.0677  0.1876
13229TIP3   OH261177   2.476   2.702   3.781  0.1042 -0.5502  0.4462
13229TIP3    H161178   2.396   2.656   3.807 -0.2898 -0.2416 -0.1907
13229TIP3    H261179   2.531   2.635   3.741  0.3811 -0.8644  1.3298
13230TIP3   OH261180   6.487   2.977  16.434  0.3512 -0.2506  0.1092
13230TIP3    H161181   6.544   3.052  16.417 -1.8237  1.1742 -1.3541
13230TIP3    H261182   6.498   2.921  16.357 -0.4247  0.1946 -0.3395
13231TIP3   OH261183   3.106   5.835   2.489 -0.1241 -0.1126 -0.3522
13231TIP3    H161184   3.053   5.825   2.568  0.1670  0.2778 -0.1053
13231TIP3    H261185   3.136   5.925   2.491  0.2471 -0.2227 -0.6842
13232TIP3   OH261186   1.048   2.557  11.642  0.0151  0.4376  0.2347
13232TIP3    H161187   1.091   2.498  11.580  0.6947  0.3126  0.8126
13232TIP3    H261188   1.106   2.559  11.718 -0.6096  0.8977  0.7140
13233TIP3   OH261189   1.975   0.824  12.769  0.2906  0.2163  0.1909
13233TIP3    H161190   2.050   0.878  12.792 -1.0245  1.9969  0.5409
13233TIP3    H261191   1.941   0.792  12.852 -0.7767  1.4848  0.2706
13234TIP3   OH261192   4.658   5.770  11.770 -0.3689 -0.1087 -0.5432
13234TIP3    H161193   4.631   5.683  11.740 -0.4426  0.2248 -1.4911
13234TIP3    H261194   4.736   5.790  11.719  0.7160 -0.3552  0.9779
13235TIP3   OH261195   4.393   5.806  14.841  0.1939 -0.1562  0.2164
13235TIP3    H161196   4.463   5.811  14.776 -1.5644  0.6352 -1.7038
13235TIP3    H261197   4.343   5.728  14.817 -1.5120  1.1107 -0.5504
13236TIP3   OH261198   3.349   0.084   0.539  0.5767  0.0682  0.6514
13236TIP3    H161199   3.426   0.095   0.483 -0.0326 -0.3951 -0.2962
13236TIP3    H261200   3.351   0.160   0.597  2.2458 -0.4079  1.2590
13237TIP3   OH261201   4.350   6.393  16.926 -0.2037 -0.2577 -0.3623
13237TIP3    H161202   4.324   6.474  16.971  0.6071  1.1258 -2.2605
13237TIP3    H261203   4.374   6.333  16.997 -1.9796  0.7095  1.1526
13238TIP3   OH261204   5.878   2.010   2.494 -0.0611 -0.5553 -0.6733
13238TIP3    H161205   5.960   2.039   2.454 -0.4556 -0.5127 -1.4802
13238TIP3    H261206   5.873   1.917   2.473  0.8539 -1.1043  1.3019
13239TIP3   OH261207   1.193   2.529   0.870 -0.3504  0.6733  0.1561
13239TIP3    H161208   1.188   2.457   0.933  0.0877  0.3418 -0.1835
13239TIP3    H261209   1.175   2.607   0.922  1.2885  0.5535  0.9595
13240TIP3   OH261210   6.509   2.345  15.512  0.8566 -0.0653 -0.3454
13240TIP3    H161211   6.602   2.345  15.537  0.8869 -1.3223 -0.4057
13240TIP3    H261212   6.507   2.391  15.428  1.1812  1.4172  0.4218
13241TIP3   OH261213   4.953   0.301   2.549  0.2644  0.5104  0.3671
13241TIP3    H161214   4.935   0.324   2.458  1.6529 -0.3948 -0.1707
13241TIP3    H261215   5.049   0.301   2.556  0.2236 -0.7912  1.4468
13242TIP3   OH261216   6.719   5.551   1.990  0.2195  0.1009 -0.5847
13242TIP3    H161217   6.783   5.482   1.974 -0.4315 -0.8048  0.5354
13242TIP3    H261218   6.666   5.519   2.063 -2.6353  0.0213 -2.5129
13243TIP3   OH261219   3.029   0.633   2.737  0.6405 -0.4393  0.0132
13243TIP3    H161220   3.078   0.646   2.818  0.7534 -0.6271 -0.0237
13243TIP3    H261221   2.946   0.677   2.751  1.1115  0.5650 -0.2025
13244TIP3   OH261222   0.246   6.372   2.646  0.0663 -0.4017  0.0185
13244TIP3    H161223   0.223   6.284   2.617  1.5341 -0.8565  0.1812
13244TIP3    H261224   0.231   6.427   2.569 -0.9926 -0.7540 -0.0435
13245TIP3   OH261225   6.160   6.087   3.206 -0.5399 -0.4443 -0.2092
13245TIP3    H161226   6.246   6.060   3.238 -0.2950  0.2081 -0.3145
13245TIP3    H261227   6.178   6.127   3.121 -0.8138  0.6764  0.2444
13246TIP3   OH261228   3.805   3.734  15.258 -0.3987  0.0259  0.0119
13246TIP3    H161229   3.823   3.804  15.195  0.2800 -0.4531 -0.3370
13246TIP3    H261230   3.716   3.704  15.236 -0.4023  0.2733 -0.3233
13247TIP3   OH261231   5.437   1.353  12.853 -0.1774  0.4757  0.1503
13247TIP3    H161232   5.392   1.435  12.873  0.2702  1.1233 -1.3204
13247TIP3    H261233   5.367   1.291  12.831 -0.4773  0.7150  0.4349
13248TIP3   OH261234   0.034   1.518   3.168 -0.2501  0.5165  0.2029
13248TIP3    H161235   0.123   1.495   3.194  0.2768 -0.7949 -2.4249
13248TIP3    H261236   0.045   1.587   3.102 -1.4014  2.3619  1.8072
13249TIP3   OH261237   1.952   3.448   0.852  0.4109 -0.0313 -0.4996
13249TIP3    H161238   1.866   3.464   0.891  1.5754 -0.0918  2.3389
13249TIP3    H261239   1.936   3.448   0.757 -2.7684 -0.5335 -0.0748
13250TIP3   OH261240   5.177   3.000   0.892  0.4700  0.0599  0.4773
13250TIP3    H161241   5.163   2.921   0.839 -0.2539  0.4713  0.0432
13250TIP3    H261242   5.165   2.970   0.982 -1.0698 -0.0839  0.2490
13251TIP3   OH261243   0.075   3.538   3.447 -0.3425  0.0190  0.0509
13251TIP3    H161244   0.040   3.466   3.395 -0.7065 -0.2382  0.6518
13251TIP3    H261245  -0.001   3.574   3.493  0.0015  0.1444  0.5280
13252TIP3   OH261246   6.825   3.328  11.196  0.0351 -0.2775  0.2623
13252TIP3    H161247   6.761   3.325  11.124  0.3600  1.6729 -0.1615
13252TIP3    H261248   6.895   3.270  11.168 -1.1513 -1.8170  0.3597
13253TIP3   OH261249   4.369   2.932  13.842 -0.2184  0.1406  0.0873
13253TIP3    H161250   4.412   3.008  13.803 -0.2403 -0.6984 -1.6866
13253TIP3    H261251   4.287   2.966  13.878 -0.7334  0.8304 -1.6167
13254TIP3   OH261252   2.199   4.238  16.031  0.4489 -0.6176 -0.5243
13254TIP3    H161253   2.197   4.180  15.955 -0.7075 -0.7727 -0.3900
13254TIP3    H261254   2.108   4.267  16.042  0.6022 -0.5672  0.7638
13255TIP3   OH261255   3.719   0.151   4.162  0.0375 -0.0537  0.1226
13255TIP3    H161256   3.774   0.072   4.156 -1.5460 -1.1712 -0.5107
13255TIP3    H261257   3.694   0.169   4.072 -1.3250 -0.0959  0.4762
13256TIP3   OH261258   1.850   0.825  13.346 -0.3150 -0.2777  0.0333
13256TIP3    H161259   1.804   0.794  13.268  0.0474 -0.7174 -0.0098
13256TIP3    H261260   1.781   0.836  13.412 -0.5754 -0.2348 -0.2417
13257TIP3   OH261261   4.907   4.813  15.018 -0.4187  0.2495  0.1705
13257TIP3    H161262   4.856   4.801  14.938 -1.3336  1.3890  0.5579
13257TIP3    H261263   4.918   4.725  15.053  0.8837 -0.4036 -1.7049
13258TIP3   OH261264   1.276   4.884   4.765  0.0019  0.3626 -0.1651
13258TIP3    H161265   1.318   4.853   4.685  0.4030  1.5130 -0.4159
13258TIP3    H261266   1.281   4.979   4.760 -0.1714  0.4608  1.1279
13259TIP3   OH261267   3.654   5.900  15.716 -0.1130 -0.1061 -0.9088
13259TIP3    H161268   3.746   5.879  15.735 -0.2435 -0.4656 -0.6531
13259TIP3    H261269   3.634   5.849  15.637 -0.8075 -2.0472  0.4417
13260TIP3   OH261270   6.811   4.843  13.182  0.4129 -0.1524  0.0344
13260TIP3    H161271   6.856   4.864  13.264  0.9668 -0.9489 -0.0553
13260TIP3    H261272   6.797   4.749  13.186 -0.8728  0.0153 -0.1435
13261TIP3   OH261273   1.370   6.069   1.759  0.1376 -0.8099 -0.6557
13261TIP3    H161274   1.319   6.111   1.689 -0.7810  0.9952  0.9813
13261TIP3    H261275   1.326   5.986   1.773 -0.4666 -0.6233 -1.3602
13262TIP3   OH261276   6.780   2.209  13.266 -0.6124  0.3278 -0.2087
13262TIP3    H161277   6.716   2.226  13.335  0.1557 -0.3677  0.7076
13262TIP3    H261278   6.849   2.273  13.281  2.5281 -3.3050  3.5545
13263TIP3   OH261279   2.246   0.470  16.386  0.4014  0.3373 -0.4012
13263TIP3    H161280   2.284   0.531  16.449 -0.0006  0.5443 -0.3604
13263TIP3    H261281   2.316   0.406  16.371  1.4981  1.8068 -1.8465
13264TIP3   OH261282   4.387   5.565  12.978 -0.6070 -0.6337 -0.1523
13264TIP3    H161283   4.448   5.614  13.033 -2.4648  0.0572  1.4421
13264TIP3    H261284   4.309   5.619  12.975 -1.7618 -2.2414 -0.6733
13265TIP3   OH261285   3.924   1.452   3.993  0.0176  0.3861  0.1835
13265TIP3    H161286   3.940   1.533   4.043 -0.9330 -0.0986  1.3326
13265TIP3    H261287   3.893   1.390   4.059 -2.0408 -0.0595 -1.1195
13266TIP3   OH261288   6.554   0.578  16.425 -0.1428 -0.2214 -0.5435
13266TIP3    H161289   6.607   0.597  16.348 -0.8664 -0.8962 -1.2189
13266TIP3    H261290   6.523   0.488  16.412 -2.2700  0.4674 -0.6774
13267TIP3   OH261291   2.303   6.546  11.827 -0.2991 -0.5709  0.3842
13267TIP3    H161292   2.224   6.493  11.820 -0.0580 -1.0969  1.4146
13267TIP3    H261293   2.371   6.493  11.788 -0.7569  0.6966 -2.3606
13268TIP3   OH261294   2.295   1.217   1.378 -0.5297  0.1422 -0.0382
13268TIP3    H161295   2.224   1.178   1.328 -0.6670 -0.8421  0.8746
13268TIP3    H261296   2.369   1.157   1.366  0.0786  1.0024 -0.7424
13269TIP3   OH261297   3.364   6.647  13.757 -0.3244  0.0787  0.3734
13269TIP3    H161298   3.406   6.701  13.824 -1.1747 -1.2953  2.0989
13269TIP3    H261299   3.384   6.557  13.783  1.7359 -0.5387 -2.8596
13270TIP3   OH261300   0.249   6.318  13.753 -0.4210 -0.4749 -0.3527
13270TIP3    H161301   0.262   6.412  13.768  0.2292 -0.7775  1.1764
13270TIP3    H261302   0.159   6.311  13.723 -0.6117  0.5939 -0.0900
13271TIP3   OH261303   4.543   6.080   2.785  0.5595  0.2049  0.1579
13271TIP3    H161304   4.603   6.129   2.841  2.1499 -1.8662  0.4187
13271TIP3    H261305   4.463   6.072   2.836  0.9809  0.7862  0.9345
13272TIP3   OH261306   4.114   4.086  16.026  0.0364  0.3572  0.2087
13272TIP3    H161307   4.152   4.134  15.953  0.0627 -0.1199 -0.0973
13272TIP3    H261308   4.053   4.024  15.985 -1.9658  1.8545  0.7226
13273TIP3   OH261309   0.209   2.540  13.776  0.0821  0.0169 -0.4816
13273TIP3    H161310   0.213   2.499  13.862  1.4447  0.2984 -0.3831
13273TIP3    H261311   0.117   2.560  13.763 -0.5153 -2.1943 -0.1344
13274TIP3   OH261312   1.594   2.213  11.838 -0.3065  0.0717 -0.6658
13274TIP3    H161313   1.683   2.236  11.811 -0.3024 -0.3436 -1.0130
13274TIP3    H261314   1.583   2.122  11.810 -1.4187  0.6216 -2.1138
13275TIP3   OH261315   4.736   5.346  14.693  0.2394  0.2002  0.5324
13275TIP3    H161316   4.672   5.361  14.624  0.1135 -0.9870  0.3698
13275TIP3    H261317   4.774   5.432  14.709  0.0298  0.5655 -0.7780
13276TIP3   OH261318   3.239   5.762   0.178 -0.5340  0.4311  0.1804
13276TIP3    H161319   3.275   5.717   0.255  0.0023  1.2807  0.4453
13276TIP3    H261320   3.261   5.705   0.105 -0.0527  0.1501  0.5327
13277TIP3   OH261321   3.147   4.149  13.080 -0.0242  0.3599 -0.6211
13277TIP3    H161322   3.159   4.064  13.122 -1.0819  0.5716  0.1449
13277TIP3    H261323   3.074   4.137  13.021  1.2350  0.1629 -2.2086
13278TIP3   OH261324   3.626   1.477  11.271  0.0439 -0.2192  0.2673
13278TIP3    H161325   3.569   1.497  11.345  0.5049 -2.2341  1.2224
13278TIP3    H261326   3.712   1.461  11.310  0.1212 -2.0994 -0.5662
13279TIP3   OH261327   1.206   5.975  14.398 -0.1334  0.3253  0.3059
13279TIP3    H161328   1.198   5.937  14.311 -1.2008  2.0581 -0.4138
13279TIP3    H261329   1.210   5.900  14.457 -0.4371 -0.8816 -1.1453
13280TIP3   OH261330   5.974   1.489   3.380 -0.6029  0.9090 -0.2458
13280TIP3    H161331   6.021   1.465   3.301 -0.3666  1.0145 -0.1370
13280TIP3    H261332   5.959   1.584   3.371  0.8930  1.2505  0.6066
13281TIP3   OH261333   2.560   1.225  14.608 -0.1746  0.5543  0.1133
13281TIP3    H161334   2.647   1.185  14.620 -0.6036 -0.4856 -0.0917
13281TIP3    H261335   2.500   1.151  14.612 -1.0904  1.3051  0.5765
13282TIP3   OH261336   1.471   5.719  16.355 -0.2430  0.0171  0.4137
13282TIP3    H161337   1.393   5.701  16.302 -0.2766 -2.2392  1.1320
13282TIP3    H261338   1.540   5.666  16.315  0.5274  0.7317  0.7697
13283TIP3   OH261339   2.985   5.918   0.931 -0.2406 -0.1405  0.4656
13283TIP3    H161340   2.976   5.867   1.012  1.1525  0.4026  0.9954
13283TIP3    H261341   2.994   5.851   0.863 -0.5596 -0.6063  0.8670
13284TIP3   OH261342   1.601   2.162  10.738 -0.0682  0.7227  0.7466
13284TIP3    H161343   1.511   2.184  10.762 -0.5294 -0.4469  0.1143
13284TIP3    H261344   1.596   2.074  10.703  0.9014  1.5856 -1.7605
13285TIP3   OH261345   2.129   6.751   4.054 -0.3446 -0.4583  0.2574
13285TIP3    H161346   2.091   6.675   4.011  0.6025 -0.9150  0.1948
13285TIP3    H261347   2.213   6.720   4.088  0.5825  0.8252 -0.7408
13286TIP3   OH261348   2.659   0.284   2.735  0.2789 -0.3017 -0.1324
13286TIP3    H161349   2.582   0.302   2.789 -0.5762 -0.8911 -1.1043
13286TIP3    H261350   2.625   0.232   2.662  1.6554 -0.8328 -0.4311
13287TIP3   OH261351   1.122   6.780  13.653  0.4177 -0.1192 -0.4404
13287TIP3    H161352   1.048   6.832  13.620  0.0543 -0.3160  0.0599
13287TIP3    H261353   1.082   6.702  13.690  0.7238  0.4872  1.2701
13288TIP3   OH261354   1.570   1.775   5.022 -1.2466 -0.0123 -0.0746
13288TIP3    H161355   1.630   1.802   4.953  0.0193 -2.3738  0.0051
13288TIP3    H261356   1.618   1.789   5.103 -0.3535 -2.7057 -0.0523
13289TIP3   OH261357   1.444   3.383  14.876 -0.6248 -0.4470  0.3904
13289TIP3    H161358   1.362   3.388  14.826 -0.4690  0.9130  0.2188
13289TIP3    H261359   1.439   3.457  14.936  1.5359  1.2188 -1.3083
13290TIP3   OH261360   3.589   4.650  12.768  0.6104  0.3050  0.0159
13290TIP3    H161361   3.682   4.661  12.747  0.9317 -0.0911  1.1606
13290TIP3    H261362   3.587   4.581  12.834 -0.6821 -1.0729 -1.3644
13291TIP3   OH261363   3.655   1.323  12.033 -0.1100 -0.2020  0.3540
13291TIP3    H161364   3.603   1.263  11.980  2.0222 -0.7056 -1.3478
13291TIP3    H261365   3.657   1.284  12.120  0.3574 -2.0723 -0.4501
13292TIP3   OH261366   4.112   4.110   3.778 -0.6157 -0.0387  0.2697
13292TIP3    H161367   4.056   4.170   3.827 -0.9316 -0.9895  1.1125
13292TIP3    H261368   4.200   4.123   3.814 -0.5756  0.3032  0.0582
13293TIP3   OH261369   2.889   0.971  14.292 -0.3470  0.3354 -0.2793
13293TIP3    H161370   2.928   1.033  14.231  1.0268 -1.1682 -1.0348
13293TIP3    H261371   2.859   0.899  14.236  0.1467 -0.6806  0.7202
13294TIP3   OH261372   3.311   6.668  16.335 -0.0582  0.3747 -0.3186
13294TIP3    H161373   3.230   6.721  16.334 -2.0549 -2.1486  3.3478
13294TIP3    H261374   3.287   6.587  16.289  1.2504  0.5055 -1.2875
13295TIP3   OH261375   6.401   6.724   0.871 -0.1476  0.2002 -0.1041
13295TIP3    H161376   6.335   6.684   0.928 -1.2933 -0.4726 -1.8302
13295TIP3    H261377   6.424   6.656   0.808  0.6864  1.0798 -0.7860
13296TIP3   OH261378   6.569   3.510   3.375 -0.8891  0.1004  0.3752
13296TIP3    H161379   6.520   3.519   3.456 -1.3311  0.3485  0.0822
13296TIP3    H261380   6.603   3.598   3.357 -1.7107  0.2920 -0.2814
13297TIP3   OH261381   6.028   5.819  12.353 -0.0469  0.4993  0.1923
13297TIP3    H161382   5.933   5.820  12.369 -0.7607 -1.6132 -3.0215
13297TIP3    H261383   6.045   5.731  12.319  2.6999  1.5021 -1.2986
13298TIP3   OH261384   5.614   1.881  14.420  0.3149  0.4266  0.2714
13298TIP3    H161385   5.676   1.861  14.490  1.0013  0.4896 -0.3166
13298TIP3    H261386   5.560   1.802  14.413  1.1094 -0.1056 -0.0295
13299TIP3   OH261387   2.138   3.120  16.420  0.0497 -0.0690  0.1093
13299TIP3    H161388   2.086   3.041  16.414 -1.0399  0.7200 -1.5760
13299TIP3    H261389   2.102   3.168  16.494 -0.2465 -0.4706  0.2245
13300TIP3   OH261390   1.907   2.184   0.321 -0.2126  0.9011 -0.0469
13300TIP3    H161391   1.954   2.259   0.356  1.3503  0.8097 -1.7794
13300TIP3    H261392   1.896   2.203   0.228  0.6987 -1.1993 -0.6529
13301TIP3   OH261393   2.082   0.315  12.145 -0.1068  0.3748 -1.0754
13301TIP3    H161394   2.086   0.230  12.101  1.0799  0.0381 -0.3666
13301TIP3    H261395   2.024   0.368  12.090  0.3808 -0.4052 -2.3910
13302TIP3   OH261396   2.239   1.919  16.500 -0.2985  0.1428 -0.5797
13302TIP3    H161397   2.172   1.860  16.534 -0.3427  0.4437 -0.1442
13302TIP3    H261398   2.320   1.892  16.543 -0.7502  2.0507  1.6920
13303TIP3   OH261399   3.800   2.872   2.047 -0.2091  0.1595 -0.1143
13303TIP3    H161400   3.760   2.824   2.119 -1.4475 -0.2537 -1.0329
13303TIP3    H261401   3.894   2.863   2.062 -0.4254 -1.1696  0.6451
13304TIP3   OH261402   2.833   5.595  13.726  0.1527 -0.7799 -0.0117
13304TIP3    H161403   2.790   5.680  13.715 -0.2954 -0.8901  0.7599
13304TIP3    H261404   2.761   5.535  13.747  0.6900 -0.9083  1.6346
13305TIP3   OH261405   3.132   4.380  15.361 -0.0058 -0.3552  0.0481
13305TIP3    H161406   3.098   4.291  15.348 -0.3657  0.2269 -4.5885
13305TIP3    H261407   3.062   4.426  15.408 -1.0704 -1.7950 -0.0515
13306TIP3   OH261408   5.295   3.153   3.998  0.1569  0.3014  0.0050
13306TIP3    H161409   5.212   3.181   3.958  1.1145  0.6700 -1.8414
13306TIP3    H261410   5.298   3.200   4.081 -1.1793  0.8104 -0.1978
13307TIP3   OH261411   6.554   1.377  15.013 -0.6759 -0.4474 -0.1153
13307TIP3    H161412   6.584   1.300  15.061 -0.6452 -0.2287  0.2148
13307TIP3    H261413   6.522   1.342  14.930 -2.8746 -1.0909  0.9408
13308TIP3   OH261414   5.837   3.519  12.814  0.3292 -0.4232 -0.1684
13308TIP3    H161415   5.859   3.430  12.843 -0.7291 -1.0115 -1.1226
13308TIP3    H261416   5.920   3.567  12.820  0.9347 -1.4864  0.2761
13309TIP3   OH261417   4.597   4.124  15.994  0.7012  0.2415  0.0498
13309TIP3    H161418   4.576   4.165  16.078 -4.4273  1.5186 -1.4835
13309TIP3    H261419   4.636   4.193  15.942 -0.5360  0.9158 -0.0228
13310TIP3   OH261420   1.870   5.908   1.114 -0.6993 -0.0784  0.0395
13310TIP3    H161421   1.803   5.850   1.150 -0.6142 -1.1126 -1.3928
13310TIP3    H261422   1.948   5.854   1.106 -0.4542  0.3763 -0.7985
13311TIP3   OH261423   4.937   2.558   0.974  0.2810  0.2650  0.2148
13311TIP3    H161424   4.907   2.480   1.021  0.7164  0.2202  0.4194
13311TIP3    H261425   4.955   2.527   0.886 -3.8151  0.9712 -1.0945
13312TIP3   OH261426   6.655   1.073  13.487  0.2587 -0.1656  0.5284
13312TIP3    H161427   6.744   1.104  13.472  0.4735 -0.7649  0.5092
13312TIP3    H261428   6.659   1.031  13.574 -0.0995  0.1540  0.6998
13313TIP3   OH261429   3.050   3.715  15.666  0.0599  0.8385 -0.3244
13313TIP3    H161430   3.035   3.803  15.700 -0.4398  0.6932 -0.1724
13313TIP3    H261431   2.971   3.695  15.616  0.8658  1.1414 -1.7819
13314TIP3   OH261432   2.674   5.360  15.395  0.3246 -0.1027  0.1317
13314TIP3    H161433   2.647   5.299  15.326 -0.1800  0.8583 -0.5350
13314TIP3    H261434   2.765   5.380  15.374 -0.1674  1.0966 -0.9651
13315TIP3   OH261435   4.598   4.642   2.136  0.1980  0.2258 -0.4381
13315TIP3    H161436   4.503   4.630   2.147  0.6011 -1.1603  2.6645
13315TIP3    H261437   4.622   4.584   2.064 -1.2522  0.3971 -1.0899
13316TIP3   OH261438   6.387   1.362   1.903  0.3924  0.0755 -0.7232
13316TIP3    H161439   6.414   1.427   1.839  0.7304 -1.9252 -2.7419
13316TIP3    H261440   6.465   1.309   1.918 -0.0060 -0.2084  0.4758
13317TIP3   OH261441   2.991   3.571   3.146 -0.0186 -0.0973 -0.2520
13317TIP3    H161442   3.023   3.629   3.215  0.3651  0.1698 -0.6551
13317TIP3    H261443   2.926   3.623   3.099 -1.0640 -0.6343  0.5608
13318TIP3   OH261444   0.057   4.290   2.350 -0.0512  1.2923 -0.1436
13318TIP3    H161445  -0.029   4.320   2.319 -0.6823 -0.6132 -0.3447
13318TIP3    H261446   0.065   4.326   2.438 -1.2407  1.1576  0.0303
13319TIP3   OH261447   6.266   2.173   3.058  0.5095  0.0427 -0.2775
13319TIP3    H161448   6.257   2.095   3.112  0.1320  0.2407 -0.0542
13319TIP3    H261449   6.361   2.182   3.046  0.8232  1.5010  2.5615
13320TIP3   OH261450   3.076   5.600  10.883 -0.0989  0.2806 -0.2927
13320TIP3    H161451   3.009   5.532  10.879 -1.0703  1.0683  1.4158
13320TIP3    H261452   3.058   5.656  10.808 -0.1574 -0.5480 -0.9117
13321TIP3   OH261453   6.635   1.702   0.107  0.2404  0.4655 -0.2168
13321TIP3    H161454   6.591   1.780   0.142  1.0869  0.3089  1.2684
13321TIP3    H261455   6.606   1.631   0.164  0.3033 -0.1402 -0.9169
13322TIP3   OH261456   5.834   6.445   0.072 -0.4665  0.1832  0.2419
13322TIP3    H161457   5.864   6.453  -0.019 -2.1764 -0.9646 -0.4910
13322TIP3    H261458   5.905   6.400   0.117 -0.7400 -1.8840 -1.2527
13323TIP3   OH261459   3.385   4.153   3.989 -0.0761 -0.2787 -0.5712
13323TIP3    H161460   3.421   4.124   3.905 -1.2026 -4.0695  0.0670
13323TIP3    H261461   3.437   4.108   4.055 -1.7178 -0.6172  0.5692
13324TIP3   OH261462   3.102   3.566  16.258 -0.4040  0.2274 -0.4250
13324TIP3    H161463   3.142   3.620  16.190  0.9145  0.2982  0.3837
13324TIP3    H261464   3.011   3.596  16.262 -0.0234  1.4983 -0.8713
13325TIP3   OH261465   3.336   2.556   5.798  0.3436 -0.0477  0.0355
13325TIP3    H161466   3.293   2.627   5.750 -0.1158  1.5438  2.5736
13325TIP3    H261467   3.429   2.579   5.796 -0.0043  2.2848  3.0299
13326TIP3   OH261468   2.711   5.869   4.689  0.1648 -0.5522  0.7041
13326TIP3    H161469   2.776   5.806   4.659  2.7210  1.8141  0.8927
13326TIP3    H261470   2.664   5.824   4.759  1.7551 -2.3035  0.7071
13327TIP3   OH261471   3.331   2.205  15.073 -0.1768 -0.2532 -0.3655
13327TIP3    H161472   3.277   2.229  15.148  1.9097  0.3163  1.0449
13327TIP3    H261473   3.322   2.110  15.067  0.0134 -0.3800  0.9669
13328TIP3   OH261474   4.536   6.257  13.935  0.5851 -0.6947 -0.5790
13328TIP3    H161475   4.603   6.325  13.942  0.0594 -0.2078 -0.1823
13328TIP3    H261476   4.550   6.218  13.849 -0.2398  1.1450 -1.6124
13329TIP3   OH261477   4.686   1.377  16.879  0.1216 -0.0986 -0.4508
13329TIP3    H161478   4.610   1.319  16.887  0.5055 -0.3791  1.9778
13329TIP3    H261479   4.663   1.437  16.809 -1.2004 -1.8297 -1.5940
13330TIP3   OH261480   0.393   1.229   2.192 -0.3264 -0.2686 -0.4884
13330TIP3    H161481   0.477   1.200   2.158 -1.3753 -0.5991 -3.0399
13330TIP3    H261482   0.343   1.148   2.204 -0.4468 -0.0461  0.6131
13331TIP3   OH261483   1.200   3.300  12.677 -0.4650  0.3033 -0.2171
13331TIP3    H161484   1.177   3.384  12.718  0.8650  0.6776 -0.1951
13331TIP3    H261485   1.118   3.251  12.678 -0.7920  0.7637  1.7948
13332TIP3   OH261486   0.131   4.410  16.261  0.6378 -0.0224  0.5768
13332TIP3    H161487   0.168   4.471  16.325  1.5990 -1.8915  1.9069
13332TIP3    H261488   0.073   4.353  16.312  1.9216 -1.9713 -0.0041
13333TIP3   OH261489   5.260   2.367  16.380 -0.2329 -0.1093  0.1481
13333TIP3    H161490   5.339   2.324  16.411 -1.4702 -2.9295 -0.3163
13333TIP3    H261491   5.190   2.333  16.436 -1.4976  0.1946 -1.1772
13334TIP3   OH261492   0.237   2.952  16.269  0.3211 -0.0631  0.0162
13334TIP3    H161493   0.216   2.875  16.322 -1.0032  0.8431  0.8400
13334TIP3    H261494   0.320   2.929  16.227 -1.0856 -2.8513 -1.5297
13335TIP3   OH261495   3.470   3.696   6.115 -0.3273 -0.0279 -0.3509
13335TIP3    H161496   3.502   3.606   6.117 -0.7468 -0.1746  1.0322
13335TIP3    H261497   3.475   3.722   6.023  0.8402 -1.0789 -0.6108
13336TIP3   OH261498   3.753   3.716  15.551 -0.2857  1.0213 -0.7328
13336TIP3    H161499   3.799   3.714  15.468 -0.2559  0.1354 -0.7046
13336TIP3    H261500   3.727   3.807  15.563 -1.0423  1.0045 -2.1180
13337TIP3   OH261501   4.452   6.553  15.397  0.3720  0.3337 -0.4828
13337TIP3    H161502   4.407   6.468  15.400  0.6581  0.1828 -0.4288
13337TIP3    H261503   4.447   6.580  15.305 -0.0133  0.4179 -0.4382
13338TIP3   OH261504   0.970   6.317  14.446 -0.1561  0.5405 -0.3631
13338TIP3    H161505   0.966   6.251  14.515 -1.1232  0.1469 -0.7845
13338TIP3    H261506   0.897   6.297  14.388  0.0692  1.4415 -0.9916
13339TIP3   OH261507   3.356   5.674   4.555 -0.9967 -0.5611 -0.2450
13339TIP3    H161508   3.300   5.739   4.513 -0.7667 -1.2874 -1.7553
13339TIP3    H261509   3.356   5.600   4.494  1.6967 -0.5374 -0.3800
13340TIP3   OH261510   4.421   5.965  16.890 -0.5027 -0.4045 -0.5699
13340TIP3    H161511   4.371   6.045  16.904  0.2332 -0.0988  0.4265
13340TIP3    H261512   4.384   5.902  16.951  1.1838  0.2331  1.1951
13341TIP3   OH261513   4.072   0.833  10.464  0.0952 -0.2873  0.3252
13341TIP3    H161514   4.080   0.883  10.545  0.4248  1.3221 -0.6533
13341TIP3    H261515   3.978   0.836  10.444  0.3978  2.4633 -1.1728
13342TIP3   OH261516   2.321   2.595  16.782 -0.4774  0.0701  0.8524
13342TIP3    H161517   2.343   2.530  16.849  0.3204  0.4198  0.9360
13342TIP3    H261518   2.390   2.661  16.789 -0.2141 -0.0318 -0.5087
13343TIP3   OH261519   4.742   0.356   3.715  0.0334 -0.5590  0.3083
13343TIP3    H161520   4.702   0.437   3.744  2.4431  0.9474 -0.2418
13343TIP3    H261521   4.672   0.308   3.671 -1.6374  0.8205  1.3372
13344TIP3   OH261522   1.331   5.171   0.982  0.6600 -0.4220 -0.5003
13344TIP3    H161523   1.364   5.172   1.072  0.9242 -1.2802 -0.5838
13344TIP3    H261524   1.381   5.102   0.939 -1.4123 -1.9808 -0.5694
13345TIP3   OH261525   6.817   6.578   1.321  0.0141  0.8718 -0.3767
13345TIP3    H161526   6.825   6.503   1.380 -1.1002 -0.0519 -1.3438
13345TIP3    H261527   6.906   6.613   1.315  0.2274  0.7771  1.5279
13346TIP3   OH261528   0.480   3.632  15.599  0.1361 -0.0155 -0.3759
13346TIP3    H161529   0.435   3.614  15.682  1.3704 -1.4481  0.0224
13346TIP3    H261530   0.515   3.720  15.610 -0.0515 -0.0336  0.4785
13347TIP3   OH261531   2.786   4.872   3.323  0.4873 -0.6028 -0.6276
13347TIP3    H161532   2.872   4.831   3.321 -0.7351 -3.4024  0.1677
13347TIP3    H261533   2.731   4.818   3.265 -1.7666 -1.6539  2.2354
13348TIP3   OH261534   3.140   2.421   5.928 -0.3731 -0.3829  0.0782
13348TIP3    H161535   3.210   2.459   5.875  0.3011 -0.9574  0.5521
13348TIP3    H261536   3.076   2.491   5.937  0.2252  0.2047 -0.2053
13349TIP3   OH261537   0.333   1.563   0.870 -0.0199 -0.2065 -0.3618
13349TIP3    H161538   0.291   1.640   0.908  0.4106 -0.0341 -0.2386
13349TIP3    H261539   0.282   1.545   0.791 -0.6330 -0.2939  0.0428
13350TIP3   OH261540   0.804   4.401  10.334  0.0460  0.5291 -0.9262
13350TIP3    H161541   0.893   4.393  10.300  0.3633  2.2134 -0.5862
13350TIP3    H261542   0.787   4.495  10.335 -1.8075  0.2439 -1.1212
13351TIP3   OH261543   4.847   1.946  12.564 -0.0897  0.2401  0.6478
13351TIP3    H161544   4.896   1.870  12.598 -0.4819 -0.6049 -0.6051
13351TIP3    H261545   4.839   1.929  12.471  3.0891  3.6494 -0.5025
13352TIP3   OH261546   1.014   3.740  11.276  0.3686 -0.0703 -0.0779
13352TIP3    H161547   0.988   3.734  11.184  1.9585  0.7232 -0.6200
13352TIP3    H261548   1.015   3.834  11.294  1.9214 -0.1049  0.1566
13353TIP3   OH261549   2.697   2.308   3.435  0.4778  0.4180 -0.2655
13353TIP3    H161550   2.639   2.355   3.375 -0.7954 -1.5049 -0.6360
13353TIP3    H261551   2.781   2.303   3.389  0.5499  1.9534 -0.3570
13354TIP3   OH261552   2.655   6.786   1.606 -0.4895 -0.3290 -0.2392
13354TIP3    H161553   2.665   6.722   1.535  0.0236 -0.6980  0.1571
13354TIP3    H261554   2.728   6.768   1.664 -0.3549  0.6146 -0.1065
13355TIP3   OH261555   3.796   0.278  15.352  0.1743  0.5161 -0.0416
13355TIP3    H161556   3.798   0.289  15.447  0.3922 -0.7422  0.1224
13355TIP3    H261557   3.789   0.184  15.339 -1.0269  0.7462 -1.2778
13356TIP3   OH261558   2.512   5.483   1.836  0.0122  0.9518 -0.0162
13356TIP3    H161559   2.605   5.488   1.856  0.2795 -0.0739 -0.9224
13356TIP3    H261560   2.489   5.571   1.805  0.7773  1.0921 -0.2003
13357TIP3   OH261561   5.880   2.082  15.608  0.4487  0.3889 -0.0189
13357TIP3    H161562   5.927   1.999  15.604  0.6231  0.5064 -0.4071
13357TIP3    H261563   5.835   2.088  15.523 -0.9571 -0.1253  0.6505
13358TIP3   OH261564   3.982   0.079  13.513 -0.5627 -0.1286 -0.1380
13358TIP3    H161565   3.930   0.047  13.439  0.4519 -0.9936 -0.5070
13358TIP3    H261566   4.003  -0.000  13.563 -0.2892  0.3096  0.4451
13359TIP3   OH261567   6.627   2.269  11.306 -0.5387  0.3412  0.5814
13359TIP3    H161568   6.704   2.324  11.323 -0.1946  0.3730 -0.9228
13359TIP3    H261569   6.664   2.184  11.284 -0.8080  0.6692 -1.3944
13360TIP3   OH261570   5.885   2.061   2.769  0.5025 -0.1666 -0.0709
13360TIP3    H161571   5.801   2.036   2.806  1.1953 -0.8695  1.1201
13360TIP3    H261572   5.887   2.021   2.682 -0.4381 -0.0062 -0.1723
13361TIP3   OH261573   3.681   1.971   4.619  0.0074  0.2174 -0.4499
13361TIP3    H161574   3.675   1.886   4.574 -1.0360  0.2580 -0.4193
13361TIP3    H261575   3.767   1.970   4.661  0.4163 -0.4116 -1.2706
13362TIP3   OH261576   3.921   1.413  12.076 -0.1046  0.0280  0.0639
13362TIP3    H161577   3.842   1.381  12.033 -0.2201 -0.5116  0.6557
13362TIP3    H261578   3.935   1.351  12.148 -0.9517  1.9064  1.9302
13363TIP3   OH261579   4.084   2.204   5.993 -0.1199  0.2091  0.2151
13363TIP3    H161580   4.033   2.205   6.075  0.4718  0.6548  0.5828
13363TIP3    H261581   4.171   2.234   6.018  1.0706 -2.8067  0.0463
13364TIP3   OH261582   6.453   2.858  14.161  0.0548 -0.3414 -0.2829
13364TIP3    H161583   6.435   2.917  14.234 -0.1247 -0.6886 -0.0425
13364TIP3    H261584   6.387   2.880  14.095 -2.5205 -2.7900  1.2694
13365TIP3   OH261585   2.631   4.783  12.182 -0.0236  0.0556 -0.4887
13365TIP3    H161586   2.680   4.865  12.172 -0.5104  0.2187 -1.5924
13365TIP3    H261587   2.678   4.720  12.128  0.4234 -0.4492  0.4543
13366TIP3   OH261588   3.800   5.186  14.467 -0.5400  0.4385  0.1481
13366TIP3    H161589   3.815   5.265  14.415  0.0534  0.6171  0.5775
13366TIP3    H261590   3.790   5.116  14.402 -2.0390  0.9949 -0.2769
13367TIP3   OH261591   4.337   0.489  11.559 -0.0205 -0.3095  0.1478
13367TIP3    H161592   4.431   0.498  11.540 -0.0671 -1.3558 -0.6291
13367TIP3    H261593   4.304   0.579  11.556  1.1123  0.1911  1.3650
13368TIP3   OH261594   6.342   2.982  11.277  0.0471  0.0052  0.2490
13368TIP3    H161595   6.288   2.941  11.345 -1.7947 -0.6660 -1.5357
13368TIP3    H261596   6.408   3.031  11.326 -1.3474 -0.2367  2.5218
13369TIP3   OH261597   4.403   2.965   5.239  0.1795  0.5085  0.3788
13369TIP3    H161598   4.410   2.888   5.182  0.0867  0.7339  0.0594
13369TIP3    H261599   4.490   3.003   5.238  0.0209  0.8669 -0.1198
13370TIP3   OH261600   1.968   5.792  11.354  0.1222  0.0378 -0.0594
13370TIP3    H161601   2.031   5.725  11.324 -1.1219 -0.9018 -0.6570
13370TIP3    H261602   1.895   5.785  11.293 -0.5561  1.1580  0.5897
13371TIP3   OH261603   4.233   6.729   3.248 -0.3428  0.4819 -0.2231
13371TIP3    H161604   4.277   6.776   3.177  0.6049 -1.7024 -1.1619
13371TIP3    H261605   4.148   6.705   3.211 -0.2043  0.1205 -0.3111
13372TIP3   OH261606   4.017   0.476   5.832 -0.1571  0.2416 -0.1648
13372TIP3    H161607   4.105   0.449   5.858 -0.7262 -1.0209  0.5022
13372TIP3    H261608   4.018   0.572   5.843  0.9087  0.1694  0.5295
13373TIP3   OH261609   0.524   0.919  14.007 -0.5157  0.3197  0.0672
13373TIP3    H161610   0.545   0.886  13.920 -0.3111  0.5193  0.0404
13373TIP3    H261611   0.606   0.958  14.039 -0.5656  0.1720  0.3830
13374TIP3   OH261612   2.808   0.131   1.448 -0.4845  0.0915  0.0697
13374TIP3    H161613   2.785   0.119   1.356 -1.0673 -1.4157  0.3894
13374TIP3    H261614   2.739   0.087   1.497 -0.1295  0.7716  1.2384
13375TIP3   OH261615   1.786   6.738   1.095 -0.1319 -0.1576  0.4662
13375TIP3    H161616   1.863   6.702   1.138 -0.4565 -1.4231  0.0342
13375TIP3    H261617   1.713   6.687   1.130 -0.6196  0.1393 -0.0990
13376TIP3   OH261618   2.459   4.277  15.566 -0.6811 -0.7822 -0.0733
13376TIP3    H161619   2.411   4.344  15.614 -1.0842 -0.8589 -0.3631
13376TIP3    H261620   2.403   4.199  15.569 -0.2511 -1.0863  0.1959
13377TIP3   OH261621   0.723   5.060   3.711 -0.6069  0.2711 -0.7034
13377TIP3    H161622   0.727   4.981   3.656  0.8989 -0.4177  0.3306
13377TIP3    H261623   0.630   5.082   3.714 -0.7605  0.4137 -3.5904
13378TIP3   OH261624   2.543   2.625   1.051 -0.0287  0.0366  0.2626
13378TIP3    H161625   2.527   2.626   0.956 -1.3609 -1.8140  0.4084
13378TIP3    H261626   2.472   2.678   1.087 -1.2784 -1.6668  0.3861
13379TIP3   OH261627   6.087   6.716  14.675  0.0532 -0.4461  0.1675
13379TIP3    H161628   6.177   6.687  14.658  0.1157 -0.9685  1.2660
13379TIP3    H261629   6.094   6.773  14.752 -0.6123 -0.9900  0.6524
13380TIP3   OH261630   0.519   3.649  15.893 -0.3216 -0.2232 -0.2385
13380TIP3    H161631   0.570   3.568  15.884  0.9015  0.4534  0.4038
13380TIP3    H261632   0.569   3.703  15.955 -1.6546  0.6098  0.1569
13381TIP3   OH261633   3.557   5.860  12.645 -0.4149  0.3331 -0.1314
13381TIP3    H161634   3.526   5.949  12.660  2.2432  1.1360  1.2542
13381TIP3    H261635   3.607   5.839  12.724  0.8871 -1.5229 -1.3809
13382TIP3   OH261636   2.592   5.738   0.561  0.1882  0.2368 -0.7126
13382TIP3    H161637   2.603   5.643   0.551 -0.4521  0.1293 -0.4827
13382TIP3    H261638   2.581   5.770   0.472  0.1398  0.0506 -0.7753
13383TIP3   OH261639   5.366   4.815  12.698 -0.1444 -0.3163  0.6316
13383TIP3    H161640   5.319   4.896  12.682  0.3682 -0.0488  0.4640
13383TIP3    H261641   5.298   4.752  12.724 -0.4053  0.4693  1.9340
13384TIP3   OH261642   0.263   5.250  10.737  0.1955 -0.3197  0.2468
13384TIP3    H161643   0.204   5.224  10.666  0.0030  0.0910  0.2513
13384TIP3    H261644   0.232   5.201  10.813 -1.3652  1.2896  0.7193
13385TIP3   OH261645   5.702   3.464   0.541  1.0970  0.4824 -0.3758
13385TIP3    H161646   5.696   3.374   0.572  0.2505  0.6879  0.1061
13385TIP3    H261647   5.694   3.518   0.621 -1.9185  1.0396 -0.9214
13386TIP3   OH261648   6.102   6.637  10.943  0.1135  0.6136 -0.0669
13386TIP3    H161649   6.114   6.557  10.892 -0.0194  0.5626 -0.0181
13386TIP3    H261650   6.064   6.700  10.882 -5.3399 -0.9895  1.1317
13387TIP3   OH261651   1.794   0.545  11.279  0.0367 -0.2160 -1.1415
13387TIP3    H161652   1.781   0.529  11.185 -1.5988 -0.8888 -0.8368
13387TIP3    H261653   1.707   0.537  11.317  0.2739  2.3045  0.1455
13388TIP3   OH261654   4.058   0.250  15.812  0.3548 -0.4099  0.4503
13388TIP3    H161655   3.982   0.230  15.757  0.1037  1.0642  0.2235
13388TIP3    H261656   4.130   0.263  15.751  0.0783  1.2174  0.4148
13389TIP3   OH261657   0.602   4.875  15.883 -0.7500 -0.0414  0.3185
13389TIP3    H161658   0.542   4.915  15.946 -0.7414 -0.7770  0.8148
13389TIP3    H261659   0.559   4.794  15.857  0.8914 -1.6929  2.3053
13390TIP3   OH261660   6.043   2.660  12.766 -0.1591  0.0260  0.5575
13390TIP3    H161661   5.988   2.689  12.693 -0.5413 -0.4250  0.6600
13390TIP3    H261662   6.044   2.735  12.826  0.3300  0.4744 -0.0031
13391TIP3   OH261663   6.293   1.092  13.823  0.1054  0.7015 -0.0424
13391TIP3    H161664   6.241   1.170  13.840  0.3954  0.8699  0.0777
13391TIP3    H261665   6.331   1.107  13.736  1.5400  1.4750  0.6835
13392TIP3   OH261666   6.811   1.551  17.100  0.8693  0.1219  0.8316
13392TIP3    H161667   6.793   1.458  17.086  1.5734 -0.0049  0.6882
13392TIP3    H261668   6.747   1.579  17.164  0.0273 -0.2302  0.1612
13393TIP3   OH261669   4.808   6.660   3.593  0.0673  0.5877  0.0615
13393TIP3    H161670   4.805   6.671   3.498 -0.9769  0.3987  0.0515
13393TIP3    H261671   4.740   6.719   3.626 -0.1806  0.0172  0.6066
13394TIP3   OH261672   4.429   2.730  13.266 -0.0511  0.0509  0.1816
13394TIP3    H161673   4.379   2.657  13.302  0.8948 -1.7211 -1.8985
13394TIP3    H261674   4.368   2.774  13.207  0.1308 -0.6815 -0.5662
13395TIP3   OH261675   3.932   0.838   4.387  0.2095  0.3758  0.0735
13395TIP3    H161676   3.965   0.829   4.298  0.2319  0.4443  0.0745
13395TIP3    H261677   3.876   0.761   4.400 -0.6347  0.9041 -0.3668
13396TIP3   OH261678   1.037   3.015   2.032  0.2655  0.0862 -0.0594
13396TIP3    H161679   0.954   3.019   1.985  0.7705  1.7667 -0.8703
13396TIP3    H261680   1.047   3.102   2.070  1.8572  0.0476 -0.3322
13397TIP3   OH261681   6.142   0.123   3.915  0.7676 -0.6684 -0.2476
13397TIP3    H161682   6.197   0.126   3.993  2.2361 -1.2482 -1.1993
13397TIP3    H261683   6.176   0.049   3.865  0.9576  0.6366 -2.1756
13398TIP3   OH261684   4.833   0.784   5.317  0.6596  0.2645 -0.3951
13398TIP3    H161685   4.771   0.712   5.302 -0.0791  0.6817  0.5310
13398TIP3    H261686   4.790   0.861   5.282  0.9465  0.4533 -0.3364
13399TIP3   OH261687   0.589   2.794   0.425 -0.0313  0.2289 -0.0686
13399TIP3    H161688   0.598   2.887   0.448  2.7477 -0.2471  1.2683
13399TIP3    H261689   0.574   2.751   0.509 -2.0851 -0.5266 -0.7705
13400TIP3   OH261690   1.366   2.185  14.873 -0.2013  0.4522 -0.2709
13400TIP3    H161691   1.414   2.136  14.940  0.4121 -0.0884 -1.0849
13400TIP3    H261692   1.358   2.273  14.908  0.0674  0.1623  0.5333
13401TIP3   OH261693   2.951   0.526  16.095 -0.2409  0.3993 -0.6426
13401TIP3    H161694   2.902   0.572  16.027 -0.4378  1.5999  0.2722
13401TIP3    H261695   2.952   0.587  16.169 -1.7133 -1.6095  1.1615
13402TIP3   OH261696   6.765   2.177  11.972 -0.2455 -0.3506  0.2359
13402TIP3    H161697   6.741   2.086  11.952  0.4346 -0.3525 -0.6491
13402TIP3    H261698   6.836   2.197  11.910  0.1698  0.5160  0.9707
13403TIP3   OH261699   0.546   0.046   1.495  0.1504  0.4252  0.0432
13403TIP3    H161700   0.488   0.112   1.533 -1.9404 -1.2334 -0.1387
13403TIP3    H261701   0.559  -0.018   1.565  0.6499  0.0702 -0.3610
13404TIP3   OH261702   4.650   2.787   2.284 -0.2454 -0.3436  0.4627
13404TIP3    H161703   4.736   2.754   2.260 -0.4235 -0.4393 -0.0618
13404TIP3    H261704   4.601   2.708   2.308 -1.0617 -0.6699 -2.0038
13405TIP3   OH261705   0.161   3.862  13.828 -0.1404 -0.0874  0.0466
13405TIP3    H161706   0.125   3.773  13.823  1.5787 -0.8024 -0.0580
13405TIP3    H261707   0.161   3.883  13.922 -0.2894 -0.3076  0.0966
13406TIP3   OH261708   2.926   4.868  15.913 -0.1256  0.0174 -0.0933
13406TIP3    H161709   2.834   4.846  15.900 -0.7435  0.6467  2.6191
13406TIP3    H261710   2.941   4.944  15.857 -1.3025 -0.0009 -0.4555
13407TIP3   OH261711   1.504   5.209  13.719 -0.4115 -0.6833 -0.4660
13407TIP3    H161712   1.429   5.236  13.667 -0.2024 -0.2010 -0.5244
13407TIP3    H261713   1.559   5.287  13.725 -0.0740 -0.9380 -0.1475
13408TIP3   OH261714   4.411   5.358   3.572  0.1045  0.0356  0.2450
13408TIP3    H161715   4.459   5.344   3.653 -0.1799 -0.3334  0.3488
13408TIP3    H261716   4.376   5.447   3.580 -0.0248 -0.0441  0.5821
13409TIP3   OH261717   6.097   3.233  15.993 -0.0210  0.3715  0.4559
13409TIP3    H161718   6.118   3.295  16.063  0.7091 -0.6927  1.2088
13409TIP3    H261719   6.102   3.147  16.035  0.0669 -0.2688 -0.8210
13410TIP3   OH261720   5.479   2.555  10.377 -0.2942 -0.5792 -0.0180
13410TIP3    H161721   5.552   2.560  10.315 -0.3608 -0.3552 -0.0768
13410TIP3    H261722   5.485   2.466  10.413  0.2792 -0.4068  0.3138
13411TIP3   OH261723   2.726   4.460   4.533  0.0770 -0.2153 -0.1188
13411TIP3    H161724   2.806   4.455   4.480 -0.3471 -2.0467 -0.6574
13411TIP3    H261725   2.734   4.387   4.595 -1.7078 -1.2678 -1.0333
13412TIP3   OH261726   6.269   4.878  14.655 -0.2792 -0.3525  0.5515
13412TIP3    H161727   6.293   4.965  14.686 -1.1149 -0.4248  1.4676
13412TIP3    H261728   6.174   4.881  14.648 -0.1754 -0.5623 -1.4301
13413TIP3   OH261729   5.082   6.373   1.571 -0.3414 -0.0078  0.2017
13413TIP3    H161730   5.175   6.360   1.554 -0.2910  0.5851 -0.0087
13413TIP3    H261731   5.077   6.384   1.666  0.0824  1.9342  0.0443
13414TIP3   OH261732   4.239   4.608   6.521  0.0297 -0.4064 -0.2228
13414TIP3    H161733   4.304   4.543   6.494 -0.0594 -0.4074 -0.4369
13414TIP3    H261734   4.264   4.631   6.610  0.3721 -0.3468 -0.3325
13415TIP3   OH261735   5.356   6.224  15.591  0.0105  0.2408  0.0020
13415TIP3    H161736   5.313   6.215  15.506  0.2711 -1.2254  0.0026
13415TIP3    H261737   5.440   6.265  15.572 -0.5425  1.2769 -0.2495
13416TIP3   OH261738   2.999   5.773   0.378  0.0791 -0.0036  0.2032
13416TIP3    H161739   2.986   5.757   0.285  0.2115 -0.9748  0.3412
13416TIP3    H261740   3.034   5.862   0.383  0.6746 -0.1772 -0.7187
13417TIP3   OH261741   0.104   4.616   2.023 -0.4411  0.8207  0.3277
13417TIP3    H161742   0.077   4.526   2.044 -2.7846  1.5187  0.6256
13417TIP3    H261743   0.199   4.613   2.024 -0.4102 -1.9536 -0.9360
13418TIP3   OH261744   2.286   4.799  15.852 -0.0395 -0.3852 -0.2518
13418TIP3    H161745   2.289   4.892  15.874  1.4345  0.1466 -2.3632
13418TIP3    H261746   2.213   4.765  15.903 -2.0273  2.3843 -0.9650
13419TIP3   OH261747   3.914   4.142  15.637  0.0045  0.4833 -0.5230
13419TIP3    H161748   4.000   4.127  15.678  0.3217 -1.1681 -1.6907
13419TIP3    H261749   3.871   4.205  15.695  1.4292  0.2193  0.9090
13420TIP3   OH261750   5.488   2.569  13.902 -0.6656 -0.1686  0.1172
13420TIP3    H161751   5.549   2.642  13.913  1.4836 -2.0892  1.9105
13420TIP3    H261752   5.447   2.559  13.988 -1.1953 -0.8609 -0.2065
13421TIP3   OH261753   0.081   0.293   3.247  0.5034 -0.2338 -0.0546
13421TIP3    H161754   0.016   0.339   3.194 -0.3803 -0.4561  0.8273
13421TIP3    H261755   0.148   0.360   3.265 -0.2003  0.4059  0.2512
13422TIP3   OH261756   3.643   2.293  16.977  0.4671 -0.5035  0.3686
13422TIP3    H161757   3.599   2.371  16.945  1.1172  0.7320  2.2986
13422TIP3    H261758   3.693   2.260  16.903 -0.3381  0.5301 -0.6560
13423TIP3   OH261759   2.173   1.333  11.273  0.3563 -0.2419  0.7361
13423TIP3    H161760   2.197   1.308  11.184  1.2732  0.0264  0.9021
13423TIP3    H261761   2.256   1.344  11.319 -0.1062 -0.6329  1.7047
13424TIP3   OH261762   4.904   2.261  14.164  0.0928  0.5380  0.0270
13424TIP3    H161763   4.843   2.328  14.133  0.9903  1.2060 -0.3549
13424TIP3    H261764   4.984   2.309  14.186  0.6966 -0.3871 -0.0707
13425TIP3   OH261765   5.648   3.757  15.073  0.2392 -0.3696 -0.1550
13425TIP3    H161766   5.608   3.775  14.988 -1.7379 -2.5870  0.2330
13425TIP3    H261767   5.578   3.770  15.136  0.4830 -2.7820  0.7040
13426TIP3   OH261768   1.918   5.711   5.156  0.0046  0.5671 -1.0888
13426TIP3    H161769   1.857   5.756   5.097  0.0832  3.0095  0.5820
13426TIP3    H261770   1.870   5.703   5.238  2.0942  3.3431  0.5471
13427TIP3   OH261771   3.956   6.042   2.041 -0.0238  0.7093 -0.6063
13427TIP3    H161772   3.991   6.044   1.952  1.3445  2.3566 -0.0978
13427TIP3    H261773   3.889   6.111   2.042 -0.9446 -0.1625 -0.6733
13428TIP3   OH261774   0.464   1.671  12.891  0.2817  0.4875 -0.6022
13428TIP3    H161775   0.510   1.642  12.969  1.8871  0.2377 -1.6128
13428TIP3    H261776   0.385   1.616  12.888  0.7819 -0.2977  0.2052
13429TIP3   OH261777   0.888   4.766   1.072  0.8874  0.2409  0.2041
13429TIP3    H161778   0.956   4.807   1.017 -0.8996  1.3474 -1.3154
13429TIP3    H261779   0.879   4.678   1.036  3.3994 -0.9701  2.2430
13430TIP3   OH261780   6.571   2.248  14.683 -0.1820 -0.4228  0.6094
13430TIP3    H161781   6.482   2.281  14.688 -0.0641 -0.0247  0.1771
13430TIP3    H261782   6.617   2.293  14.754  0.2825  1.3560 -0.7368
13431TIP3   OH261783   6.435   0.266   3.851  0.0032  0.0372 -0.5570
13431TIP3    H161784   6.493   0.220   3.911 -1.9538 -0.7535  0.8616
13431TIP3    H261785   6.439   0.216   3.770  1.7302  0.3790 -0.7093
13432TIP3   OH261786   1.618   1.162   0.366  0.5539  0.3646 -0.5489
13432TIP3    H161787   1.524   1.163   0.380  0.4866  0.3522 -0.9660
13432TIP3    H261788   1.649   1.084   0.412  0.2938  0.1180 -0.7876
13433TIP3   OH261789   0.021   1.780  15.463  0.1804 -0.4334  0.0051
13433TIP3    H161790   0.004   1.702  15.410 -0.5365  0.2582 -0.8042
13433TIP3    H261791   0.032   1.746  15.552  1.5561 -1.6279 -0.5914
13434TIP3   OH261792   6.476   4.358   5.031  0.7149  0.4081 -0.3596
13434TIP3    H161793   6.544   4.309   5.078  0.3168 -0.0883 -0.3050
13434TIP3    H261794   6.431   4.408   5.100 -1.4642 -2.1431  0.2256
13435TIP3   OH261795   6.648   6.691   1.516  0.5050 -0.5423  0.0440
13435TIP3    H161796   6.723   6.661   1.465  1.2319  0.3102  0.5971
13435TIP3    H261797   6.666   6.662   1.605  0.9219  0.9795  0.4709
13436TIP3   OH261798   4.157   4.487  12.019 -0.2284 -0.7359  0.0232
13436TIP3    H161799   4.115   4.413  12.064  1.9681 -2.0437  0.0473
13436TIP3    H261800   4.171   4.552  12.087  2.5622 -2.4719  1.2912
13437TIP3   OH261801   6.414   2.042   3.753 -0.5583  0.1169 -0.0275
13437TIP3    H161802   6.448   1.984   3.821 -0.0734  1.1014  0.5953
13437TIP3    H261803   6.468   2.022   3.676 -1.2600 -1.1603 -0.2075
13438TIP3   OH261804   3.692   1.936   0.266  0.2680  0.3793 -0.0513
13438TIP3    H161805   3.784   1.942   0.240  0.7512  0.2722  1.5040
13438TIP3    H261806   3.682   1.846   0.296 -0.3486  0.3841 -0.2483
13439TIP3   OH261807   2.136   4.762   3.069 -0.1031  0.3786  0.3619
13439TIP3    H161808   2.114   4.715   2.988  2.5424  0.3916 -0.4892
13439TIP3    H261809   2.070   4.830   3.077 -1.2180 -0.4900 -1.0363
13440TIP3   OH261810   0.386   0.500   5.784  0.0996  0.0243 -0.2555
13440TIP3    H161811   0.368   0.502   5.690  0.7756 -1.5374 -0.4551
13440TIP3    H261812   0.299   0.494   5.824 -0.1899  0.5635 -0.7853
13441TIP3   OH261813   1.845   2.735  13.895  0.7123  0.5294  0.4012
13441TIP3    H161814   1.805   2.781  13.968 -0.6644  2.0579 -1.2375
13441TIP3    H261815   1.879   2.804  13.838  1.5053 -0.6039 -0.5552
13442TIP3   OH261816   0.999   0.332  11.724 -0.2177  0.5328  0.6729
13442TIP3    H161817   1.009   0.238  11.706 -0.3032  0.6758 -0.1616
13442TIP3    H261818   0.921   0.357  11.675 -0.5466  0.9205  1.3810
13443TIP3   OH261819   1.266   6.242  12.125 -0.5829  0.5046  0.2003
13443TIP3    H161820   1.200   6.311  12.113 -1.7458 -0.6781 -0.4294
13443TIP3    H261821   1.240   6.174  12.063  0.8171 -0.3115  0.4880
13444TIP3   OH261822   4.106   2.638   5.782  0.2252  0.6146 -0.0767
13444TIP3    H161823   4.085   2.545   5.776 -0.7766  0.9095 -1.8706
13444TIP3    H261824   4.196   2.645   5.751  0.7665  0.1281  1.2974
13445TIP3   OH261825   6.448   5.481  14.295 -0.0366  0.0700 -0.0520
13445TIP3    H161826   6.370   5.427  14.309 -0.3785  0.4980 -0.3064
13445TIP3    H261827   6.424   5.540  14.223  0.0578  1.0992  0.7419
13446TIP3   OH261828   4.664   0.118  12.077  0.5817 -0.1800  0.0519
13446TIP3    H161829   4.603   0.184  12.109  1.0794 -0.5490  1.8349
13446TIP3    H261830   4.722   0.101  12.150  2.0603 -0.7556 -1.2065
13447TIP3   OH261831   1.760   3.112  13.007  0.3265  0.2318  0.0785
13447TIP3    H161832   1.704   3.124  13.084  0.7872  1.1160  0.2784
13447TIP3    H261833   1.807   3.194  12.998 -0.7669  0.6966 -2.0204
13448TIP3   OH261834   1.103   0.183  14.620  0.2140 -0.4053  0.1692
13448TIP3    H161835   1.169   0.138  14.567  1.1940 -0.3523  1.2954
13448TIP3    H261836   1.030   0.198  14.560 -0.4464 -4.0333 -0.1550
13449TIP3   OH261837   3.201   1.656   2.110 -0.1496  0.0529 -0.2773
13449TIP3    H161838   3.263   1.726   2.090  0.1864 -0.2712 -0.3694
13449TIP3    H261839   3.157   1.685   2.190  0.8507 -0.1956  0.3827
13450TIP3   OH261840   5.212   1.040   4.446 -0.1528  0.5959  0.3036
13450TIP3    H161841   5.300   1.076   4.430  0.7527 -1.6896 -0.2083
13450TIP3    H261842   5.172   1.103   4.506  2.4319  0.9224  1.8666
13451TIP3   OH261843   3.524   3.065   3.359 -0.0471  0.0883 -0.6207
13451TIP3    H161844   3.600   3.123   3.349  0.0522 -0.0295 -0.5433
13451TIP3    H261845   3.449   3.125   3.361 -0.0555  0.1444 -1.8254
13452TIP3   OH261846   4.214   4.725   4.207  0.1759  0.0181 -0.1933
13452TIP3    H161847   4.120   4.739   4.213 -0.1640 -2.2706  1.1973
13452TIP3    H261848   4.254   4.807   4.237 -1.3214  1.1208 -1.0927
13453TIP3   OH261849   1.938   2.269  14.461  0.2068 -0.5554  0.1750
13453TIP3    H161850   1.843   2.275  14.456  0.2741 -0.1886 -0.9004
13453TIP3    H261851   1.961   2.191  14.410  0.5343 -0.1196 -0.3633
13454TIP3   OH261852   4.827   4.047  14.546 -0.6977  0.3589  0.0521
13454TIP3    H161853   4.877   4.081  14.473 -1.8998  2.7780  0.2706
13454TIP3    H261854   4.750   4.006  14.506 -0.4524  0.0294 -0.0924
13455TIP3   OH261855   5.316   6.150   2.398 -0.4276 -0.2265 -0.2978
13455TIP3    H161856   5.314   6.204   2.477 -0.7673 -1.5851  0.6510
13455TIP3    H261857   5.409   6.140   2.378 -0.2816 -1.0654  0.7737
13456TIP3   OH261858   0.364   3.931  13.427  0.2771 -0.0783  0.4206
13456TIP3    H161859   0.296   3.864  13.428  0.2338 -0.0332  1.2600
13456TIP3    H261860   0.324   4.007  13.468  0.3878  0.4031 -0.3619
13457TIP3   OH261861   2.856   5.942  15.902 -0.1024  0.2536  0.1465
13457TIP3    H161862   2.856   6.036  15.922  0.0768  0.3985 -0.5073
13457TIP3    H261863   2.766   5.924  15.873 -1.0854 -0.4607  3.2391
13458TIP3   OH261864   2.788   1.858  13.419  0.1669 -0.4845  0.4910
13458TIP3    H161865   2.771   1.849  13.512  0.0287 -0.3075  0.4832
13458TIP3    H261866   2.793   1.953  13.404 -4.8942 -0.0971 -0.5557
13459TIP3   OH261867   6.805   4.176  14.210  0.0377  0.2489 -0.3311
13459TIP3    H161868   6.844   4.253  14.168 -0.3789 -0.2547 -1.6635
13459TIP3    H261869   6.840   4.178  14.299  1.6060  0.8639 -0.9278
13460TIP3   OH261870   3.502   0.645  11.355 -0.2760  0.3397  0.3779
13460TIP3    H161871   3.488   0.630  11.448  0.3859  2.7643  0.9369
13460TIP3    H261872   3.492   0.559  11.315  0.0129 -0.8698  2.7472
13461TIP3   OH261873   1.938   4.067  10.750 -0.1748 -0.1353 -0.3044
13461TIP3    H161874   1.842   4.067  10.751 -0.2481 -2.7989 -0.6922
13461TIP3    H261875   1.962   3.979  10.721  2.4092  0.6568 -0.8275
13462TIP3   OH261876   3.031   4.824   1.113  0.1678 -0.2090  0.1534
13462TIP3    H161877   2.977   4.887   1.065  1.1455 -0.6613 -1.6103
13462TIP3    H261878   3.077   4.877   1.178 -1.1693  0.4289  0.6215
13463TIP3   OH261879   2.077   1.226   2.125 -0.0122  0.0067 -0.5563
13463TIP3    H161880   2.046   1.317   2.124  1.9855  0.7501  0.2492
13463TIP3    H261881   2.151   1.226   2.064  1.4333 -0.4968  1.1319
13464TIP3   OH261882   3.896   1.697  15.574 -0.2932  0.1682 -0.5681
13464TIP3    H161883   3.885   1.611  15.535  1.2321  0.0006 -0.6732
13464TIP3    H261884   3.835   1.697  15.648 -1.1258 -0.5673 -1.2334
13465TIP3   OH261885   4.326   0.244   2.950  0.1622  0.4336 -0.1344
13465TIP3    H161886   4.324   0.181   2.878  0.3482  0.2809 -0.0068
13465TIP3    H261887   4.410   0.290   2.940  1.0299 -0.8158  1.0239
13466TIP3   OH261888   6.005   6.400  11.267 -0.0804  0.0457  0.3928
13466TIP3    H161889   5.959   6.435  11.191 -0.1628 -0.4598  0.2064
13466TIP3    H261890   6.025   6.476  11.321  1.4172  0.6069 -0.8979
13467TIP3   OH261891   3.765   4.057  11.690 -0.0726 -0.3564 -0.3655
13467TIP3    H161892   3.782   3.963  11.695 -0.4990 -0.3967  0.4764
13467TIP3    H261893   3.805   4.093  11.769  1.3514  0.3914 -1.3784
13468TIP3   OH261894   2.561   2.464   3.647 -0.1285 -0.2154  0.2819
13468TIP3    H161895   2.599   2.403   3.584  1.0535  1.6017 -0.8611
13468TIP3    H261896   2.488   2.415   3.687  1.0250 -2.4895 -0.2250
13469TIP3   OH261897   0.113   3.018  15.557 -0.2474  0.1080  0.5541
13469TIP3    H161898   0.133   2.946  15.498 -0.8547  0.1998  0.2345
13469TIP3    H261899   0.078   2.976  15.635  1.5682 -0.0931  1.3157
13470TIP3   OH261900   0.856   1.095  17.106  0.0072  0.2227 -1.0132
13470TIP3    H161901   0.768   1.076  17.137  1.3180 -1.4458  2.0844
13470TIP3    H261902   0.863   1.191  17.111 -1.5353  0.3725 -1.1840
13471TIP3   OH261903   4.041   4.046   1.781  0.5570  0.4536  0.0473
13471TIP3    H161904   4.049   4.046   1.685  0.3506 -1.2703  0.0060
13471TIP3    H261905   3.947   4.033   1.797  0.3459  2.2539  0.5190
13472TIP3   OH261906   2.712   2.134   5.492 -0.5823 -0.0484 -0.4514
13472TIP3    H161907   2.715   2.092   5.578 -0.7701  0.5570 -0.1468
13472TIP3    H261908   2.786   2.194   5.492 -1.1717  0.6886 -0.3263
13473TIP3   OH261909   5.011   4.552   3.211 -0.0112  0.3569 -1.0498
13473TIP3    H161910   4.957   4.602   3.273  0.0494  1.5918 -1.9627
13473TIP3    H261911   5.071   4.616   3.174 -0.4405 -0.2197 -2.8381
13474TIP3   OH261912   6.656   6.039  13.735  0.3370  0.4125 -0.2290
13474TIP3    H161913   6.692   5.953  13.715 -0.9887 -0.6173  1.4877
13474TIP3    H261914   6.710   6.100  13.685  1.8331 -1.3346 -0.8656
13475TIP3   OH261915   3.501   3.424  15.278 -0.2603  0.5640  0.1377
13475TIP3    H161916   3.486   3.355  15.213 -0.9908  1.1293 -0.3199
13475TIP3    H261917   3.565   3.387  15.339  1.6546  0.5341 -1.7461
13476TIP3   OH261918   5.033   5.841  15.104 -0.7116  0.6100  0.0706
13476TIP3    H161919   4.942   5.812  15.105 -0.4902 -0.1637  2.2418
13476TIP3    H261920   5.040   5.901  15.178  0.5829  0.5533  0.0125
13477TIP3   OH261921   5.000   3.534   5.484  0.5200  0.0402  0.5949
13477TIP3    H161922   5.000   3.461   5.546  1.4371  0.4544  1.0988
13477TIP3    H261923   4.915   3.577   5.499 -0.3398 -1.3049 -0.2092
13478TIP3   OH261924   4.864   6.582  14.843  0.4463  0.3757  0.0198
13478TIP3    H161925   4.899   6.561  14.929  0.0375  0.9418  0.3251
13478TIP3    H261926   4.875   6.676  14.834  0.8924  0.2618 -0.7339
13479TIP3   OH261927   1.329   6.398   3.879  0.9182 -0.3560  0.3846
13479TIP3    H161928   1.319   6.384   3.785  0.3411  0.3130  0.3388
13479TIP3    H261929   1.242   6.380   3.915  0.8856  0.3278  0.6630
13480TIP3   OH261930   4.542   4.880   1.856  0.2189  0.3736 -0.6997
13480TIP3    H161931   4.500   4.945   1.912 -1.7056 -2.2694  1.1972
13480TIP3    H261932   4.615   4.927   1.815  0.2441  3.1536  2.1225
13481TIP3   OH261933   2.480   3.357  11.798 -0.5567 -0.1633  0.2385
13481TIP3    H161934   2.522   3.443  11.806 -1.5011  0.2099  1.4501
13481TIP3    H261935   2.394   3.375  11.760 -0.5838 -0.6353  0.0664
13482TIP3   OH261936   5.792   0.078  15.641 -0.2550 -0.0327  0.8685
13482TIP3    H161937   5.843   0.003  15.611 -0.9859  0.8381 -3.0400
13482TIP3    H261938   5.709   0.040  15.671  0.7430 -1.0111  2.5233
13483TIP3   OH261939   1.805   5.122   2.028 -0.5164  0.0041 -0.0574
13483TIP3    H161940   1.859   5.124   2.107 -2.0258 -0.7894  1.0317
13483TIP3    H261941   1.865   5.147   1.958  1.5617 -1.8926  0.9321
13484TIP3   OH261942   4.801   3.590  16.637 -0.1488  0.1256 -0.0285
13484TIP3    H161943   4.802   3.494  16.636 -2.7531  0.0061  1.2688
13484TIP3    H261944   4.871   3.613  16.698  1.8500 -0.7834 -1.8241
13485TIP3   OH261945   0.435   3.510   2.747 -0.3899 -0.2969 -0.7760
13485TIP3    H161946   0.396   3.426   2.723 -3.4270 -0.2728  2.9897
13485TIP3    H261947   0.504   3.487   2.809 -3.3846 -0.2525  2.9227
13486TIP3   OH261948   5.572   2.469   1.722  0.6761 -0.6743  0.1942
13486TIP3    H161949   5.499   2.422   1.683 -0.1315 -1.6592  2.7026
13486TIP3    H261950   5.650   2.428   1.685 -0.0176 -0.7692 -1.2143
13487TIP3   OH261951   2.183   5.831  12.824  0.4266  0.0941 -0.6897
13487TIP3    H161952   2.221   5.835  12.911 -1.2463  1.5870  0.0433
13487TIP3    H261953   2.098   5.788  12.837 -0.1608  0.9876 -1.4432
13488TIP3   OH261954   4.970   3.333  16.174 -0.1230 -0.3750  0.1721
13488TIP3    H161955   4.960   3.256  16.229 -0.4467 -0.8797 -0.5849
13488TIP3    H261956   4.952   3.407  16.233  1.3118 -0.7863  1.1801
13489TIP3   OH261957   0.603   5.637   4.381  0.3444 -0.5846 -0.3958
13489TIP3    H161958   0.610   5.720   4.335  1.7014 -0.4748 -0.0549
13489TIP3    H261959   0.664   5.579   4.334 -1.5741 -1.8298 -1.4798
13490TIP3   OH261960   1.444   0.635  11.628 -0.9051  0.2691 -0.0656
13490TIP3    H161961   1.398   0.572  11.684 -0.4096 -0.9704 -0.9973
13490TIP3    H261962   1.537   0.615  11.642 -0.7637  0.3147 -0.9004
13491TIP3   OH261963   0.730   1.457  16.468  0.1283 -0.8625  0.1497
13491TIP3    H161964   0.678   1.490  16.395  1.0929 -1.1438 -0.6960
13491TIP3    H261965   0.816   1.498  16.455  0.5138 -1.4873  0.7176
13492TIP3   OH261966   3.639   3.840  14.261  0.6055 -0.1118 -0.2618
13492TIP3    H161967   3.641   3.836  14.165 -0.6745  0.2525 -0.3260
13492TIP3    H261968   3.691   3.917  14.283 -2.0983  2.0352 -0.9147
13493TIP3   OH261969   3.620   4.107  16.771 -0.4905 -0.5379 -0.1400
13493TIP3    H161970   3.581   4.194  16.782 -2.1362 -1.0765 -1.2346
13493TIP3    H261971   3.550   4.046  16.794 -0.1236 -1.5620 -1.5680
13494TIP3   OH261972   2.205   6.183   4.235 -0.5486  0.4900 -0.1750
13494TIP3    H161973   2.215   6.168   4.141 -0.5554  0.4382 -0.1676
13494TIP3    H261974   2.295   6.193   4.267 -0.5226  0.1085 -0.1210
13495TIP3   OH261975   5.161   3.214   4.679  0.7406 -0.0437 -0.0191
13495TIP3    H161976   5.124   3.129   4.659 -0.4407  0.8519 -2.0156
13495TIP3    H261977   5.090   3.276   4.662  1.8036  1.3995  0.5864
13496TIP3   OH261978   1.475   2.039   2.890 -0.3642  0.4565  0.3172
13496TIP3    H161979   1.568   2.038   2.871 -0.3070 -0.8039  0.6056
13496TIP3    H261980   1.433   2.046   2.804 -0.0189  0.0715  0.1169
13497TIP3   OH261981   4.645   4.998  17.095  0.5783 -0.2304 -0.3377
13497TIP3    H161982   4.730   5.037  17.112  1.0099 -0.5448 -1.6554
13497TIP3    H261983   4.582   5.066  17.119  1.2083  0.1724  0.1951
13498TIP3   OH261984   6.542   5.339   1.683 -0.4375  0.4084  0.1830
13498TIP3    H161985   6.466   5.310   1.633 -0.8220  1.1709  0.3097
13498TIP3    H261986   6.556   5.430   1.656  2.8801 -0.7797 -2.8506
13499TIP3   OH261987   0.694   2.441  14.875  0.1373 -0.2092  0.2763
13499TIP3    H161988   0.726   2.376  14.812 -0.4366  1.0642 -1.3960
13499TIP3    H261989   0.746   2.425  14.954  3.7173  0.6205 -1.7064
13500TIP3   OH261990   1.525   0.383  14.480  0.0003 -0.2274 -0.2125
13500TIP3    H161991   1.497   0.333  14.557 -0.1714 -1.8608 -1.3034
13500TIP3    H261992   1.603   0.337  14.449  1.2191  1.5497  0.0791
13501TIP3   OH261993   3.826   2.813  12.776  0.3358 -0.7803 -0.5964
13501TIP3    H161994   3.863   2.738  12.822  0.9422 -1.1958 -1.7133
13501TIP3    H261995   3.757   2.846  12.834 -0.7396 -2.9061 -0.5725
13502TIP3   OH261996   1.520   1.462  13.564 -0.2990 -0.1088 -0.0824
13502TIP3    H161997   1.565   1.398  13.619  0.9769  0.7575 -0.0805
13502TIP3    H261998   1.488   1.411  13.490 -2.1553 -1.3110  1.4674
13503TIP3   OH261999   0.440   6.770  14.293  0.0608  0.2331  0.1505
13503TIP3    H162000   0.401   6.857  14.302 -0.4121  0.1888 -1.1966
13503TIP3    H262001   0.510   6.782  14.229  0.6639 -0.1872  0.7154
13504TIP3   OH262002   1.456   4.421  11.524  0.1300 -0.0983 -0.1947
13504TIP3    H162003   1.444   4.330  11.496  0.1594 -0.6567  1.4862
13504TIP3    H262004   1.377   4.466  11.494 -0.2342 -0.8492 -0.3970
13505TIP3   OH262005   2.067   2.390  15.047 -0.2248 -0.1274  0.0163
13505TIP3    H162006   2.074   2.350  15.134  0.8374 -0.0860 -0.0291
13505TIP3    H262007   2.022   2.473  15.062 -0.1880 -0.1931  0.5058
13506TIP3   OH262008   0.677   2.114  11.448  0.0572 -0.0799 -0.2303
13506TIP3    H162009   0.615   2.129  11.520  0.7902 -0.3942  0.4776
13506TIP3    H262010   0.666   2.022  11.426  0.5807 -0.2475  0.1952
13507TIP3   OH262011   0.539   4.305   3.043  0.1958  0.0573  0.3165
13507TIP3    H162012   0.493   4.385   3.017  0.3720  0.3707  0.9519
13507TIP3    H262013   0.483   4.234   3.013  0.4179  0.3971 -0.9819
13508TIP3   OH262014   0.098   1.873   2.123 -0.5084  1.1677  0.2147
13508TIP3    H162015   0.091   1.784   2.156  1.1695  0.9938  0.1903
13508TIP3    H262016   0.031   1.879   2.055 -0.0395 -0.3693 -0.4173
13509TIP3   OH262017   6.344   5.497  15.962 -0.0918  0.4356 -0.4874
13509TIP3    H162018   6.316   5.433  15.896 -0.5369  2.3522 -2.2994
13509TIP3    H262019   6.427   5.464  15.995  0.4159 -0.3672 -2.4244
13510TIP3   OH262020   1.986   1.431  10.869 -0.1878 -0.5890 -0.2513
13510TIP3    H162021   1.916   1.484  10.831  1.4040  0.1710 -2.3632
13510TIP3    H262022   2.061   1.447  10.811  2.2397 -0.0469  2.8144
13511TIP3   OH262023   1.457   3.321  17.029  0.1929  0.3708  0.2887
13511TIP3    H162024   1.462   3.281  17.116 -1.1765  0.3733  0.3834
13511TIP3    H262025   1.364   3.338  17.016  0.4314  0.7390 -1.0186
13512TIP3   OH262026   2.124   5.651   6.446  0.0200 -0.1340 -0.2517
13512TIP3    H162027   2.049   5.591   6.439  0.4939 -0.5862 -2.0985
13512TIP3    H262028   2.199   5.593   6.455  0.1583  0.3268  2.0430
13513TIP3   OH262029   3.891   4.202   4.392  0.0493  0.9090  0.3009
13513TIP3    H162030   3.841   4.257   4.452 -3.3154  0.6950 -2.0087
13513TIP3    H262031   3.837   4.124   4.380  0.7873  0.6979 -2.4965
13514TIP3   OH262032   3.201   4.580   1.808 -0.2312  0.5420 -0.6547
13514TIP3    H162033   3.181   4.627   1.727  2.5807  4.3257  0.5513
13514TIP3    H262034   3.295   4.563   1.804  0.0381  0.9893  1.8003
13515TIP3   OH262035   3.016   3.427  10.911 -0.1669  0.2843 -0.1984
13515TIP3    H162036   3.072   3.491  10.869  1.0066 -1.7709 -1.9728
13515TIP3    H262037   3.046   3.425  11.002  2.7876 -0.7510 -1.0813
13516TIP3   OH262038   1.998   4.595  14.751 -0.0984  0.0144 -0.7362
13516TIP3    H162039   1.996   4.589  14.846 -0.1103 -1.1774 -0.7949
13516TIP3    H262040   1.950   4.675  14.731 -1.8946 -0.7732  0.1800
13517TIP3   OH262041   2.788   5.708   5.260  0.3338 -0.4706 -0.6178
13517TIP3    H162042   2.813   5.646   5.192 -0.3183 -0.0601 -1.2427
13517TIP3    H262043   2.749   5.781   5.213  1.6533  0.7207  0.0447
13518TIP3   OH262044   3.227   4.858   5.598 -0.6690 -0.5422 -0.5069
13518TIP3    H162045   3.179   4.903   5.528  0.5609  3.9406  1.1336
13518TIP3    H262046   3.181   4.884   5.678  1.1036 -0.9512  0.7001
13519TIP3   OH262047   3.419   4.598  17.111  0.1108 -0.6513 -0.1996
13519TIP3    H162048   3.451   4.607  17.200  1.5062  2.2468 -0.8756
13519TIP3    H262049   3.369   4.678  17.095 -0.2996 -1.1958 -1.9454
13520TIP3   OH262050   5.028   5.833  17.137 -0.2994 -0.3968 -0.1410
13520TIP3    H162051   4.965   5.763  17.124 -1.1543  0.2506  0.3327
13520TIP3    H262052   5.105   5.790  17.174 -0.4702 -1.1974 -0.6970
13521TIP3   OH262053   3.129   3.894  12.287 -0.2677  0.2343 -0.0107
13521TIP3    H162054   3.037   3.895  12.312 -0.4136  1.4398 -0.5460
13521TIP3    H262055   3.172   3.950  12.351  0.0470 -0.0894  0.0623
13522TIP3   OH262056   3.931   5.796   4.488 -0.2986  0.0542  0.4826
13522TIP3    H162057   3.856   5.847   4.455  0.7111  0.7856 -0.7743
13522TIP3    H262058   3.900   5.705   4.485 -0.9279  0.2764 -0.6762
13523TIP3   OH262059   3.758   4.481   1.486 -0.0992 -0.0565 -0.5044
13523TIP3    H162060   3.748   4.576   1.478 -2.5273 -0.3513 -1.9924
13523TIP3    H262061   3.831   4.459   1.429 -0.9139  0.7326 -1.9179
13524TIP3   OH262062   2.143   2.825  14.084  0.6833  0.1629  0.0690
13524TIP3    H162063   2.141   2.875  14.002  1.0518 -1.4973 -1.0104
13524TIP3    H262064   2.236   2.804  14.097  0.7376  1.1119  1.3944
13525TIP3   OH262065   1.587   6.659  12.340 -0.3957 -0.4056  0.2277
13525TIP3    H162066   1.634   6.739  12.318  0.9629 -1.1568  0.3241
13525TIP3    H262067   1.615   6.639  12.430 -1.0611 -0.7600  0.3630
13526TIP3   OH262068   4.895   3.961   4.619  0.6321 -0.7870 -0.2370
13526TIP3    H162069   4.880   3.904   4.544  0.5223 -1.5759  0.3795
13526TIP3    H262070   4.844   4.040   4.600 -1.0370 -1.7958 -0.0646
13527TIP3   OH262071   0.605   6.380  16.216  0.3112 -0.7433 -0.4685
13527TIP3    H162072   0.597   6.473  16.197  0.0014 -0.3538  1.3769
13527TIP3    H262073   0.693   6.371  16.254 -0.0387 -1.0100  0.3002
13528TIP3   OH262074   6.010   2.033   0.232 -0.4777 -0.0160 -0.1358
13528TIP3    H162075   6.103   2.019   0.214 -0.3643  0.5546 -0.0024
13528TIP3    H262076   5.985   1.957   0.285 -0.5418 -1.1275 -1.6795
13529TIP3   OH262077   3.352   3.200  14.294 -0.3395 -0.5683 -0.2773
13529TIP3    H162078   3.257   3.188  14.295 -0.5263  0.7850  0.2651
13529TIP3    H262079   3.371   3.243  14.377  0.1741  2.9288 -2.0075
13530TIP3   OH262080   5.171   4.998   4.220 -0.3755 -0.0883  0.1948
13530TIP3    H162081   5.080   4.997   4.248 -0.3440 -2.3094  0.3460
13530TIP3    H262082   5.179   4.927   4.156  1.5181 -0.8623  1.1948
13531TIP3   OH262083   6.105   0.254  15.528  0.2919 -0.3755  0.5310
13531TIP3    H162084   6.033   0.230  15.471  0.1973 -0.5089  0.7049
13531TIP3    H262085   6.063   0.295  15.604  0.3728 -0.7874  0.8003
13532TIP3   OH262086   1.233   2.227  16.053  0.2671  0.3196 -0.4955
13532TIP3    H162087   1.212   2.170  16.126 -0.3101  0.7026 -0.3524
13532TIP3    H262088   1.213   2.174  15.975 -0.1485  0.2772 -0.3645
13533TIP3   OH262089   1.216   5.447  11.538  0.2896  0.1543 -0.3746
13533TIP3    H162090   1.251   5.359  11.549 -0.1431  0.0634  0.3176
13533TIP3    H262091   1.163   5.441  11.458 -0.6260 -0.5100  0.2585
13534TIP3   OH262092   1.044   6.540   1.133  0.5806 -0.1176  0.1546
13534TIP3    H162093   1.056   6.608   1.066 -2.0663 -0.1712 -0.4891
13534TIP3    H262094   1.057   6.585   1.216  0.2606  0.8610 -0.3100
13535TIP3   OH262095   6.256   0.498  16.446  0.0409  0.1446 -0.3076
13535TIP3    H162096   6.323   0.431  16.459 -0.7069 -0.5567  0.0306
13535TIP3    H262097   6.221   0.480  16.358 -0.3103 -0.0661 -0.1319
13536TIP3   OH262098   3.117   1.540  16.080 -0.2508  0.5212  0.0873
13536TIP3    H162099   3.133   1.634  16.066  1.5626  0.3361  0.7085
13536TIP3    H262100   3.154   1.523  16.166  1.1832 -1.1641 -0.8164
13537TIP3   OH262101   6.822   5.790  13.367  0.1038 -0.3104 -0.4110
13537TIP3    H162102   6.741   5.749  13.337  0.0114  0.1790 -0.8218
13537TIP3    H262103   6.891   5.745  13.318  0.1782 -1.3719  0.5965
13538TIP3   OH262104   0.203   1.234   3.824 -0.0169 -0.5176 -0.0072
13538TIP3    H162105   0.174   1.325   3.820 -0.4291 -0.6188  0.6445
13538TIP3    H262106   0.268   1.227   3.753  0.5245  0.4633  0.3648
13539TIP3   OH262107   1.685   1.338  13.748 -0.2524 -0.0136 -0.0094
13539TIP3    H162108   1.697   1.433  13.745  0.4403 -0.1162 -1.4154
13539TIP3    H262109   1.773   1.303  13.730 -0.4981 -0.9286  0.5015
13540TIP3   OH262110   4.304   0.064  12.851  0.0509 -0.2588  0.7040
13540TIP3    H162111   4.228   0.007  12.843  1.6393 -2.4314  0.1875
13540TIP3    H262112   4.299   0.121  12.774 -3.0096  2.3714  2.5869
13541TIP3   OH262113   5.422   5.506  13.716 -0.1848  0.2255 -0.3154
13541TIP3    H162114   5.413   5.577  13.652  0.7071  0.1965 -0.4802
13541TIP3    H262115   5.502   5.461  13.691  1.0046  1.1017  1.6904
13542TIP3   OH262116   0.953   0.387  14.831 -0.3883 -0.1343  0.4136
13542TIP3    H162117   0.871   0.423  14.864 -0.2380  3.0052 -2.1900
13542TIP3    H262118   0.929   0.343  14.749  0.2510 -1.1959  0.7732
13543TIP3   OH262119   6.594   4.639   2.618  0.8978 -0.0904 -0.1638
13543TIP3    H162120   6.568   4.708   2.679 -0.0197 -0.2382 -0.3750
13543TIP3    H262121   6.597   4.560   2.672  0.5897 -0.1285 -0.1988
13544TIP3   OH262122   0.141   4.090   1.822  0.5054  0.3936  0.2886
13544TIP3    H162123   0.106   4.116   1.908 -0.6521  1.5487 -0.4967
13544TIP3    H262124   0.187   4.168   1.791 -0.0560  0.3748 -0.6137
13545TIP3   OH262125   5.889   6.631   3.973  0.0011  0.0264  0.5201
13545TIP3    H162126   5.904   6.601   4.062  1.7995 -1.3866 -0.2002
13545TIP3    H262127   5.801   6.668   3.974 -0.3416 -0.7494  2.6575
13546TIP3   OH262128   6.306   4.503  14.801  0.4276  0.2046 -0.5436
13546TIP3    H162129   6.373   4.454  14.754  2.0460 -0.5121  2.3326
13546TIP3    H262130   6.351   4.580  14.836  0.0555 -0.7394  2.1872
13547TIP3   OH262131   2.606   4.765   0.733 -0.0015 -0.4689  0.1570
13547TIP3    H162132   2.539   4.698   0.742  0.8182 -1.3704 -0.3747
13547TIP3    H262133   2.664   4.733   0.665  0.1240  1.0326 -0.4888
13548TIP3   OH262134   2.505   3.820  15.796  0.2726  0.0661 -0.3059
13548TIP3    H162135   2.471   3.741  15.838 -1.0960  1.1946  0.8188
13548TIP3    H262136   2.434   3.850  15.740 -0.1993  1.7993  1.1328
13549TIP3   OH262137   1.672   4.145   2.053 -0.3835 -0.6071 -0.2029
13549TIP3    H162138   1.592   4.159   2.001  0.0482 -0.8773 -0.9552
13549TIP3    H262139   1.677   4.050   2.064  0.9228 -0.7817 -1.9492
13550TIP3   OH262140   2.151   5.535  14.184  0.0279  0.5296  0.1238
13550TIP3    H162141   2.158   5.504  14.094 -1.7444 -0.2305  0.2149
13550TIP3    H262142   2.136   5.456  14.236 -1.5863  1.1870  0.7264
13551TIP3   OH262143   4.959   4.698   2.710  0.0653 -0.5442  0.1938
13551TIP3    H162144   4.953   4.641   2.633  0.9795 -0.5452  0.1211
13551TIP3    H262145   4.984   4.639   2.781  0.1946 -0.3700  0.2917
13552TIP3   OH262146   0.189   1.670   5.205  0.2555  0.2995  0.4613
13552TIP3    H162147   0.149   1.694   5.289 -0.8033 -2.4299  0.8488
13552TIP3    H262148   0.119   1.625   5.158  1.4501 -0.0534 -1.0442
13553TIP3   OH262149   4.161   1.289  15.814 -0.1462 -0.0024 -0.2856
13553TIP3    H162150   4.174   1.381  15.791 -1.0188 -0.2528 -1.9660
13553TIP3    H262151   4.066   1.281  15.823 -0.0484 -0.6795  0.1326
13554TIP3   OH262152   1.891   2.533   2.326 -0.2134 -0.0635  0.1099
13554TIP3    H162153   1.943   2.517   2.247 -0.0631 -2.2343  0.5900
13554TIP3    H262154   1.927   2.614   2.362  2.7983 -1.3700  0.3243
13555TIP3   OH262155   0.196   2.986   3.196 -0.1000  0.4831  0.2251
13555TIP3    H162156   0.225   2.986   3.105  2.9821  1.6282  1.0839
13555TIP3    H262157   0.215   2.897   3.227 -2.7265 -0.4521 -0.5830
13556TIP3   OH262158   5.311   4.104  13.221 -0.0185  0.6091  0.2609
13556TIP3    H162159   5.375   4.113  13.292  0.9154 -1.0870 -0.3231
13556TIP3    H262160   5.364   4.091  13.143 -1.0605 -0.3159 -0.3126
13557TIP3   OH262161   0.675   3.075  15.569 -0.0298  0.1970  0.4772
13557TIP3    H162162   0.684   3.049  15.477 -3.1410 -0.7384  0.2900
13557TIP3    H262163   0.701   2.997  15.618 -0.3875 -0.0532  0.2774
13558TIP3   OH262164   4.608   5.619   1.938 -0.3223  0.0747  0.5031
13558TIP3    H162165   4.645   5.533   1.959 -2.4746 -0.7219  1.4372
13558TIP3    H262166   4.553   5.603   1.861  0.8466  1.1031 -0.5800
13559TIP3   OH262167   4.132   3.000   0.966 -0.0167  0.3518 -0.1119
13559TIP3    H162168   4.196   3.046   0.912  1.1310 -0.4388  0.5126
13559TIP3    H262169   4.132   3.047   1.049 -0.5374  0.5700 -0.2312
13560TIP3   OH262170   6.331   6.645   4.447 -0.0471 -0.2189 -0.4040
13560TIP3    H162171   6.361   6.695   4.371 -0.3703 -0.3464 -0.6200
13560TIP3    H262172   6.236   6.639   4.436 -0.0710 -0.4338 -0.1090
13561TIP3   OH262173   5.304   5.636  11.107 -0.2103 -0.2796 -0.0666
13561TIP3    H162174   5.386   5.681  11.089  0.4938 -1.4914 -0.0230
13561TIP3    H262175   5.259   5.691  11.171  0.4255  0.5603 -0.3368
13562TIP3   OH262176   4.252   0.995  15.243 -0.0865 -0.0357  0.2967
13562TIP3    H162177   4.188   1.053  15.285  1.1642  0.4916  1.5450
13562TIP3    H262178   4.219   0.985  15.154 -0.6600  2.1473  0.1981
13563TIP3   OH262179   2.669   3.513  15.152 -0.8886  0.2442 -0.2248
13563TIP3    H162180   2.631   3.429  15.126 -0.7471  0.5185 -1.3934
13563TIP3    H262181   2.685   3.504  15.246 -1.0042 -0.9894 -0.2996
13564TIP3   OH262182   1.627   0.490  15.099  0.6070 -0.9871 -0.0199
13564TIP3    H162183   1.635   0.560  15.164 -0.8663 -0.6107 -0.2140
13564TIP3    H262184   1.564   0.523  15.036  1.1554 -1.8266 -1.0320
13565TIP3   OH262185   2.490   0.159  11.478 -0.5302 -0.4665  0.1329
13565TIP3    H162186   2.437   0.177  11.400 -1.1449 -0.0768  0.6268
13565TIP3    H262187   2.480   0.066  11.494  0.5672 -0.7839 -0.9419
13566TIP3   OH262188   2.541   3.651  11.844 -0.1714  0.4021 -0.2033
13566TIP3    H162189   2.535   3.658  11.939  0.6385  1.6529 -0.2193
13566TIP3    H262190   2.624   3.693  11.822 -1.0132  1.4417 -1.5769
13567TIP3   OH262191   2.467   0.256  12.174 -0.2427  0.3595 -0.0169
13567TIP3    H162192   2.418   0.195  12.231 -0.3968  0.1325 -0.3906
13567TIP3    H262193   2.428   0.244  12.088 -1.4101  2.2060  0.2142
13568TIP3   OH262194   3.536   5.078  13.425  0.1829  0.3959 -0.3782
13568TIP3    H162195   3.498   5.155  13.383  1.4520  0.6200 -1.1953
13568TIP3    H262196   3.464   5.039  13.474 -1.5733 -0.1338 -3.1295
13569TIP3   OH262197   0.650   3.441   3.949  0.3540 -0.3531 -1.0686
13569TIP3    H162198   0.624   3.448   3.857  2.4521  0.4626 -1.6670
13569TIP3    H262199   0.738   3.479   3.952  0.3328 -0.3200  1.2999
13570TIP3   OH262200   3.728   1.610  10.380  0.2874 -0.0944  0.9479
13570TIP3    H162201   3.657   1.674  10.378  1.4454  1.3012  1.7044
13570TIP3    H262202   3.796   1.653  10.432  1.3211 -1.7603  1.0318
13571TIP3   OH262203   6.283   1.288  16.522  0.5692 -0.5047 -0.6660
13571TIP3    H162204   6.304   1.200  16.551  0.1358 -0.8406 -1.3412
13571TIP3    H262205   6.187   1.291  16.519  0.5492  0.2828  0.2194
13572TIP3   OH262206   6.593   5.074  16.570  0.1039  0.4364  0.6869
13572TIP3    H162207   6.566   5.162  16.597 -1.0402  0.7573 -1.3443
13572TIP3    H262208   6.629   5.085  16.482  0.5382 -1.0530  0.6404
13573TIP3   OH262209   2.956   2.003  13.115 -0.0312  0.6859  0.4183
13573TIP3    H162210   2.944   2.009  13.020 -0.4653 -0.4538  0.3902
13573TIP3    H262211   2.879   1.955  13.146 -0.3928  1.8851  1.4791
13574TIP3   OH262212   6.255   4.989   3.719 -0.3555  0.0942 -0.6247
13574TIP3    H162213   6.167   4.951   3.726  0.4898 -1.8182  0.4458
13574TIP3    H262214   6.314   4.914   3.731  1.4181  1.5257 -0.0137
13575TIP3   OH262215   5.451   4.526  12.459 -0.0555 -0.6303  0.0593
13575TIP3    H162216   5.544   4.542  12.476 -0.5653  0.4625  2.1890
13575TIP3    H262217   5.431   4.578  12.381  0.3363  2.3855  1.7973
13576TIP3   OH262218   4.718   0.022   4.477  0.0087 -0.1187  0.2335
13576TIP3    H162219   4.719   0.103   4.528 -1.3642 -0.9447  1.6653
13576TIP3    H262220   4.808  -0.009   4.481  0.3658  0.8955  0.3934
13577TIP3   OH262221   3.831   0.888  16.485 -0.7680  0.0280  0.2034
13577TIP3    H162222   3.868   0.966  16.526 -0.7854  1.8523 -2.9089
13577TIP3    H262223   3.907   0.843  16.446 -1.0055 -0.2796  0.0878
13578TIP3   OH262224   0.544   6.293   2.443 -0.0388 -0.1823  0.3061
13578TIP3    H162225   0.501   6.225   2.495 -0.7313 -0.9481 -1.2144
13578TIP3    H262226   0.476   6.327   2.385  0.1496  2.2265  1.3815
13579TIP3   OH262227   5.967   6.081  14.280  0.1911 -0.6896  0.0761
13579TIP3    H162228   5.933   6.114  14.364 -0.8213  0.2354 -0.6602
13579TIP3    H262229   5.933   5.992  14.274  0.8061 -0.9997  0.9251
13580TIP3   OH262230   0.775   6.569   5.089 -0.1760  1.0663 -0.2263
13580TIP3    H162231   0.861   6.548   5.127  0.0296  3.2110  0.6254
13580TIP3    H262232   0.777   6.528   5.002  0.7954 -0.8192  0.6100
13581TIP3   OH262233   1.954   5.575  13.627  0.6512  0.2612 -0.3920
13581TIP3    H162234   1.992   5.644  13.572 -0.1412 -0.2234 -1.5907
13581TIP3    H262235   1.989   5.494  13.591  2.3754  0.0232  1.6351
13582TIP3   OH262236   5.949   0.401  11.021  0.7248 -0.3167 -0.1473
13582TIP3    H162237   5.892   0.395  11.097 -0.5617  0.1944 -1.0318
13582TIP3    H262238   5.896   0.446  10.955  2.2909  0.5269 -0.8849
13583TIP3   OH262239   5.321   0.201  11.611 -0.1485 -0.5161  0.7215
13583TIP3    H162240   5.417   0.198  11.607 -0.1504  0.1435 -0.0606
13583TIP3    H262241   5.299   0.156  11.693  0.9227  0.6254  1.6902
13584TIP3   OH262242   3.547   0.825   2.699  0.2914 -0.1325  0.6917
13584TIP3    H162243   3.490   0.892   2.662  0.9787  0.8437  1.3395
13584TIP3    H262244   3.494   0.745   2.699 -0.5273  0.3834 -0.1434
13585TIP3   OH262245   1.480   4.967   0.889  0.7247 -0.9698  0.8918
13585TIP3    H162246   1.564   4.984   0.846  0.6946 -1.7397  0.5170
13585TIP3    H262247   1.427   4.924   0.822  0.5933 -1.9757  1.6265
13586TIP3   OH262248   6.516   0.719   5.485  0.0148  0.0975 -0.5438
13586TIP3    H162249   6.497   0.762   5.568 -0.4049  0.6687 -0.9253
13586TIP3    H262250   6.597   0.670   5.501 -0.8883 -1.0610  0.6483
13587TIP3   OH262251   6.603   4.097  15.553  0.4368 -0.3071 -0.1853
13587TIP3    H162252   6.666   4.120  15.484 -1.4435 -1.5873 -2.4865
13587TIP3    H262253   6.652   4.040  15.612  2.0708  0.6721 -0.5151
13588TIP3   OH262254   6.013   2.309   2.656 -0.0279  0.0486  0.1299
13588TIP3    H162255   5.964   2.236   2.693  0.4504 -0.1734  0.3316
13588TIP3    H262256   6.052   2.353   2.732 -1.4289  1.3483  0.1475
13589TIP3   OH262257   6.204   1.128   5.293  0.2112  0.0966  0.3809
13589TIP3    H162258   6.119   1.151   5.329 -1.1664 -1.3779 -1.6995
13589TIP3    H262259   6.255   1.098   5.368 -0.8198  1.6558  1.7680
13590TIP3   OH262260   6.645   3.379   3.075  0.1367  0.4850  0.2951
13590TIP3    H162261   6.681   3.466   3.057  1.3238 -0.1024 -0.2552
13590TIP3    H262262   6.648   3.333   2.991 -0.4659 -0.1014  0.5828
13591TIP3   OH262263   3.273   5.365   1.796 -0.8024 -0.1886 -0.2261
13591TIP3    H162264   3.361   5.356   1.757 -0.2660  2.1177  0.2998
13591TIP3    H262265   3.217   5.312   1.739  1.0244 -2.5330 -0.0262
13592TIP3   OH262266   0.854   6.801  16.763  0.6626  0.1961  0.2008
13592TIP3    H162267   0.825   6.718  16.799  0.4542 -0.3241 -1.1135
13592TIP3    H262268   0.778   6.836  16.716  0.6119  1.3556  1.1028
13593TIP3   OH262269   0.343   0.489  13.408 -0.4931 -0.0701 -0.3574
13593TIP3    H162270   0.421   0.435  13.424 -1.2257 -1.0956 -0.1063
13593TIP3    H262271   0.338   0.496  13.312  0.2716  0.5581 -0.3532
13594TIP3   OH262272   4.711   0.628   2.331 -0.5616  0.7064  0.4325
13594TIP3    H162273   4.756   0.672   2.259 -0.7443  0.0341 -0.1034
13594TIP3    H262274   4.763   0.550   2.349 -1.5362 -0.1275 -0.2548
13595TIP3   OH262275   3.403   0.778   3.833 -0.0268 -0.7136  0.0042
13595TIP3    H162276   3.494   0.780   3.865 -0.2178  0.6500  0.5559
13595TIP3    H262277   3.350   0.787   3.913 -0.5567  1.3767 -0.5152
13596TIP3   OH262278   5.981   3.447  12.213  0.2683  0.2211 -0.4149
13596TIP3    H162279   5.955   3.438  12.304 -1.0414 -1.3700 -0.9023
13596TIP3    H262280   6.070   3.481  12.216  0.5740 -0.6554  1.4663
13597TIP3   OH262281   6.577   5.031  14.972  0.1192 -0.2999  0.3900
13597TIP3    H162282   6.627   5.104  15.007  0.4661 -0.3645  0.0448
13597TIP3    H262283   6.616   4.953  15.012  1.4830 -0.4942 -1.1870
13598TIP3   OH262284   0.222   5.239   5.405 -0.1414  0.0514  0.3106
13598TIP3    H162285   0.225   5.292   5.485  1.0089  0.9302 -0.2801
13598TIP3    H262286   0.314   5.219   5.386 -0.3092  0.6281 -1.2771
13599TIP3   OH262287   2.951   5.769   2.765 -0.1168 -0.1048  0.1761
13599TIP3    H162288   2.919   5.696   2.712 -3.8606 -0.4953  2.6436
13599TIP3    H262289   2.916   5.847   2.722  2.2776  0.2280 -1.3679
13600TIP3   OH262290   5.925   2.971   3.962  0.2099 -0.1378 -0.0885
13600TIP3    H162291   5.993   2.944   4.024 -0.0981 -1.5311 -0.3162
13600TIP3    H262292   5.961   3.049   3.920  0.3153  1.0060  2.0046
13601TIP3   OH262293   0.249   6.472  15.706  0.0718  0.7082  0.1235
13601TIP3    H162294   0.219   6.382  15.718 -0.1009  0.3375 -2.5259
13601TIP3    H262295   0.344   6.464  15.694  0.1389  0.9487  0.4907
13602TIP3   OH262296   3.930   2.799   1.063  0.1630  0.6130 -0.1156
13602TIP3    H162297   4.018   2.802   1.026  1.0931 -1.4102  1.7067
13602TIP3    H262298   3.943   2.818   1.156 -1.2868 -0.0372  0.2386
13603TIP3   OH262299   1.011   1.993   3.249  0.3910 -0.0619  0.3246
13603TIP3    H162300   1.055   1.981   3.165 -0.2675  1.1411 -0.2161
13603TIP3    H262301   1.054   2.070   3.287 -2.1656  2.1735 -0.9378
13604TIP3   OH262302   4.351   4.098  16.715  0.6740 -0.3655 -0.4943
13604TIP3    H162303   4.410   4.085  16.789  0.2944  0.0072 -0.1146
13604TIP3    H262304   4.291   4.167  16.745  2.3728  2.0632 -2.2402
13605TIP3   OH262305   4.507   0.348  12.810  0.0746 -0.6009  0.0347
13605TIP3    H162306   4.480   0.430  12.769 -0.9326 -0.3652  1.0889
13605TIP3    H262307   4.476   0.280  12.750 -2.6550 -0.3250  0.9725
13606TIP3   OH262308   3.422   3.141  12.123 -0.0083 -0.6182  0.4315
13606TIP3    H162309   3.497   3.156  12.181 -1.0332 -1.3809  2.0505
13606TIP3    H262310   3.435   3.051  12.091  1.5407  0.4242 -2.1492
13607TIP3   OH262311   1.944   6.831   5.390 -0.5907  0.1693  1.0285
13607TIP3    H162312   1.936   6.740   5.361 -2.8513  0.5113  0.4023
13607TIP3    H262313   2.034   6.839   5.420  0.4100 -1.5878 -1.2594
13608TIP3   OH262314   1.565   5.365  10.776  0.1472 -0.3137 -0.2033
13608TIP3    H162315   1.558   5.327  10.863 -0.0122 -1.1367 -0.5643
13608TIP3    H262316   1.630   5.310  10.731  2.1372  1.5777  0.1624
13609TIP3   OH262317   0.748   3.016   1.689  0.3666  0.2579  0.3112
13609TIP3    H162318   0.698   2.973   1.620 -0.7959  0.6856  0.8724
13609TIP3    H262319   0.789   3.092   1.647  0.9492 -0.3604 -0.2554
13610TIP3   OH262320   3.617   4.550  14.442 -0.0941  0.4358  0.2810
13610TIP3    H162321   3.644   4.568  14.532 -0.8632  2.3739  0.1661
13610TIP3    H262322   3.523   4.532  14.448  0.2142 -1.5428  0.0760
13611TIP3   OH262323   2.021   0.355   4.744 -0.4210 -0.0856  0.1196
13611TIP3    H162324   2.048   0.320   4.659  0.4842  0.0216  0.3512
13611TIP3    H262325   1.972   0.284   4.785 -0.3924 -0.3330 -0.2699
13612TIP3   OH262326   5.581   2.583   5.678  0.2450 -0.3309 -0.3709
13612TIP3    H162327   5.557   2.527   5.751  0.0907 -0.1636 -0.2906
13612TIP3    H262328   5.585   2.524   5.603  0.4578 -0.5122 -0.2192
13613TIP3   OH262329   0.417   5.522  13.459 -0.3590 -0.8255 -0.1067
13613TIP3    H162330   0.322   5.531  13.466 -0.0869  1.8938  1.9859
13613TIP3    H262331   0.445   5.493  13.546  0.7541 -1.7018 -0.7243
13614TIP3   OH262332   0.624   4.816   4.566  0.1369 -0.1965  0.7448
13614TIP3    H162333   0.565   4.873   4.516  1.7469 -0.9927 -2.2813
13614TIP3    H262334   0.593   4.824   4.657 -1.5517  3.1375  0.0478
13615TIP3   OH262335   3.794   5.223  13.710  0.0807  0.2756 -0.0986
13615TIP3    H162336   3.753   5.299  13.668  1.4086  0.7593 -0.5613
13615TIP3    H262337   3.848   5.260  13.780 -0.0967 -0.3420  0.3833
13616TIP3   OH262338   2.373   5.446  15.843  0.2610  0.0290 -0.3110
13616TIP3    H162339   2.446   5.413  15.791 -0.0011 -1.4170  0.1958
13616TIP3    H262340   2.297   5.438  15.785  0.2918  0.3262 -0.3950
13617TIP3   OH262341   5.072   2.822  15.222 -0.0249 -0.3959  0.1981
13617TIP3    H162342   5.132   2.753  15.250  0.0620 -1.2718 -1.9430
13617TIP3    H262343   5.127   2.901  15.219  0.2604 -0.5482  1.1586
13618TIP3   OH262344   1.743   4.345  15.415  0.1526  0.4915  0.0437
13618TIP3    H162345   1.721   4.411  15.348 -0.0037 -0.6576 -1.0758
13618TIP3    H262346   1.796   4.281  15.368  1.2576  0.3847  1.3990
13619TIP3   OH262347   5.540   1.824   0.087 -0.3614  0.0693  0.1601
13619TIP3    H162348   5.635   1.813   0.078 -0.4288 -0.8927  0.5421
13619TIP3    H262349   5.503   1.769   0.019 -0.6596 -0.2722  0.5902
13620TIP3   OH262350   1.229   1.505  11.106  0.3626 -0.1386  0.2171
13620TIP3    H162351   1.213   1.571  11.038  0.3256  0.9014  1.2021
13620TIP3    H262352   1.187   1.426  11.074  2.2487 -0.3283 -2.0234
13621TIP3   OH262353   1.152   3.975   6.101 -0.5986  0.1471 -0.1571
13621TIP3    H162354   1.113   3.976   6.188  0.6673 -0.3841  0.4489
13621TIP3    H262355   1.244   3.997   6.116 -0.2440 -0.4969 -1.2932
13622TIP3   OH262356   5.555   3.140  13.853  0.1825  0.2292  0.2250
13622TIP3    H162357   5.633   3.174  13.809  0.4171 -2.3973 -1.6153
13622TIP3    H262358   5.490   3.131  13.784 -1.0358  0.3409  1.3291
13623TIP3   OH262359   2.574   4.405  16.290 -0.0603  0.1016  0.0449
13623TIP3    H162360   2.492   4.442  16.322  0.4964  1.2003  0.2430
13623TIP3    H262361   2.551   4.366  16.205 -0.6086  1.2252 -0.3455
13624TIP3   OH262362   5.630   2.387  14.551  0.3048 -0.2322  0.1297
13624TIP3    H162363   5.710   2.335  14.551  0.4928  0.0514 -0.3334
13624TIP3    H262364   5.630   2.432  14.466 -1.4587 -1.9075 -0.8191
13625TIP3   OH262365   1.536   6.341  13.284 -0.0378 -0.0771  0.8861
13625TIP3    H162366   1.463   6.358  13.343  0.4678 -0.5085  1.6424
13625TIP3    H262367   1.533   6.247  13.267  0.9796 -0.2943  1.7926
13626TIP3   OH262368   4.333   1.991  11.093  0.5427  0.2260  0.3373
13626TIP3    H162369   4.299   1.902  11.095 -2.6221  1.2716 -0.6937
13626TIP3    H262370   4.362   2.004  11.003 -0.6269  0.7281  0.0136
13627TIP3   OH262371   1.141   3.208  17.036 -0.0429  0.1138 -0.6768
13627TIP3    H162372   1.079   3.184  16.967  1.2663 -0.0207 -1.8569
13627TIP3    H262373   1.100   3.282  17.080 -2.0982 -1.3887  0.1074
13628TIP3   OH262374   1.828   4.099   6.144  0.1581  0.3623  0.1438
13628TIP3    H162375   1.826   4.192   6.124  2.2064  0.5041  0.3713
13628TIP3    H262376   1.902   4.089   6.205 -1.3138 -1.1046  1.8192
13629TIP3   OH262377   4.307   0.633  17.074 -0.1580 -0.4059  0.0246
13629TIP3    H162378   4.276   0.543  17.066 -1.3166 -0.0716  0.6247
13629TIP3    H262379   4.230   0.687  17.056  0.3628  0.4603  0.3210
13630TIP3   OH262380   4.817   0.089  12.308 -0.4141 -0.1477  0.0893
13630TIP3    H162381   4.871   0.010  12.298 -0.0481  0.0700  0.3364
13630TIP3    H262382   4.814   0.105  12.402  0.0108  0.4731  0.0040
13631TIP3   OH262383   4.099   4.400  13.652  0.3668  0.1286 -0.7398
13631TIP3    H162384   4.070   4.310  13.642 -0.2154  0.4485 -2.0571
13631TIP3    H262385   4.123   4.407  13.745 -1.7759 -0.7169 -0.0708
13632TIP3   OH262386   2.175   5.781   5.239  0.1091  0.2038  0.2379
13632TIP3    H162387   2.174   5.853   5.302  0.7927  1.6499 -1.3201
13632TIP3    H262388   2.085   5.773   5.209  0.1538  0.9554 -0.1297
13633TIP3   OH262389   2.377   2.783   4.600  0.0314 -0.3699 -1.3302
13633TIP3    H162390   2.425   2.741   4.672  0.5149 -1.4292 -2.2433
13633TIP3    H262391   2.385   2.877   4.617  0.2220 -0.5914 -0.0622
13634TIP3   OH262392   5.508   0.503  14.435  0.3725 -0.1434  0.1792
13634TIP3    H162393   5.603   0.511  14.425  0.3145 -0.6961 -0.9576
13634TIP3    H262394   5.471   0.544  14.357 -0.2414 -1.6699 -0.3798
13635TIP3   OH262395   4.551   1.740  14.989  0.3122  0.1083  0.2834
13635TIP3    H162396   4.517   1.651  14.985 -1.1740  0.6786 -0.4327
13635TIP3    H262397   4.618   1.744  14.921  0.7460 -0.6002  0.6672
13636TIP3   OH262398   6.577   5.588   4.678 -0.1784 -0.6435 -0.0026
13636TIP3    H162399   6.520   5.515   4.653  0.9103 -1.2522 -0.8187
13636TIP3    H262400   6.518   5.662   4.691 -1.2883 -1.6011  0.6017
13637TIP3   OH262401   0.836   6.547   2.001  0.3569 -0.1794  0.5559
13637TIP3    H162402   0.829   6.473   2.062 -1.9890 -1.2456 -0.8645
13637TIP3    H262403   0.752   6.593   2.011  0.4153  0.3011 -0.9948
13638TIP3   OH262404   4.559   4.144  12.459 -0.4349 -0.4695 -0.2242
13638TIP3    H162405   4.624   4.204  12.497 -0.3271 -0.7107 -0.0259
13638TIP3    H262406   4.599   4.057  12.466 -0.0683 -0.4366 -1.6177
13639TIP3   OH262407   0.947   3.354  14.035  0.1053 -0.4312 -0.1522
13639TIP3    H162408   0.877   3.289  14.036 -2.5809  2.2334 -0.3380
13639TIP3    H262409   0.952   3.383  13.944  0.3185  0.5040  0.1442
13640TIP3   OH262410   0.417   1.012   3.335  0.0183 -0.2673  0.0699
13640TIP3    H162411   0.403   1.075   3.265 -0.9669 -0.1912  0.3143
13640TIP3    H262412   0.335   1.012   3.384  0.4048 -0.9079  0.7481
13641TIP3   OH262413   4.543   4.604  14.358 -0.2581  0.0623  0.1112
13641TIP3    H162414   4.613   4.670  14.359  0.9408 -1.0509 -2.1252
13641TIP3    H262415   4.476   4.640  14.301 -0.4583  0.1391  0.3942
13642TIP3   OH262416   2.648   4.067  16.288  0.1534  0.1446  0.5222
13642TIP3    H162417   2.630   4.121  16.211  2.0383  0.4442  0.2373
13642TIP3    H262418   2.574   4.083  16.347 -2.0420 -1.1002 -1.6911
13643TIP3   OH262419   3.091   6.663   2.657  0.1776  0.0664 -0.0074
13643TIP3    H162420   3.178   6.643   2.621  0.1414 -1.8007  0.8144
13643TIP3    H262421   3.101   6.656   2.751 -0.5892  1.1768  0.1790
13644TIP3   OH262422   1.997   3.632   4.502 -0.3037 -0.6524  0.4837
13644TIP3    H162423   1.927   3.698   4.504  0.0846 -0.2595  1.2841
13644TIP3    H262424   1.994   3.598   4.412 -0.8317  0.1053  0.1999
13645TIP3   OH262425   2.969   3.135  11.201 -0.0962 -0.2483 -0.4017
13645TIP3    H162426   2.971   3.077  11.277  0.6717 -0.0052 -0.2273
13645TIP3    H262427   2.877   3.136  11.173 -0.4750  0.0220  0.7996
13646TIP3   OH262428   5.790   1.442  15.206  0.1022 -0.5473  0.0922
13646TIP3    H162429   5.823   1.508  15.266 -1.4574 -0.0250  0.4146
13646TIP3    H262430   5.704   1.474  15.180  0.0899 -1.5397 -1.2089
13647TIP3   OH262431   2.300   3.642  11.365 -0.2379  0.0891  0.4000
13647TIP3    H162432   2.329   3.594  11.287  1.4767  0.2557  0.8876
13647TIP3    H262433   2.226   3.694  11.334  2.8476  3.3687 -2.3414
13648TIP3   OH262434   3.805   6.358  14.716 -0.4432 -0.0615  0.5311
13648TIP3    H162435   3.861   6.385  14.644 -0.7717  1.0323  0.6601
13648TIP3    H262436   3.864   6.317  14.779 -0.1719 -1.1116 -0.3872
13649TIP3   OH262437   5.254   0.821  16.561  0.3600 -0.0769 -0.3723
13649TIP3    H162438   5.264   0.830  16.655 -1.3123  1.6618 -0.3005
13649TIP3    H262439   5.343   0.811  16.528  1.0433  0.1877  1.3120
13650TIP3   OH262440   5.332   6.481   2.376  0.2204  0.5708 -0.1544
13650TIP3    H162441   5.324   6.486   2.472 -1.1240 -1.7691 -0.0672
13650TIP3    H262442   5.421   6.448   2.361 -0.0477 -0.4339  0.3865
13651TIP3   OH262443   2.730   6.610  14.509 -0.2709  0.7415 -0.0438
13651TIP3    H162444   2.813   6.621  14.557 -0.1579 -0.0743 -0.0470
13651TIP3    H262445   2.748   6.644  14.422  0.1372  0.3361 -0.1198
13652TIP3   OH262446   6.717   6.154  11.969  0.0149 -0.2731 -0.2358
13652TIP3    H162447   6.645   6.123  12.024  0.2755  2.0921  1.6197
13652TIP3    H262448   6.701   6.115  11.883 -1.7441 -2.2307  0.8898
13653TIP3   OH262449   2.432   3.462   5.778  0.3960  0.1784 -0.2034
13653TIP3    H162450   2.343   3.428   5.777  0.9530 -1.4720  1.0266
13653TIP3    H262451   2.466   3.444   5.691  0.5297 -2.1960  0.2700
13654TIP3   OH262452   3.273   5.690  12.807  0.1497  0.4280  0.1803
13654TIP3    H162453   3.328   5.648  12.740  4.4728  1.9249  2.4171
13654TIP3    H262454   3.245   5.618  12.863  1.1946 -0.2663 -0.1484
13655TIP3   OH262455   0.583   3.633   0.862  0.2987  0.4805  0.4828
13655TIP3    H162456   0.663   3.603   0.905 -0.5687 -0.8032  1.2856
13655TIP3    H262457   0.581   3.584   0.780 -0.0092 -0.0333  0.7906
13656TIP3   OH262458   2.915   3.723  14.451  0.1512  0.0482 -0.6076
13656TIP3    H162459   2.913   3.819  14.459 -0.6086  0.0009 -0.1184
13656TIP3    H262460   2.975   3.706  14.379  1.2606  0.8487  0.0858
13657TIP3   OH262461   1.726   1.124  16.336  0.4439  0.5248 -0.1994
13657TIP3    H162462   1.721   1.111  16.242  0.9468  1.6425 -0.3948
13657TIP3    H262463   1.786   1.056  16.367  1.8332  1.3553 -0.9751
13658TIP3   OH262464   6.432   2.710   2.774 -0.0442 -0.2192  0.3154
13658TIP3    H162465   6.404   2.621   2.794 -0.3049  0.0281  1.0765
13658TIP3    H262466   6.352   2.763   2.782 -0.0129  0.0031 -0.6849
13659TIP3   OH262467   4.703   5.158  13.089 -0.1967 -0.3909  0.1594
13659TIP3    H162468   4.673   5.079  13.134  0.7851 -1.0205 -0.2444
13659TIP3    H262469   4.624   5.194  13.048 -0.7952 -0.7264  0.9925
13660TIP3   OH262470   6.083   6.732  10.670 -0.0380  0.0679 -0.0634
13660TIP3    H162471   6.072   6.827  10.679 -0.3053 -0.0433  0.8825
13660TIP3    H262472   6.153   6.722  10.606  0.5602  0.9212  0.4411
13661TIP3   OH262473   1.761   6.653   0.578 -0.3031 -0.1852  0.0831
13661TIP3    H162474   1.696   6.621   0.515  0.1489  1.2741 -1.1839
13661TIP3    H262475   1.758   6.589   0.649 -1.6973 -1.2384 -0.8518
13662TIP3   OH262476   0.459   2.793  15.500 -0.4796 -0.0590  0.2176
13662TIP3    H162477   0.535   2.818  15.552  0.1291  0.4338 -0.8723
13662TIP3    H262478   0.403   2.744  15.560  1.7135 -2.4112  0.5016
13663TIP3   OH262479   6.134   5.723   0.353  0.3740  0.5110  0.6960
13663TIP3    H162480   6.157   5.665   0.425 -0.2604 -2.3693 -1.2496
13663TIP3    H262481   6.193   5.698   0.282 -1.5216  0.5294 -0.9756
13664TIP3   OH262482   0.188   1.101  16.052  0.0745 -0.0881 -0.2497
13664TIP3    H162483   0.133   1.175  16.078 -1.2311 -0.5706 -1.5256
13664TIP3    H262484   0.274   1.121  16.089 -1.0118  0.5083  2.1132
13665TIP3   OH262485   4.314   2.454  13.025 -0.4891 -0.2396  0.2611
13665TIP3    H162486   4.332   2.426  13.115  0.5708  0.4933  0.3052
13665TIP3    H262487   4.392   2.428  12.976 -1.2001 -0.9280 -0.5314
13666TIP3   OH262488   2.224   4.134   2.990  0.3773  0.4314 -0.1768
13666TIP3    H162489   2.191   4.059   2.940 -0.9158  1.6600 -1.2632
13666TIP3    H262490   2.298   4.099   3.040  0.1618 -1.4255 -1.0665
13667TIP3   OH262491   2.762   2.194   1.560 -0.2759  0.5297  0.0464
13667TIP3    H162492   2.822   2.253   1.515  1.5987 -1.1430  0.1977
13667TIP3    H262493   2.749   2.234   1.646  1.6600  0.3569  0.4649
13668TIP3   OH262494   1.767   3.139   1.344 -0.0743  0.0328 -0.2874
13668TIP3    H162495   1.810   3.115   1.426 -1.1135  0.4134  0.3796
13668TIP3    H262496   1.729   3.225   1.361 -0.2672  0.1311 -1.1795
13669TIP3   OH262497   4.817   2.644  13.747  0.2726 -0.4311 -0.1995
13669TIP3    H162498   4.782   2.581  13.810  1.3494 -1.0760 -0.2054
13669TIP3    H262499   4.902   2.669  13.783  0.0845  0.6439 -0.4631
13670TIP3   OH262500   1.971   2.723  11.202 -0.3417  0.0477  0.1731
13670TIP3    H162501   2.066   2.731  11.213 -0.4449  0.3760  0.8549
13670TIP3    H262502   1.934   2.779  11.270 -1.0214  0.8331 -0.8085
13671TIP3   OH262503   4.795   4.984   5.692 -0.0884  0.0583 -0.0477
13671TIP3    H162504   4.847   4.961   5.769 -1.1703  2.0231  1.3637
13671TIP3    H262505   4.850   5.045   5.643  1.2612 -2.3912 -1.8090
13672TIP3   OH262506   2.540   3.945   4.159 -0.5068 -0.1656 -0.1481
13672TIP3    H162507   2.592   4.025   4.167  2.5520 -2.0779  1.4955
13672TIP3    H262508   2.546   3.922   4.066 -0.3648  0.8719 -0.4095
13673TIP3   OH262509   5.796   0.629  11.717  0.0747 -0.1403 -0.2172
13673TIP3    H162510   5.733   0.582  11.662  1.0120 -1.2637 -0.3824
13673TIP3    H262511   5.768   0.611  11.807  0.1322 -0.6122 -0.2899
13674TIP3   OH262512   1.683   3.718   6.653 -0.0292  0.2904  0.5523
13674TIP3    H162513   1.645   3.636   6.620  2.1529 -1.7046  2.6167
13674TIP3    H262514   1.612   3.761   6.699 -1.3143 -0.2464 -0.8462
13675TIP3   OH262515   4.968   3.927  16.771  0.6273  0.0291  0.2343
13675TIP3    H162516   4.931   3.920  16.683  1.4755  0.8974 -0.2102
13675TIP3    H262517   4.899   3.968  16.823  0.1700 -0.3634 -0.0621
13676TIP3   OH262518   6.506   4.848  11.578 -0.0712  0.1580  0.3669
13676TIP3    H162519   6.456   4.853  11.660 -1.1833  0.3190 -0.3055
13676TIP3    H262520   6.590   4.810  11.604  0.0693  1.3457  1.7947
13677TIP3   OH262521   3.548   5.135   1.088  0.1937 -0.2364  0.7496
13677TIP3    H162522   3.457   5.108   1.076 -0.4316  1.3482  1.6238
13677TIP3    H262523   3.585   5.069   1.147 -0.2329 -1.1695 -0.0147
13678TIP3   OH262524   6.644   2.987  14.867  0.0006  0.1583  0.1244
13678TIP3    H162525   6.709   2.960  14.802  0.1946 -0.3682  0.5249
13678TIP3    H262526   6.655   2.924  14.938 -0.2409  0.6964  0.6438
13679TIP3   OH262527   4.897   1.900   0.358 -0.2235 -0.5819 -0.3730
13679TIP3    H162528   4.872   1.965   0.293 -0.8832  0.3857  0.8010
13679TIP3    H262529   4.866   1.937   0.441 -1.1246 -2.6658  0.2663
13680TIP3   OH262530   6.207   5.280   1.213  0.3107  0.1898  0.3645
13680TIP3    H162531   6.150   5.352   1.240  1.5307  1.2748  0.1418
13680TIP3    H262532   6.207   5.220   1.287  0.4434  1.1627  1.1730
13681TIP3   OH262533   6.799   1.017   2.921 -0.0780  0.4356 -0.5572
13681TIP3    H162534   6.883   1.000   2.878 -0.5044 -1.6576 -0.6733
13681TIP3    H262535   6.806   1.107   2.952  1.8197  0.6443 -1.4297
13682TIP3   OH262536   2.676   3.026   1.235 -0.1831 -0.0929  0.0107
13682TIP3    H162537   2.640   3.092   1.176  0.9280 -0.6292 -1.3206
13682TIP3    H262538   2.731   3.074   1.296  1.0569  0.1919 -1.2897
13683TIP3   OH262539   1.189   0.994  12.209  0.1618  0.0565 -0.1700
13683TIP3    H162540   1.125   1.006  12.139  0.4569  0.9654 -0.2893
13683TIP3    H262541   1.239   0.916  12.183 -1.3100 -1.0879  0.2556
13684TIP3   OH262542   0.937   4.930  13.657 -0.1289 -0.5452 -0.3987
13684TIP3    H162543   0.881   4.858  13.686 -0.8596  0.0766 -0.2510
13684TIP3    H262544   0.956   4.910  13.565 -1.9533  0.0719 -0.9371
13685TIP3   OH262545   6.738   2.967   2.620  0.2067  0.3573 -0.5942
13685TIP3    H162546   6.798   3.042   2.629  1.8914 -0.9013 -0.9975
13685TIP3    H262547   6.743   2.943   2.528 -1.2543  0.4609 -0.7198
13686TIP3   OH262548   1.672   3.861  11.193 -0.0711 -0.7348 -0.4116
13686TIP3    H162549   1.721   3.829  11.117 -1.9058  1.3017 -2.6103
13686TIP3    H262550   1.617   3.787  11.219  0.9090 -1.6100 -0.7636
13687TIP3   OH262551   5.335   4.460   1.371  0.0502  0.4942  0.1220
13687TIP3    H162552   5.291   4.375   1.363 -1.0231  0.9920  0.6496
13687TIP3    H262553   5.429   4.438   1.367 -0.2129 -0.6546 -0.2458
13688TIP3   OH262554   2.944   2.577   4.244  0.1547  0.0640 -0.6654
13688TIP3    H162555   3.033   2.568   4.278  0.8489 -0.5572 -2.5532
13688TIP3    H262556   2.894   2.508   4.288  0.6424  0.2260  0.1782
13689TIP3   OH262557   4.851   5.875   2.543 -0.5522  0.5751  0.1900
13689TIP3    H162558   4.848   5.780   2.530  2.7173  0.5098 -0.9304
13689TIP3    H262559   4.940   5.900   2.518 -0.2094  3.5054  3.5751
13690TIP3   OH262560   0.973   6.036  14.153  0.2094 -0.0218  0.1959
13690TIP3    H162561   0.941   5.948  14.171  2.9972 -0.5310  3.5587
13690TIP3    H262562   1.019   6.029  14.070  0.8422 -1.8954  0.6704
13691TIP3   OH262563   3.464   4.915  14.296 -0.9523  0.0632 -0.1509
13691TIP3    H162564   3.465   4.881  14.207 -0.0467  1.2187 -0.6003
13691TIP3    H262565   3.388   4.874  14.336  0.5713 -3.3260 -0.3157
13692TIP3   OH262566   5.547   2.740  12.014 -0.1089  0.4676  0.3870
13692TIP3    H162567   5.545   2.809  12.080  0.1595  0.1409  0.7380
13692TIP3    H262568   5.634   2.745  11.975 -0.3576  0.8306 -0.1254
13693TIP3   OH262569   4.160   6.180  16.800 -0.0232  0.3447 -0.2023
13693TIP3    H162570   4.199   6.246  16.857 -0.7413 -0.2242  0.9748
13693TIP3    H262571   4.177   6.213  16.711  0.5769  1.5545  0.3299
13694TIP3   OH262572   0.732   0.950  13.303  0.3905 -0.3406  0.0269
13694TIP3    H162573   0.651   0.902  13.286 -0.2468  0.4750  0.7084
13694TIP3    H262574   0.801   0.887  13.281 -0.3890 -0.6539 -1.7181
13695TIP3   OH262575   5.416   0.760   4.075  0.3983 -0.8525 -0.8192
13695TIP3    H162576   5.489   0.812   4.109 -0.5200  0.9824 -1.4957
13695TIP3    H262577   5.371   0.729   4.154  0.2355  0.4998 -0.3503
13696TIP3   OH262578   1.521   6.129   1.989  0.3373  0.4424 -0.5155
13696TIP3    H162579   1.449   6.136   1.926  0.5581 -0.2938 -0.8569
13696TIP3    H262580   1.523   6.036   2.012 -1.3166  0.9880  2.4362
13697TIP3   OH262581   5.166   6.087  14.526  0.0878 -0.6620  0.3284
13697TIP3    H162582   5.078   6.114  14.499 -0.6886 -0.8711  2.4714
13697TIP3    H262583   5.192   6.151  14.591  0.7828 -1.5968  0.9964
13698TIP3   OH262584   6.190   1.070   1.190 -0.2985 -0.1403  0.5974
13698TIP3    H162585   6.226   1.062   1.101 -0.4273  0.6330  0.4614
13698TIP3    H262586   6.111   1.123   1.179 -0.2376  0.0867  1.1899
13699TIP3   OH262587   0.029   1.450   4.045  0.4499  0.8442  0.0559
13699TIP3    H162588   0.055   1.476   3.957  0.3941  0.6785 -0.0114
13699TIP3    H262589  -0.043   1.509   4.067 -1.1568 -0.6234 -0.9635
13700TIP3   OH262590   6.248   0.299   1.985  0.1347  0.3417  0.4640
13700TIP3    H162591   6.241   0.212   2.025  1.9454 -0.6565 -1.1850
13700TIP3    H262592   6.194   0.293   1.907 -0.6842  1.1344  0.9543
13701TIP3   OH262593   3.528   2.764  11.380  0.2403  0.2288 -0.1268
13701TIP3    H162594   3.463   2.778  11.449 -0.2418  1.6897 -0.8313
13701TIP3    H262595   3.476   2.737  11.304  0.6159 -0.0067 -0.3010
13702TIP3   OH262596   0.421   2.129  15.859  0.2707  0.6368  0.3172
13702TIP3    H162597   0.428   2.067  15.786  0.2018  2.4639 -1.3451
13702TIP3    H262598   0.376   2.081  15.928 -2.4786 -0.2916 -1.9412
13703TIP3   OH262599   1.634   4.119  11.375 -0.4074 -0.0029  0.0688
13703TIP3    H162600   1.639   4.140  11.468  0.3348 -1.7494  0.4591
13703TIP3    H262601   1.553   4.162  11.345 -1.3617 -0.4794  1.8235
13704TIP3   OH262602   2.247   0.379  15.856  0.2275  0.0776  0.3734
13704TIP3    H162603   2.257   0.286  15.835 -1.3821  0.3942 -2.3364
13704TIP3    H262604   2.307   0.424  15.796 -1.0965  0.8539 -0.4338
13705TIP3   OH262605   3.005   1.991  13.653 -0.7550  0.2685  0.1040
13705TIP3    H162606   3.033   1.983  13.562 -1.2434 -0.5276  0.0148
13705TIP3    H262607   3.073   1.946  13.703 -0.7483  0.2636  0.0904
13706TIP3   OH262608   4.360   1.053   2.416 -0.1678  0.3530  0.4949
13706TIP3    H162609   4.304   1.131   2.413  0.8345  1.0920 -2.2523
13706TIP3    H262610   4.330   1.000   2.342  2.6133  0.7396 -1.0284
13707TIP3   OH262611   4.113   3.407  14.825 -0.5112  0.8972 -0.0397
13707TIP3    H162612   4.180   3.340  14.835 -0.9359  0.2787 -1.2131
13707TIP3    H262613   4.083   3.424  14.915  0.3112  0.2683  0.3659
13708TIP3   OH262614   1.122   0.320   0.123  0.4878  0.1993 -0.1037
13708TIP3    H162615   1.122   0.415   0.133  0.4577  0.0472  1.6722
13708TIP3    H262616   1.192   0.302   0.060  0.7445  1.3698 -0.1747
13709TIP3   OH262617   0.362   5.026   2.414 -0.0351 -0.1989 -0.0569
13709TIP3    H162618   0.441   5.067   2.449 -0.7434  1.1499  0.0392
13709TIP3    H262619   0.349   5.067   2.329  0.5645 -2.0139 -1.0780
13710TIP3   OH262620   1.809   6.006  15.172  0.2076  0.0986 -0.0728
13710TIP3    H162621   1.864   6.059  15.115 -1.4416 -0.8119 -2.7487
13710TIP3    H262622   1.768   6.068  15.232  1.3828  1.2392 -0.4177
13711TIP3   OH262623   0.369   1.977  15.334 -0.0643  0.3648  0.5781
13711TIP3    H162624   0.311   2.050  15.311 -1.5825 -0.7576  0.7029
13711TIP3    H262625   0.353   1.962  15.428  0.7816  0.3265  0.7269
13712TIP3   OH262626   6.775   6.288  14.030  0.4218  0.3556 -0.5984
13712TIP3    H162627   6.857   6.238  14.031  0.2969  0.1096  1.4511
13712TIP3    H262628   6.719   6.240  13.969  0.7939 -1.2127  0.2387
13713TIP3   OH262629   0.595   5.593  10.420 -0.5036  0.4317 -0.0821
13713TIP3    H162630   0.511   5.639  10.414 -1.4046 -0.7495  2.1200
13713TIP3    H262631   0.576   5.505  10.387  0.3124  0.5875 -1.0262
13714TIP3   OH262632   5.585   0.409   3.563 -0.5376  0.3681 -0.1106
13714TIP3    H162633   5.614   0.463   3.637  0.6243  0.2819 -0.4864
13714TIP3    H262634   5.506   0.365   3.595 -0.1895  0.5221  0.9994
13715TIP3   OH262635   6.536   3.023   6.110  0.1010 -0.8092 -0.5297
13715TIP3    H162636   6.507   3.081   6.180 -0.5462 -0.1296 -1.3453
13715TIP3    H262637   6.455   2.990   6.071  0.4449 -0.9086 -1.1729
13716TIP3   OH262638   2.780   0.791  14.093 -0.6303  0.1802  0.4574
13716TIP3    H162639   2.816   0.788  14.005 -0.2906  2.0357  0.4893
13716TIP3    H262640   2.687   0.771  14.082 -1.0707  2.5513 -0.6803
13717TIP3   OH262641   6.040   5.164   6.026  0.3587 -0.0894  0.2945
13717TIP3    H162642   6.043   5.182   6.120 -0.1159  0.9043  0.1286
13717TIP3    H262643   5.956   5.200   5.997  0.6880 -0.0060 -0.5841
13718TIP3   OH262644   4.995   6.513  15.078  0.5088 -0.0169  0.1816
13718TIP3    H162645   4.989   6.459  15.156 -0.5737 -0.6286 -0.2991
13718TIP3    H262646   5.034   6.456  15.012  3.5413  1.1544  0.7999
13719TIP3   OH262647   5.164   4.153   0.239  0.0709 -0.2688 -0.2222
13719TIP3    H162648   5.070   4.136   0.230 -0.0547  0.9380 -1.5891
13719TIP3    H262649   5.174   4.184   0.329 -0.5704 -1.8775  0.4400
13720TIP3   OH262650   0.006   6.520   0.493  0.0997  0.3002  0.1773
13720TIP3    H162651   0.019   6.614   0.507  1.2851  0.3703 -1.2357
13720TIP3    H262652   0.051   6.479   0.567  1.0832  0.8122 -0.1168
13721TIP3   OH262653   2.636   4.695   3.168 -0.2965 -0.3672 -0.4828
13721TIP3    H162654   2.550   4.668   3.199  0.3920  1.0605  3.1652
13721TIP3    H262655   2.617   4.767   3.107 -1.7190 -0.0523  0.2744
13722TIP3   OH262656   4.818   2.234  14.497  0.2017  0.3832 -0.1072
13722TIP3    H162657   4.831   2.328  14.485 -1.2737  0.7397  0.7871
13722TIP3    H262658   4.786   2.204  14.412 -0.7945  1.0017  0.0295
13723TIP3   OH262659   1.000   6.525   5.237 -0.1776  0.0183 -0.1325
13723TIP3    H162660   1.043   6.591   5.292 -0.5389 -1.2749  1.7978
13723TIP3    H262661   0.987   6.450   5.295 -2.2521 -0.7695 -1.4937
13724TIP3   OH262662   4.042   5.734   3.499 -0.4530  0.6670  0.3701
13724TIP3    H162663   4.133   5.706   3.506 -0.0407  1.3494 -1.7221
13724TIP3    H262664   4.046   5.828   3.485 -1.1757  0.3018 -3.3101
13725TIP3   OH262665   2.658   1.593  13.393  0.3068 -0.2851  0.5824
13725TIP3    H162666   2.708   1.632  13.464  1.8907  0.4537 -0.8814
13725TIP3    H262667   2.623   1.667  13.344  0.1903 -0.7536 -0.0572
13726TIP3   OH262668   6.251   2.812   4.154 -0.3529  0.1850  0.2638
13726TIP3    H162669   6.253   2.890   4.098 -2.6398 -0.7744 -1.3194
13726TIP3    H262670   6.312   2.752   4.112 -0.8726  0.0439 -0.3047
13727TIP3   OH262671   6.136   3.208   3.290  0.6791  0.3107  0.8458
13727TIP3    H162672   6.142   3.114   3.273  0.1518  0.0552  1.9323
13727TIP3    H262673   6.226   3.238   3.291  0.7929  0.2448 -1.5518
13728TIP3   OH262674   0.250   0.517   1.543  0.3514 -0.1948 -0.2619
13728TIP3    H162675   0.313   0.557   1.483  0.6705 -0.9752 -0.4653
13728TIP3    H262676   0.234   0.430   1.506 -1.0194  0.0676 -0.3347
13729TIP3   OH262677   2.106   2.169   0.656 -0.5104 -0.4368 -0.1592
13729TIP3    H162678   2.149   2.106   0.714 -0.4015  0.7275  1.0854
13729TIP3    H262679   2.012   2.158   0.674 -0.5777 -1.0337 -0.8145
13730TIP3   OH262680   0.807   1.449   2.290 -0.1567  0.4012  0.0517
13730TIP3    H162681   0.850   1.534   2.298 -0.4067  0.4513  0.9766
13730TIP3    H262682   0.820   1.408   2.376  1.0517 -1.0208 -0.7689
13731TIP3   OH262683   6.718   2.957   4.620 -0.4955 -0.4869  0.1627
13731TIP3    H162684   6.763   2.947   4.704 -0.8631  0.3881  0.4746
13731TIP3    H262685   6.747   3.042   4.587 -3.7735  1.3551  1.5692
13732TIP3   OH262686   0.408   5.276  16.282 -0.3579  0.1614 -0.4588
13732TIP3    H162687   0.334   5.216  16.275  0.3280 -0.6096 -1.6655
13732TIP3    H262688   0.457   5.262  16.200  1.4646  0.1439  0.5724
13733TIP3   OH262689   1.829   5.923  13.821 -0.6298 -0.3571  0.2680
13733TIP3    H162690   1.824   5.873  13.740 -1.3188 -0.1363  0.1685
13733TIP3    H262691   1.920   5.953  13.825 -0.6432 -0.2019 -0.5198
13734TIP3   OH262692   1.099   4.358  16.092  0.2675 -0.5918 -0.2212
13734TIP3    H162693   1.194   4.360  16.094  0.3633  0.6001 -2.2698
13734TIP3    H262694   1.078   4.301  16.018 -0.5776 -0.1092 -0.3684
13735TIP3   OH262695   3.156   3.913   1.149  0.2578  0.0830 -0.4185
13735TIP3    H162696   3.175   4.006   1.135 -0.4972  0.4797  1.0190
13735TIP3    H262697   3.088   3.893   1.084 -1.5643  1.2839  1.0210
13736TIP3   OH262698   1.795   4.527   0.345  0.0961  0.0711 -0.2329
13736TIP3    H162699   1.789   4.510   0.439 -0.6789  0.5714 -0.1816
13736TIP3    H262700   1.723   4.588   0.327 -0.2285 -0.5875 -1.2751
13737TIP3   OH262701   2.681   2.769   5.337  0.6517 -0.1292 -0.0254
13737TIP3    H162702   2.677   2.771   5.432  0.0171  0.9055 -0.0648
13737TIP3    H262703   2.590   2.760   5.308  0.7866  0.1383 -0.5506
13738TIP3   OH262704   3.314   1.507  15.319 -0.2184 -0.6386  0.1826
13738TIP3    H162705   3.360   1.505  15.403 -1.4194  0.7707  0.9098
13738TIP3    H262706   3.282   1.596  15.311  0.2643 -0.6082 -2.0341
13739TIP3   OH262707   3.745   4.907   6.362 -0.0292 -0.5271  0.6347
13739TIP3    H162708   3.653   4.926   6.381  0.5160  0.5419  2.4324
13739TIP3    H262709   3.746   4.814   6.340 -1.9205  0.0403 -2.3532
13740TIP3   OH262710   6.222   5.219  16.892  0.6228 -0.0650 -1.2233
13740TIP3    H162711   6.236   5.160  16.966  0.1498  0.3746 -0.7699
13740TIP3    H262712   6.202   5.304  16.932 -0.7078 -0.0664 -1.8355
13741TIP3   OH262713   0.491   3.478  11.844 -0.1061  0.5113  0.1080
13741TIP3    H162714   0.430   3.487  11.770 -0.1432 -0.1691  0.0542
13741TIP3    H262715   0.543   3.401  11.823 -1.0951 -0.5797  1.4947
13742TIP3   OH262716   4.947   0.942   0.528 -0.4574 -0.2065 -0.3144
13742TIP3    H162717   4.920   1.032   0.510  1.8155  0.7614  0.7827
13742TIP3    H262718   4.907   0.922   0.613  0.1775  0.2918  0.1073
13743TIP3   OH262719   4.533   2.384  16.632 -0.1967  0.3104  0.5301
13743TIP3    H162720   4.622   2.414  16.651 -0.1515  0.2007  0.4964
13743TIP3    H262721   4.488   2.461  16.599  0.2259  0.0897 -0.6000
13744TIP3   OH262722   5.935   5.833   3.149 -0.6833  0.1730 -0.0476
13744TIP3    H162723   5.903   5.917   3.115  2.1782  1.1062 -0.7023
13744TIP3    H262724   5.988   5.857   3.225 -0.0439 -1.0629 -0.0875
13745TIP3   OH262725   5.211   1.727  14.716 -0.3635 -0.5048 -0.1484
13745TIP3    H162726   5.236   1.800  14.660 -1.3710  0.3453  0.4683
13745TIP3    H262727   5.252   1.746  14.800 -0.4748 -0.7562 -0.0375
13746TIP3   OH262728   6.067   6.425  14.055  0.3590 -0.4182  0.3264
13746TIP3    H162729   5.978   6.454  14.074  0.0358 -0.7690 -0.5720
13746TIP3    H262730   6.111   6.503  14.023 -0.3766 -0.7587 -1.6564
13747TIP3   OH262731   0.143   2.996  15.096 -0.7155 -0.0480  0.1661
13747TIP3    H162732   0.206   2.989  15.167 -1.0773  1.2755  0.6478
13747TIP3    H262733   0.091   3.073  15.118 -2.0269 -0.6822 -0.5940
13748TIP3   OH262734   2.263   4.857   0.284  0.2849  0.0309 -0.2441
13748TIP3    H162735   2.276   4.770   0.247  0.6208 -0.2468  0.5048
13748TIP3    H262736   2.237   4.841   0.375  0.9704  0.7175  0.0846
13749TIP3   OH262737   4.403   4.097   5.109  0.2219 -0.0105 -0.2380
13749TIP3    H162738   4.432   4.064   5.025 -0.1918  0.0447 -0.4044
13749TIP3    H262739   4.452   4.046   5.174 -2.7451 -3.3580 -0.3680
13750TIP3   OH262740   4.933   0.666  15.534  0.4693 -0.3813 -0.4888
13750TIP3    H162741   4.852   0.713  15.553  0.8945  0.8440 -1.5632
13750TIP3    H262742   4.911   0.574  15.546 -0.7703 -0.0022  0.3146
13751TIP3   OH262743   2.894   4.264   4.336  0.5342  0.5020  0.5546
13751TIP3    H162744   2.892   4.198   4.406  0.5679  0.0031  0.1001
13751TIP3    H262745   2.957   4.229   4.273  0.1442  0.6977  0.0484
13752TIP3   OH262746   4.597   6.284   4.781  0.3953  0.0764 -0.7543
13752TIP3    H162747   4.605   6.333   4.862  0.0279  0.8721 -1.1890
13752TIP3    H262748   4.591   6.192   4.808 -3.5337  0.4835  0.4197
13753TIP3   OH262749   4.427   1.199  15.170 -0.4833  0.4710  0.0807
13753TIP3    H162750   4.409   1.288  15.200 -0.6180  0.0029  1.4519
13753TIP3    H262751   4.357   1.146  15.208  0.7888 -0.5461  1.0717
13754TIP3   OH262752   5.298   6.388   6.191 -0.4298 -0.2859  0.2028
13754TIP3    H162753   5.286   6.483   6.179 -1.9031 -0.5085 -0.3858
13754TIP3    H262754   5.214   6.359   6.228  1.1012 -0.9067  3.5380
13755TIP3   OH262755   2.626   0.589   5.614  0.4637 -0.0490 -0.0997
13755TIP3    H162756   2.639   0.496   5.632  0.9636  0.1249  0.4530
13755TIP3    H262757   2.646   0.599   5.521  1.2880 -0.3401  0.0409
13756TIP3   OH262758   5.189   6.453   4.670  0.7409 -0.4224  0.3031
13756TIP3    H162759   5.140   6.509   4.731  0.0022  0.5707 -1.1310
13756TIP3    H262760   5.124   6.393   4.634  0.6045  0.6162 -1.2909
13757TIP3   OH262761   2.666   1.786  15.690  0.4771  0.0673 -0.1184
13757TIP3    H162762   2.748   1.739  15.707  1.1715  1.5616  0.8134
13757TIP3    H262763   2.599   1.717  15.687  1.8401 -1.2692 -1.6380
13758TIP3   OH262764   6.528   6.210  14.387  0.4779  0.2030  0.1747
13758TIP3    H162765   6.563   6.135  14.434 -0.5708 -0.4700 -0.0833
13758TIP3    H262766   6.522   6.279  14.452 -0.3176 -0.5145  0.8867
13759TIP3   OH262767   1.558   5.980  15.791  0.3946  0.4046  0.2820
13759TIP3    H162768   1.525   5.891  15.784  0.9330  0.0082  2.2785
13759TIP3    H262769   1.479   6.034  15.798  0.0636  0.1347 -1.0938
13760TIP3   OH262770   2.127   4.751  11.616  0.7400 -0.6030  0.0577
13760TIP3    H162771   2.144   4.661  11.644 -0.9224 -0.9726 -0.0574
13760TIP3    H262772   2.141   4.749  11.521  1.6798 -0.4845  0.1823
13761TIP3   OH262773   3.828   2.550  15.592  0.1374  0.0397 -0.2216
13761TIP3    H162774   3.921   2.536  15.612 -0.3829 -1.1860  1.5647
13761TIP3    H262775   3.793   2.462  15.580 -0.9324  0.4533 -0.2274
13762TIP3   OH262776   2.157   6.330   6.314  0.0162  0.2280  0.0223
13762TIP3    H162777   2.086   6.270   6.291 -0.7031  0.4920  1.4409
13762TIP3    H262778   2.118   6.417   6.309 -0.2168  0.2937  2.2112
13763TIP3   OH262779   5.888   2.190  11.668 -0.1514 -0.1048  0.1942
13763TIP3    H162780   5.816   2.183  11.730 -0.7431  0.2636 -0.4356
13763TIP3    H262781   5.928   2.103  11.667 -2.0536 -1.0342 -1.1751
13764TIP3   OH262782   4.779   2.454   6.380 -0.4931 -0.2866 -0.9889
13764TIP3    H162783   4.868   2.487   6.380 -0.6277  0.0934 -0.4282
13764TIP3    H262784   4.727   2.525   6.418 -0.6132 -1.5317  1.3901
13765TIP3   OH262785   3.725   2.591  11.321 -0.6595 -0.4885 -0.2913
13765TIP3    H162786   3.795   2.647  11.352  1.1755 -2.5210 -0.4644
13765TIP3    H262787   3.645   2.642  11.332  0.8819  2.1652 -0.6362
13766TIP3   OH262788   3.005   3.693  12.810 -0.1808  0.6797 -0.1028
13766TIP3    H162789   3.033   3.750  12.738 -0.8438  1.9066  0.5690
13766TIP3    H262790   2.912   3.714  12.821 -0.0806  0.5146  1.1154
13767TIP3   OH262791   5.652   3.312   2.093  0.3547  0.2799 -0.3137
13767TIP3    H162792   5.573   3.293   2.042  0.0964  1.3421 -0.3258
13767TIP3    H262793   5.722   3.268   2.045  0.0235  0.7515 -1.2642
13768TIP3   OH262794   1.610   0.662   3.088 -0.5313  0.4876  0.6747
13768TIP3    H162795   1.551   0.712   3.031  0.2972  0.1326 -0.5332
13768TIP3    H262796   1.695   0.704   3.078  0.0344 -0.7270  0.1547
13769TIP3   OH262797   5.339   4.190   4.230 -0.2825 -0.0243 -0.5452
13769TIP3    H162798   5.301   4.268   4.270  1.1008  0.7967 -0.7484
13769TIP3    H262799   5.347   4.128   4.301 -2.9588 -0.6620 -0.6993
13770TIP3   OH262800   2.898   3.701  13.557  0.0385  0.1834 -0.4442
13770TIP3    H162801   2.889   3.735  13.468  2.0680 -2.1305 -1.6533
13770TIP3    H262802   2.987   3.666  13.560 -1.2944 -3.5097  1.1298
13771TIP3   OH262803   1.329   6.824   0.993 -0.4614  0.2896 -0.1048
13771TIP3    H162804   1.309   6.771   1.071  2.2951  0.6459  0.9328
13771TIP3    H262805   1.275   6.902   1.004  0.1984  0.5409  1.7413
13772TIP3   OH262806   1.222   2.426  11.459 -0.0547  0.4223 -0.0562
13772TIP3    H162807   1.273   2.347  11.474 -0.8525 -0.0945 -0.0257
13772TIP3    H262808   1.210   2.429  11.364  0.4556  0.8258 -0.1171
13773TIP3   OH262809   6.164   0.918  16.164  0.2484 -0.1144 -0.2877
13773TIP3    H162810   6.140   0.834  16.202 -0.7784  0.7461  1.0557
13773TIP3    H262811   6.100   0.980  16.199  0.9653  1.2349 -1.2503
13774TIP3   OH262812   3.213   3.369   3.821 -0.0860 -0.3793  0.3269
13774TIP3    H162813   3.123   3.336   3.817  0.4708 -1.8765 -2.3477
13774TIP3    H262814   3.203   3.460   3.851 -2.5837 -0.2243 -0.6683
13775TIP3   OH262815   6.505   0.810  10.916  0.0797  0.1176  0.1146
13775TIP3    H162816   6.540   0.832  10.830 -0.4638 -0.1981 -0.1909
13775TIP3    H262817   6.547   0.726  10.938  0.0821  0.1097  0.0791
13776TIP3   OH262818   3.139   3.505  13.769  0.1423 -0.1893 -0.0870
13776TIP3    H162819   3.172   3.416  13.780  0.7354 -0.0457 -0.6586
13776TIP3    H262820   3.076   3.516  13.841  1.1582 -0.5504  0.8959
13777TIP3   OH262821   0.494   4.159  11.345  0.1674 -0.8793  0.2093
13777TIP3    H162822   0.416   4.129  11.299  0.2872 -1.8070  0.5977
13777TIP3    H262823   0.492   4.112  11.428  0.7929 -0.4127  0.4920
13778TIP3   OH262824   6.574   6.656  16.365 -0.9449  0.1207 -0.0447
13778TIP3    H162825   6.634   6.600  16.415 -0.4535  1.0787  0.4659
13778TIP3    H262826   6.559   6.608  16.283  0.1981 -0.3352 -0.0058
13779TIP3   OH262827   4.583   1.783  13.394 -0.2952 -0.4103  0.2163
13779TIP3    H162828   4.632   1.701  13.393  1.0687  0.3698  0.3671
13779TIP3    H262829   4.646   1.848  13.425 -1.6098  0.5397  1.0146
13780TIP3   OH262830   1.608   6.527  12.097  0.2236 -0.5465 -0.6182
13780TIP3    H162831   1.581   6.590  12.164  0.6293 -0.5901 -0.4155
13780TIP3    H262832   1.594   6.442  12.137  0.2466 -0.5779 -0.6767
13781TIP3   OH262833   5.733   2.385  11.432  0.6224  0.0152 -0.2352
13781TIP3    H162834   5.786   2.464  11.445  0.2392  0.7087 -2.5028
13781TIP3    H262835   5.701   2.391  11.342 -3.3224 -0.3324  0.9189
13782TIP3   OH262836   6.706   0.947   4.643 -0.5624 -0.1336 -0.6291
13782TIP3    H162837   6.775   1.009   4.620  1.3006 -1.6071  0.7035
13782TIP3    H262838   6.652   0.994   4.707  0.5873  0.2699  0.0770
13783TIP3   OH262839   5.321   0.998   1.785  0.2403  0.2257  0.1757
13783TIP3    H162840   5.389   0.981   1.720 -0.5473  0.8508 -0.8403
13783TIP3    H262841   5.239   0.988   1.737 -0.3582  0.8948  1.0269
13784TIP3   OH262842   5.051   6.735  11.814  0.4238 -0.3997 -0.2438
13784TIP3    H162843   5.135   6.747  11.769  0.7215  0.6587  0.5726
13784TIP3    H262844   5.048   6.804  11.879 -0.7049 -0.9653  0.3335
13785TIP3   OH262845   3.881   4.616   0.861 -0.1104  0.0424 -0.4600
13785TIP3    H162846   3.886   4.580   0.772 -0.7053 -0.8498 -0.1439
13785TIP3    H262847   3.925   4.701   0.855 -2.0076  0.9952 -2.0979
13786TIP3   OH262848   3.372   1.983  14.826 -0.5454 -0.5469 -0.1651
13786TIP3    H162849   3.420   2.018  14.750 -1.8762  0.5661 -0.5201
13786TIP3    H262850   3.438   1.980  14.896 -0.1409  1.9190 -0.3438
13787TIP3   OH262851   2.822   2.962   3.642 -0.4262  0.2186 -0.1368
13787TIP3    H162852   2.814   3.047   3.600 -0.1158 -0.5228 -1.7677
13787TIP3    H262853   2.907   2.964   3.686  0.4475  0.1139 -1.7480
13788TIP3   OH262854   0.972   5.645   4.339 -0.0910 -0.0700 -0.1893
13788TIP3    H162855   0.972   5.606   4.427 -0.5918 -2.3378 -1.1529
13788TIP3    H262856   0.907   5.716   4.345 -0.3765 -0.4126  1.1686
13789TIP3   OH262857   0.271   3.259  16.272  0.6545  0.2328  0.2067
13789TIP3    H162858   0.305   3.235  16.186  0.1552 -0.6814  0.2498
13789TIP3    H262859   0.233   3.178  16.306  0.4402  0.6957  1.0948
13790TIP3   OH262860   4.976   6.044   5.844 -0.0444 -0.1572 -0.7658
13790TIP3    H162861   4.981   6.087   5.930  2.0435 -0.1208 -0.8567
13790TIP3    H262862   4.963   5.952   5.865 -0.1008 -0.0718 -0.4109
13791TIP3   OH262863   3.376   2.890  17.157  0.2314 -0.4605  0.0870
13791TIP3    H162864   3.325   2.820  17.199 -2.3672  1.5734  0.6012
13791TIP3    H262865   3.318   2.925  17.090  1.8930  0.5190 -0.9163
13792TIP3   OH262866   4.607   0.807   2.514 -0.3295  0.4522  0.1463
13792TIP3    H162867   4.548   0.768   2.578 -0.6563  0.9771  0.1740
13792TIP3    H262868   4.626   0.737   2.452 -0.9377  0.2613  0.1720
13793TIP3   OH262869   5.213   1.649   5.134  0.2028 -0.1353 -0.7975
13793TIP3    H162870   5.120   1.661   5.113  0.3844  1.0244 -1.0041
13793TIP3    H262871   5.257   1.723   5.091  1.3542 -1.2046 -1.5225
13794TIP3   OH262872   1.518   1.258   0.964  0.1106 -0.1758 -0.1166
13794TIP3    H162873   1.588   1.199   0.992 -0.0110  0.5693  1.9330
13794TIP3    H262874   1.442   1.232   1.015 -0.0231  1.5437  0.6479
13795TIP3   OH262875   2.643   5.210   4.420  0.1275 -0.1547 -0.1246
13795TIP3    H162876   2.571   5.158   4.455  0.3751 -0.9004 -0.7053
13795TIP3    H262877   2.703   5.146   4.382  0.6826  0.5207 -0.4102
13796TIP3   OH262878   5.398   0.450  14.711 -0.1709  0.7167  0.7017
13796TIP3    H162879   5.411   0.460  14.617 -1.0758 -1.5183  0.2849
13796TIP3    H262880   5.361   0.535  14.739  0.7718  1.6551 -0.7833
13797TIP3   OH262881   0.053   2.375  15.086 -0.4089  0.0641  0.5865
13797TIP3    H162882   0.113   2.309  15.122  0.2206  0.8832  1.0684
13797TIP3    H262883   0.085   2.388  14.996 -1.4757 -1.3779 -0.0369
13798TIP3   OH262884   0.833   2.613   3.436 -0.0079 -0.5789 -0.3916
13798TIP3    H162885   0.766   2.681   3.423  1.0663  0.8230  1.0117
13798TIP3    H262886   0.784   2.531   3.434 -1.5004  0.2850 -1.1780
13799TIP3   OH262887   3.972   1.267  12.301  0.2859 -0.2702 -0.6758
13799TIP3    H162888   3.987   1.326  12.375 -1.1854 -0.7229  0.0337
13799TIP3    H262889   4.057   1.224  12.287  1.4327  2.0151 -1.2864
13800TIP3   OH262890   5.407   3.986  12.286 -0.2113 -0.3529 -0.1802
13800TIP3    H162891   5.497   3.953  12.288 -0.7039 -1.8612 -1.5727
13800TIP3    H262892   5.418   4.081  12.280  1.2558 -0.3576  1.5472
13801TIP3   OH262893   5.468   4.435  11.206  0.1171 -0.2463 -0.1231
13801TIP3    H162894   5.502   4.405  11.290  0.9014 -0.4198 -0.4933
13801TIP3    H262895   5.526   4.507  11.180  1.5575 -1.8868 -1.7422
13802TIP3   OH262896   2.307   6.591   3.583  0.3800  0.1043 -0.0422
13802TIP3    H162897   2.286   6.683   3.595 -2.3680 -0.6570  2.2565
13802TIP3    H262898   2.380   6.575   3.644 -2.1219 -0.0194  3.2369
13803TIP3   OH262899   4.887   6.290  13.282  0.1020 -0.4380  0.3968
13803TIP3    H162900   4.805   6.247  13.305 -0.6170  0.0153 -1.1627
13803TIP3    H262901   4.879   6.379  13.315  0.0464 -0.4520  0.4204
13804TIP3   OH262902   1.701   1.701   3.506  0.6819 -0.2663 -0.4797
13804TIP3    H162903   1.767   1.746   3.559 -0.8085  1.0091  0.3834
13804TIP3    H262904   1.677   1.625   3.558 -0.4632  0.7488  0.5316
13805TIP3   OH262905   6.273   4.091   0.966  0.3241 -0.2001 -0.7000
13805TIP3    H162906   6.223   4.092   1.049  3.8060  0.0823  1.5918
13805TIP3    H262907   6.281   4.184   0.943 -1.8808 -0.3170 -2.3479
13806TIP3   OH262908   1.213   0.745   4.411 -0.3527  0.6393 -0.6380
13806TIP3    H162909   1.265   0.722   4.488 -1.6180  0.9475  0.3422
13806TIP3    H262910   1.270   0.724   4.337  1.7726  2.4291  0.3781
13807TIP3   OH262911   3.312   1.242  16.100 -0.0937 -0.1296  0.0685
13807TIP3    H162912   3.290   1.184  16.172 -0.5925  0.3575  0.3155
13807TIP3    H262913   3.404   1.264  16.114 -0.0541 -0.4224  0.2794
13808TIP3   OH262914   2.571   5.242  12.265  0.3070 -0.4788  0.1927
13808TIP3    H162915   2.644   5.274  12.318 -0.0804  1.1800 -0.2279
13808TIP3    H262916   2.529   5.321  12.230 -2.3969 -1.2669  1.3316
13809TIP3   OH262917   3.906   4.769   5.309 -0.2955 -0.4371 -0.4065
13809TIP3    H162918   3.898   4.693   5.252 -1.9843 -0.4405 -0.2052
13809TIP3    H262919   3.818   4.806   5.313  0.4120  1.3130 -0.1811
13810TIP3   OH262920   5.358   0.278   1.551 -0.2230  0.6266  0.2381
13810TIP3    H162921   5.433   0.297   1.495  0.0319  0.9969  0.6994
13810TIP3    H262922   5.369   0.186   1.575 -1.1937 -0.0090 -1.5932
13811TIP3   OH262923   4.587   1.604  13.039  0.1075  0.4683  0.2585
13811TIP3    H162924   4.538   1.682  13.066 -0.3540  0.3115 -0.1228
13811TIP3    H262925   4.634   1.578  13.118  1.0990  1.7416  0.1143
13812TIP3   OH262926   2.618   2.641   1.805  0.0103  0.0559 -0.0861
13812TIP3    H162927   2.701   2.603   1.776 -0.6639 -1.5608 -0.0105
13812TIP3    H262928   2.612   2.725   1.759  1.5079  0.0335 -0.3604
13813TIP3   OH262929   2.623   3.555   0.289 -0.3862  0.1782 -0.0653
13813TIP3    H162930   2.634   3.580   0.381  0.8105  1.2369 -0.4688
13813TIP3    H262931   2.605   3.461   0.292  0.3023  0.0615  1.2183
13814TIP3   OH262932   4.559   4.169  16.542 -0.7641 -0.0257  0.2628
13814TIP3    H162933   4.490   4.129  16.595 -0.0757 -1.1910  0.3046
13814TIP3    H262934   4.535   4.262  16.538 -1.2183 -0.0255  2.0385
13815TIP3   OH262935   1.995   4.583  16.066  0.8214  0.0384  0.1237
13815TIP3    H162936   1.903   4.607  16.058  0.8441  0.3503  0.7894
13815TIP3    H262937   2.026   4.629  16.143  2.1145  1.7688 -1.3335
13816TIP3   OH262938   4.090   1.639   0.631  0.1664 -0.0184 -0.0726
13816TIP3    H162939   4.118   1.644   0.722 -0.7358  1.3024  0.1662
13816TIP3    H262940   4.034   1.561   0.627  1.1754 -0.7661  0.2044
13817TIP3   OH262941   6.275   4.251  12.305 -0.0735 -0.1609 -0.4407
13817TIP3    H162942   6.250   4.171  12.353  1.8487 -0.4132  0.2330
13817TIP3    H262943   6.221   4.249  12.226 -0.9853 -1.4521  0.1637
13818TIP3   OH262944   4.530   2.006  13.036 -0.0663 -0.4329 -0.3816
13818TIP3    H162945   4.552   2.098  13.023 -0.2213 -0.6036 -1.9702
13818TIP3    H262946   4.469   2.007  13.110 -1.6062  0.9863 -1.5737
13819TIP3   OH262947   3.638   0.138  15.998 -0.3300  0.0043  0.1876
13819TIP3    H162948   3.645   0.202  16.069  0.9186 -0.2038  0.2796
13819TIP3    H262949   3.597   0.186  15.926 -3.4338 -0.2877  1.6005
13820TIP3   OH262950   1.896   2.557   3.213 -0.7096 -0.6354  0.6215
13820TIP3    H162951   1.991   2.561   3.211 -0.7427  0.4620  0.0919
13820TIP3    H262952   1.872   2.601   3.294 -0.7866  0.3191  0.0984
13821TIP3   OH262953   3.691   4.685  11.015  0.8723 -0.4586 -0.3060
13821TIP3    H162954   3.672   4.718  11.103  0.7176  0.0273 -0.5211
13821TIP3    H262955   3.638   4.606  11.007  0.6250 -0.3180 -0.0863
13822TIP3   OH262956   2.755   2.769   2.877  0.2188 -0.4270  0.5244
13822TIP3    H162957   2.787   2.826   2.808 -0.1938 -1.4943 -0.5779
13822TIP3    H262958   2.833   2.746   2.927  0.6499 -0.2899 -0.0736
13823TIP3   OH262959   1.230   6.389  10.397  0.1132 -0.0213 -0.1158
13823TIP3    H162960   1.265   6.300  10.392 -0.4326 -0.3744  1.4905
13823TIP3    H262961   1.141   6.381  10.363  0.2934  0.0481 -0.5990
13824TIP3   OH262962   4.972   6.039  11.555 -0.6042 -0.1524 -0.4294
13824TIP3    H162963   4.943   6.107  11.616  1.0085  0.1279  0.0744
13824TIP3    H262964   4.910   6.045  11.482 -2.3029 -0.1976  0.9478
13825TIP3   OH262965   1.445   5.288  15.352 -0.5715 -0.0160 -0.5890
13825TIP3    H162966   1.387   5.363  15.364 -0.3587  0.9645 -4.3927
13825TIP3    H262967   1.390   5.222  15.309 -0.4171 -1.6608  1.5539
13826TIP3   OH262968   0.573   1.659  10.548  0.5371 -0.2777  0.0398
13826TIP3    H162969   0.499   1.647  10.488 -0.7965  0.0878  1.5466
13826TIP3    H262970   0.625   1.579  10.539  0.2315 -0.3447 -1.3787
13827TIP3   OH262971   1.427   0.922   3.526 -0.6382 -0.2282  0.1046
13827TIP3    H162972   1.486   0.848   3.510 -3.0723 -2.3005  0.0254
13827TIP3    H262973   1.357   0.910   3.463 -1.9956  1.1760  1.2778
13828TIP3   OH262974   1.636   2.211  16.496 -0.6401  0.0720 -0.6610
13828TIP3    H162975   1.666   2.292  16.455  0.2767 -0.0902 -0.3342
13828TIP3    H262976   1.550   2.231  16.531  0.4795  1.5924  1.4028
13829TIP3   OH262977   0.810   3.232   5.470 -0.3072  0.3298  0.0605
13829TIP3    H162978   0.799   3.326   5.476 -1.0958  0.2876 -0.5217
13829TIP3    H262979   0.721   3.197   5.463 -0.1782 -0.6404  2.3301
13830TIP3   OH262980   0.741   0.587   5.211 -0.2074  0.1256  0.2165
13830TIP3    H162981   0.771   0.559   5.297 -0.2667  0.5321  0.3716
13830TIP3    H262982   0.652   0.550   5.204 -0.0757 -0.1919  0.1865
13831TIP3   OH262983   0.118   2.072  16.536 -0.3369 -0.7454  0.2273
13831TIP3    H162984   0.194   2.013  16.544  1.3610  1.2047 -0.5933
13831TIP3    H262985   0.109   2.088  16.442 -0.2191  0.8812  0.4557
13832TIP3   OH262986   1.982   1.943   5.127  0.4574 -0.3231  0.1215
13832TIP3    H162987   2.064   1.916   5.086  1.0937  1.7016 -0.0397
13832TIP3    H262988   2.007   1.963   5.218  0.1022  0.0652  0.1360
13833TIP3   OH262989   3.116   1.140  15.137 -0.5882  0.0927 -0.1546
13833TIP3    H162990   3.111   1.044  15.140  1.5322 -0.0729  2.8031
13833TIP3    H262991   3.166   1.160  15.059  1.6678 -1.4991  0.7865
13834TIP3   OH262992   3.175   0.011   3.522 -0.2650  0.0596  0.3347
13834TIP3    H162993   3.199  -0.049   3.451  1.7571  0.1160  0.9088
13834TIP3    H262994   3.193   0.098   3.487  1.2602  0.0647  1.0452
13835TIP3   OH262995   0.951   4.606  12.984  0.0790 -0.1363  0.3004
13835TIP3    H162996   0.909   4.593  12.899  0.5681 -1.1903  0.2018
13835TIP3    H262997   0.895   4.559  13.046 -0.4833  0.9431  0.6397
13836TIP3   OH262998   1.278   1.826  15.296 -0.5427  0.3666  0.0542
13836TIP3    H162999   1.344   1.789  15.238 -0.7915  0.0092  0.0026
13836TIP3    H263000   1.321   1.903  15.335  0.9961 -1.5032  2.3118
13837TIP3   OH263001   3.185   4.242   5.546  0.3113 -0.0570 -0.4072
13837TIP3    H163002   3.209   4.151   5.529 -1.5900 -0.6364 -0.1441
13837TIP3    H263003   3.267   4.291   5.532  1.7043 -1.9284  0.7142
13838TIP3   OH263004   0.804   0.872   3.845 -0.2579 -0.1313 -0.3770
13838TIP3    H163005   0.834   0.876   3.936  1.3972  0.0324 -0.9085
13838TIP3    H263006   0.848   0.795   3.809  0.0154  0.4627 -1.3534
13839TIP3   OH263007   4.411   3.836  14.936 -0.1700 -0.5911  0.2360
13839TIP3    H163008   4.392   3.929  14.947 -0.4421 -0.8567  2.2964
13839TIP3    H263009   4.492   3.834  14.885 -0.3434  0.7549 -0.1198
13840TIP3   OH263010   0.916   5.795  16.588 -0.2544 -0.0512  0.2211
13840TIP3    H163011   0.967   5.739  16.647  1.9326  0.6592 -0.8742
13840TIP3    H263012   0.883   5.736  16.521  2.6192 -0.0659 -1.3169
13841TIP3   OH263013   2.702   3.156   4.260 -0.2947  0.1107  0.7022
13841TIP3    H163014   2.685   3.190   4.173 -0.7183 -0.3833  0.5898
13841TIP3    H263015   2.684   3.230   4.319  1.1039  0.8030  0.3140
13842TIP3   OH263016   4.716   3.073   3.619 -0.0827  0.2841 -0.2096
13842TIP3    H163017   4.802   3.117   3.618  1.1644 -1.9159  1.1840
13842TIP3    H263018   4.676   3.100   3.702 -1.0382  1.7417 -1.1072
13843TIP3   OH263019   0.482   1.596  14.297 -0.7144  0.3761 -0.1730
13843TIP3    H163020   0.441   1.597  14.384  0.4753 -1.8178  0.4995
13843TIP3    H263021   0.492   1.503  14.277  0.3896  0.8473 -2.0143
13844TIP3   OH263022   3.112   6.307   3.308  0.3640  0.0457  0.4102
13844TIP3    H163023   3.208   6.306   3.307  0.3888  0.2643  1.6226
13844TIP3    H263024   3.089   6.258   3.387 -0.5161  0.5698  0.4785
13845TIP3   OH263025   3.437   1.795   6.128 -0.0538 -0.0225  0.0539
13845TIP3    H163026   3.469   1.778   6.216 -3.6149  1.1647  1.7714
13845TIP3    H263027   3.394   1.713   6.102  0.2539 -0.0936 -0.2399
13846TIP3   OH263028   4.258   2.903   4.099 -0.0199 -0.2050 -0.1034
13846TIP3    H163029   4.230   2.994   4.114  0.8145  0.1461 -0.6145
13846TIP3    H263030   4.177   2.852   4.106 -0.5956  0.6443 -0.3729
13847TIP3   OH263031   5.442   3.558  12.164 -0.3432 -0.6118  0.3997
13847TIP3    H163032   5.477   3.559  12.253  0.5197 -2.3526  0.1182
13847TIP3    H263033   5.503   3.504  12.114 -1.4699 -0.6737 -0.9822
13848TIP3   OH263034   3.080   4.114   3.346  0.3865 -1.4699 -0.2629
13848TIP3    H163035   3.027   4.173   3.399  0.0929 -0.6054 -1.4713
13848TIP3    H263036   3.069   4.146   3.256  0.6107 -3.0659 -0.8975
13849TIP3   OH263037   5.215   2.598  16.593  0.0408  0.0473  0.1398
13849TIP3    H163038   5.173   2.522  16.553  0.1055  0.0299  0.1029
13849TIP3    H263039   5.303   2.567  16.617  0.1030  0.1405  0.0318
13850TIP3   OH263040   0.155   4.534  11.321 -0.8222 -0.9802  0.6284
13850TIP3    H163041   0.230   4.477  11.304  0.7206  1.0321  0.2582
13850TIP3    H263042   0.171   4.570  11.408  0.2585  1.6603 -0.5548
13851TIP3   OH263043   0.735   1.783  14.849 -0.0450  0.3889 -0.4802
13851TIP3    H163044   0.706   1.723  14.780 -2.9597  1.6865 -0.5208
13851TIP3    H263045   0.676   1.766  14.922  2.0031  0.1299  1.1850
13852TIP3   OH263046   2.573   2.400  16.755 -0.5763  0.5230 -0.3795
13852TIP3    H163047   2.560   2.383  16.848  0.3596  1.6979 -0.0131
13852TIP3    H263048   2.606   2.318  16.720 -0.0490  0.3449  0.5141
13853TIP3   OH263049   3.198   2.667   0.657  0.1594 -0.2789  0.5039
13853TIP3    H163050   3.212   2.577   0.684 -0.0744 -0.1881  0.9325
13853TIP3    H263051   3.246   2.675   0.574  2.3494 -0.0734  1.7278
13854TIP3   OH263052   4.433   3.146   0.426 -0.4569 -0.0250 -0.6461
13854TIP3    H163053   4.357   3.093   0.449 -0.0825 -1.1707 -1.9382
13854TIP3    H263054   4.436   3.146   0.331  0.9756  0.2578 -0.6346
13855TIP3   OH263055   6.632   3.495   3.670 -0.2938 -0.1967 -0.1004
13855TIP3    H163056   6.614   3.413   3.623 -0.0956 -0.0739 -0.3937
13855TIP3    H263057   6.598   3.480   3.758  0.9548 -1.1011  0.2640
13856TIP3   OH263058   1.352   5.851   3.635  0.5356 -0.2726 -0.3447
13856TIP3    H163059   1.445   5.831   3.628  0.6599  0.2980 -0.3915
13856TIP3    H263060   1.309   5.781   3.586  1.0992  0.9771 -2.8371
13857TIP3   OH263061   6.315   3.440  14.498 -0.1372  0.0948  0.1585
13857TIP3    H163062   6.254   3.462  14.427 -0.0382 -0.3305 -0.0625
13857TIP3    H263063   6.375   3.515  14.502 -1.1267  0.8717  0.8918
13858TIP3   OH263064   4.635   2.266   1.216  0.6061 -0.3823 -0.0693
13858TIP3    H163065   4.564   2.296   1.273 -0.0257 -1.8664 -0.0336
13858TIP3    H263066   4.654   2.177   1.246  0.8820 -0.8700 -1.5754
13859TIP3   OH263067   1.166   3.465  13.790 -0.0389  0.2603  0.3705
13859TIP3    H163068   1.120   3.519  13.727 -1.4887 -0.0765  1.1027
13859TIP3    H263069   1.254   3.504  13.795  0.0453  0.4326 -1.6351
13860TIP3   OH263070   1.119   2.095  16.841  0.3572 -0.0754  0.3838
13860TIP3    H163071   1.045   2.136  16.887 -0.9382 -0.1120 -1.5428
13860TIP3    H263072   1.196   2.136  16.879 -0.7456  1.5385  1.0046
13861TIP3   OH263073   1.608   4.182  11.083 -0.0422 -0.1798 -0.0304
13861TIP3    H163074   1.675   4.251  11.082  0.8049 -0.9864 -0.5769
13861TIP3    H263075   1.559   4.196  11.002 -1.0063  0.8320  0.6975
13862TIP3   OH263076   4.308   4.845  17.156  0.1942  0.7261 -0.2189
13862TIP3    H163077   4.320   4.848  17.061 -0.4107 -0.2584 -0.3446
13862TIP3    H263078   4.396   4.834  17.191  0.2693 -0.5513 -0.7624
13863TIP3   OH263079   6.200   0.866  13.928  0.6042 -0.5307  0.3753
13863TIP3    H163080   6.250   0.932  13.880  0.7878  0.1694  1.5138
13863TIP3    H263081   6.256   0.841  14.001 -0.3381 -0.3955  1.1571
13864TIP3   OH263082   2.098   4.954   4.770 -0.2259  0.3321  0.5745
13864TIP3    H163083   2.052   4.921   4.692 -1.7416 -1.5247  2.1442
13864TIP3    H263084   2.068   5.045   4.778  0.8164  0.9244 -1.5706
13865TIP3   OH263085   6.182   3.823  13.743  0.3257 -0.5678 -0.4881
13865TIP3    H163086   6.125   3.804  13.818  0.8645 -1.1627 -0.2292
13865TIP3    H263087   6.230   3.901  13.769  1.2045 -1.3191  0.1842
13866TIP3   OH263088   4.957   4.228   2.882 -0.8681 -0.6084  0.1956
13866TIP3    H163089   4.962   4.176   2.963 -0.9016 -0.3844  0.3418
13866TIP3    H263090   4.973   4.318   2.910  1.7950 -0.8131 -0.4198
13867TIP3   OH263091   1.810   6.139   0.400 -0.1286  0.4265 -0.3756
13867TIP3    H163092   1.766   6.056   0.380  0.5949  0.2796 -1.4518
13867TIP3    H263093   1.888   6.113   0.450 -0.1625  0.5050 -0.2811
13868TIP3   OH263094   1.659   2.096   1.662 -0.3817  0.0059  0.2595
13868TIP3    H163095   1.644   2.132   1.749  0.0747 -1.3434  0.9370
13868TIP3    H263096   1.630   2.004   1.669 -2.9123  0.5244 -1.7819
13869TIP3   OH263097   6.394   2.514  13.674  0.5171  0.0313  0.1324
13869TIP3    H163098   6.423   2.581  13.735 -3.0342 -0.4542  2.6962
13869TIP3    H263099   6.463   2.508  13.608  3.0164  2.9799  2.2630
13870TIP3   OH263100   2.973   2.015  11.266 -0.1673 -0.1757 -0.4556
13870TIP3    H163101   2.892   2.046  11.306  1.2649  1.5415  1.3154
13870TIP3    H263102   2.992   2.080  11.198  0.3142  0.1230 -0.0463
13871TIP3   OH263103   1.366   4.438   5.278 -0.0666 -0.6325 -0.0330
13871TIP3    H163104   1.294   4.442   5.216 -0.3883 -1.2328  0.2892
13871TIP3    H263105   1.370   4.345   5.304 -1.0695 -0.1238  2.1647
13872TIP3   OH263106   4.346   6.027   0.302 -0.1525  0.2358  0.4217
13872TIP3    H163107   4.327   5.982   0.385  1.4006  2.6309  2.2212
13872TIP3    H263108   4.262   6.065   0.276 -0.5862 -0.2279  1.1159
13873TIP3   OH263109   0.142   2.822  10.217 -0.3215  0.1069  0.5043
13873TIP3    H163110   0.083   2.773  10.275  0.9033 -0.7934  1.0259
13873TIP3    H263111   0.096   2.905  10.201 -2.0955 -0.8668  0.2318
13874TIP3   OH263112   0.880   5.636   0.485  0.1755  0.3331  0.0416
13874TIP3    H163113   0.894   5.577   0.411 -0.5627 -0.5841  0.5951
13874TIP3    H263114   0.912   5.587   0.561  1.1880  1.3744  0.3063
13875TIP3   OH263115   3.625   6.141   2.186  0.5394  0.1348 -0.7415
13875TIP3    H163116   3.611   6.048   2.199 -0.9546  0.5744  1.1687
13875TIP3    H263117   3.715   6.156   2.215  0.4169 -0.5299  0.0152
13876TIP3   OH263118   6.342   2.110   1.910 -0.9523 -0.4854  0.0802
13876TIP3    H163119   6.312   2.152   1.829 -0.5745 -0.2139  0.0765
13876TIP3    H263120   6.328   2.016   1.895  0.3655 -0.5731 -0.8557
13877TIP3   OH263121   3.206   5.409  13.235 -0.0657  0.2477 -0.3084
13877TIP3    H163122   3.175   5.404  13.326 -1.4073 -1.5077 -0.8005
13877TIP3    H263123   3.132   5.379  13.183  0.3011  2.2824 -2.1134
13878TIP3   OH263124   5.711   4.707   3.304 -0.4863 -0.1302  0.5565
13878TIP3    H163125   5.758   4.756   3.236  1.1957  0.5655  2.1245
13878TIP3    H263126   5.655   4.773   3.346 -0.9642 -0.3970  0.3531
13879TIP3   OH263127   0.784   1.861   2.079 -0.5406 -0.2554  0.3768
13879TIP3    H163128   0.729   1.811   2.020 -0.3250  0.4093 -0.3986
13879TIP3    H263129   0.727   1.929   2.114 -0.2232  0.4667 -0.4677
13880TIP3   OH263130   6.033   5.334  11.306 -0.4543 -0.5879 -0.4422
13880TIP3    H163131   6.034   5.341  11.401 -0.9496 -1.4755 -0.3560
13880TIP3    H263132   6.112   5.381  11.277 -0.5855  0.1367  0.3599
13881TIP3   OH263133   1.593   1.919  11.794 -0.5068  0.0597  0.2967
13881TIP3    H163134   1.602   1.856  11.722 -1.4939  0.1256  0.1069
13881TIP3    H263135   1.506   1.903  11.829 -0.8437  1.4469  0.1290
13882TIP3   OH263136   4.454   3.033  16.687 -0.4234 -0.2644  0.0628
13882TIP3    H163137   4.419   3.096  16.624 -1.9250 -1.7416 -0.6764
13882TIP3    H263138   4.495   2.965  16.632 -1.4789 -1.4190  0.6362
13883TIP3   OH263139   1.804   1.831   4.815  0.5018  0.2787  0.2468
13883TIP3    H163140   1.854   1.767   4.865 -0.5138 -2.0027 -1.4542
13883TIP3    H263141   1.803   1.796   4.726 -0.7817  2.2903 -0.6036
13884TIP3   OH263142   2.229   2.806  15.686  0.0662  0.1196  0.3242
13884TIP3    H163143   2.275   2.863  15.747  0.2523 -0.5287  0.7981
13884TIP3    H263144   2.208   2.863  15.611 -1.0320  1.1807  1.3898
13885TIP3   OH263145   4.789   0.621  17.174 -0.5340  0.3435 -0.1704
13885TIP3    H163146   4.844   0.560  17.223  0.7784  1.1764 -0.5454
13885TIP3    H263147   4.724   0.566  17.131  0.7752 -0.8408 -0.7165
13886TIP3   OH263148   6.111   4.696   0.785  0.8591  0.6526  0.0503
13886TIP3    H163149   6.144   4.654   0.705  0.6832  0.1191  0.2558
13886TIP3    H263150   6.185   4.749   0.815  0.9148  0.8835 -0.4863
13887TIP3   OH263151   2.067   5.711   1.118 -0.2456 -0.6515  0.2051
13887TIP3    H163152   2.058   5.627   1.161 -0.9265 -0.5856  0.2176
13887TIP3    H263153   2.160   5.719   1.098 -0.3457 -1.9747 -0.9434
13888TIP3   OH263154   2.586   3.215   4.732  0.4746 -0.1172 -0.4146
13888TIP3    H163155   2.569   3.249   4.820  2.2137 -0.4619  0.0916
13888TIP3    H263156   2.612   3.292   4.681  1.4024 -0.1836 -0.0745
13889TIP3   OH263157   0.169   1.882  14.277  0.3652 -0.2735  0.3094
13889TIP3    H163158   0.168   1.829  14.357  1.3382 -0.6469  0.0887
13889TIP3    H263159   0.260   1.878  14.247  0.1896  0.5418 -0.3702
13890TIP3   OH263160   3.862   2.296  14.287  0.1283  0.0112 -0.2427
13890TIP3    H163161   3.826   2.263  14.369  1.0820  0.2892  0.3000
13890TIP3    H263162   3.868   2.391  14.299  0.4715  0.0320 -0.5530
13891TIP3   OH263163   3.366   2.501  11.944  0.1787 -0.0049  0.0093
13891TIP3    H163164   3.427   2.496  12.017  1.1573  0.3201 -0.7722
13891TIP3    H263165   3.413   2.462  11.871 -0.5832  0.1680 -0.5851
13892TIP3   OH263166   1.384   1.436   0.789  0.4719  0.1026 -0.3224
13892TIP3    H163167   1.448   1.371   0.821  1.0637  0.2923 -1.0888
13892TIP3    H263168   1.432   1.486   0.723 -0.0655  1.1505  0.0668
13893TIP3   OH263169   3.953   6.828  16.261  0.0339  0.1260 -0.5405
13893TIP3    H163170   3.859   6.831  16.280  0.0559  0.1008 -0.4271
13893TIP3    H263171   3.959   6.834  16.165 -0.0753  0.3084 -0.5349
13894TIP3   OH263172   4.823   4.057  12.551  0.0183  0.4736 -0.1498
13894TIP3    H163173   4.905   4.097  12.523 -0.0498  0.4630 -0.3591
13894TIP3    H263174   4.840   4.028  12.641  0.3271  0.2400 -0.2833
13895TIP3   OH263175   1.648   6.016  11.464  0.1136  0.2107 -0.5179
13895TIP3    H163176   1.582   5.966  11.512  1.2588  0.1033  1.0175
13895TIP3    H263177   1.659   5.969  11.381 -0.3409 -0.8629  0.0182
13896TIP3   OH263178   2.738   1.710   2.663  0.1286  0.2477 -0.2877
13896TIP3    H163179   2.675   1.640   2.681  2.6199 -1.9237  0.6257
13896TIP3    H263180   2.778   1.685   2.579 -1.2451  2.4851 -1.7176
13897TIP3   OH263181   6.036   3.980  15.330 -0.2883  0.0723 -0.0703
13897TIP3    H163182   5.948   4.004  15.302 -0.1305  0.9918  0.1670
13897TIP3    H263183   6.091   4.053  15.299  0.3578 -0.3984 -0.0562
13898TIP3   OH263184   5.579   4.499  16.862  0.4397  0.5922 -0.0923
13898TIP3    H163185   5.633   4.450  16.799 -0.2214  1.3975 -1.3244
13898TIP3    H263186   5.534   4.564  16.809 -0.6809  0.8515  1.1328
13899TIP3   OH263187   3.484   6.673  12.369 -0.7691  0.7315  0.4959
13899TIP3    H163188   3.571   6.671  12.409 -0.2306  0.2318 -0.6307
13899TIP3    H263189   3.490   6.610  12.297 -3.1758 -2.0685  2.5156
13900TIP3   OH263190   3.333   4.020   5.908 -0.5169  0.1506 -0.2541
13900TIP3    H163191   3.389   3.953   5.868 -1.0100 -0.6833  0.4035
13900TIP3    H263192   3.262   4.032   5.845  0.6057  1.5770 -1.3269
13901TIP3   OH263193   2.707   1.155   4.895  0.2183  0.2058  0.2970
13901TIP3    H163194   2.650   1.214   4.945 -0.2848  2.0090 -2.2175
13901TIP3    H263195   2.655   1.075   4.884 -0.8246  0.8826  0.1845
13902TIP3   OH263196   6.298   6.226  14.801  0.1307 -0.2705  0.0972
13902TIP3    H163197   6.322   6.303  14.853 -0.9435 -0.5342  1.0325
13902TIP3    H263198   6.309   6.253  14.710  0.7740  0.6456  0.4348
13903TIP3   OH263199   4.490   4.495   0.070  0.6573  0.1721  0.2667
13903TIP3    H163200   4.411   4.441   0.069  0.3966  0.4119 -2.8852
13903TIP3    H263201   4.556   4.442   0.114 -0.5025 -1.2733  0.3170
13904TIP3   OH263202   6.624   6.621  14.751  0.0671 -0.4595  0.4897
13904TIP3    H163203   6.710   6.658  14.732  0.4981 -0.3268  2.4629
13904TIP3    H263204   6.629   6.532  14.717  0.3744  0.0637 -0.8912
13905TIP3   OH263205   1.873   5.827   2.218 -0.3235  0.2455  0.5325
13905TIP3    H163206   1.920   5.870   2.289 -0.3232  0.6201  0.3075
13905TIP3    H263207   1.937   5.765   2.181 -0.7104 -0.8677  1.6504
13906TIP3   OH263208   2.918   4.631  12.440 -0.0084 -0.0798 -0.1454
13906TIP3    H163209   2.844   4.605  12.494  0.4265 -0.2984  0.3647
13906TIP3    H263210   2.922   4.726  12.449 -1.3405  0.1514 -1.6665
13907TIP3   OH263211   0.293   0.716  15.981  0.1059  0.4069 -0.8122
13907TIP3    H163212   0.253   0.776  16.045  1.2072 -0.8581  1.1775
13907TIP3    H263213   0.254   0.631  16.000  3.0205 -0.7193  0.7003
13908TIP3   OH263214   1.480   0.881  13.359 -0.0379  0.0398  0.3226
13908TIP3    H163215   1.412   0.947  13.344 -1.0640 -0.9239  0.5830
13908TIP3    H263216   1.562   0.926  13.340 -0.7221  1.3420  0.3561
13909TIP3   OH263217   1.281   4.885  11.340  0.3366  0.1632 -0.2840
13909TIP3    H163218   1.303   4.870  11.248 -0.2815  0.2568 -0.4537
13909TIP3    H263219   1.296   4.800  11.383  2.8380  0.6730  0.0037
13910TIP3   OH263220   4.896   2.133   1.957 -0.2822 -0.4592 -0.0733
13910TIP3    H163221   4.961   2.066   1.938  2.6934  1.9928  0.6718
13910TIP3    H263222   4.907   2.198   1.887 -0.8758  0.7441  0.9070
13911TIP3   OH263223   3.470   4.665  15.557  0.5292  0.1665 -0.3910
13911TIP3    H163224   3.551   4.641  15.512  0.9958  2.1588 -0.6885
13911TIP3    H263225   3.401   4.635  15.498  1.0597 -0.4416 -0.7225
13912TIP3   OH263226   4.105   1.333   4.274  0.7264 -0.0177  0.1621
13912TIP3    H163227   4.016   1.297   4.279  0.4266  0.5578 -0.8851
13912TIP3    H263228   4.109   1.396   4.346  0.0474  0.4596 -0.2143
13913TIP3   OH263229   3.868   2.891  16.058 -0.2683  0.5409 -0.3287
13913TIP3    H163230   3.784   2.858  16.091 -0.4758  1.6493  0.2767
13913TIP3    H263231   3.845   2.947  15.985 -0.2784  2.6175  1.1760
13914TIP3   OH263232   3.968   6.347   1.379  0.8900 -0.0727  0.7601
13914TIP3    H163233   3.887   6.395   1.393  1.3442  0.5048  1.4771
13914TIP3    H263234   3.940   6.258   1.357  0.0298  0.5308 -0.7596
13915TIP3   OH263235   0.377   3.179  15.466 -0.0015 -0.4233  0.1167
13915TIP3    H163236   0.468   3.178  15.495 -0.1679  1.5698  0.8603
13915TIP3    H263237   0.341   3.096  15.497  0.6327  0.2756  3.0635
13916TIP3   OH263238   6.439   3.507   2.810  0.7096  0.2162  0.0863
13916TIP3    H163239   6.483   3.568   2.868 -0.3424  1.5681 -0.4846
13916TIP3    H263240   6.510   3.466   2.759  1.4363  0.8165  0.6025
13917TIP3   OH263241   0.679   5.637   4.662  0.0125 -0.2303  0.0474
13917TIP3    H163242   0.663   5.630   4.568 -0.9752 -0.7167  0.2319
13917TIP3    H263243   0.649   5.554   4.698 -1.5298  0.6868  1.0059
13918TIP3   OH263244   4.329   2.162   1.781 -0.3280 -0.3197  0.2207
13918TIP3    H163245   4.421   2.185   1.762 -0.5870  0.1016 -0.5693
13918TIP3    H263246   4.328   2.143   1.875 -0.0580  2.8892  0.9883
13919TIP3   OH263247   4.481   3.606  16.425  0.0006 -0.1298  0.0683
13919TIP3    H163248   4.493   3.696  16.455 -1.8033 -0.3466  1.6185
13919TIP3    H263249   4.510   3.552  16.499  0.4688 -0.8291 -0.5998
13920TIP3   OH263250   3.543   2.586  14.229 -0.0638 -0.1967 -0.2871
13920TIP3    H163251   3.524   2.526  14.302 -0.2234 -0.0629 -0.2196
13920TIP3    H263252   3.538   2.673  14.267  0.4836 -0.1493 -0.3163
13921TIP3   OH263253   5.654   0.726   2.774 -0.2482 -0.2015  0.2113
13921TIP3    H163254   5.748   0.704   2.774 -0.2617 -0.3589  1.5138
13921TIP3    H263255   5.651   0.817   2.745  0.2282 -0.4299 -0.6036
13922TIP3   OH263256   4.537   5.904  15.225 -0.1975 -0.0285  0.0429
13922TIP3    H163257   4.469   5.926  15.289  0.4349  0.5274  0.5406
13922TIP3    H263258   4.505   5.825  15.182 -2.0532  1.2721 -1.0761
13923TIP3   OH263259   3.589   2.540   3.662  0.2318 -0.6150  0.3473
13923TIP3    H163260   3.580   2.519   3.569  0.7609  0.3929  0.0593
13923TIP3    H263261   3.538   2.472   3.706 -0.6104 -0.7108 -0.7135
13924TIP3   OH263262   1.824   0.699   0.588 -0.2607 -0.1980 -0.0384
13924TIP3    H163263   1.911   0.723   0.619 -0.3845  0.8209 -0.4270
13924TIP3    H263264   1.804   0.616   0.632  1.1317 -0.7424 -0.3835
13925TIP3   OH263265   3.761   4.179  12.148  0.1936 -0.2938 -0.1794
13925TIP3    H163266   3.811   4.135  12.217  0.0122  2.6086  1.9761
13925TIP3    H263267   3.670   4.172  12.176  0.2408  2.3610  0.9526
13926TIP3   OH263268   4.864   3.639   1.465 -0.8636  0.0024  0.3209
13926TIP3    H163269   4.884   3.611   1.554  1.4079  2.0023  0.5608
13926TIP3    H263270   4.917   3.718   1.452 -3.0738  1.2793 -1.9409
13927TIP3   OH263271   3.397   2.549   6.127 -0.2052  0.1745 -0.2739
13927TIP3    H163272   3.311   2.513   6.148 -0.9316  1.1748 -1.3865
13927TIP3    H263273   3.399   2.551   6.031  0.8424  0.6653 -0.2512
13928TIP3   OH263274   0.557   3.461   1.649  0.1250 -0.3157 -0.0095
13928TIP3    H163275   0.527   3.547   1.678 -2.1626  0.1108 -3.1145
13928TIP3    H263276   0.615   3.479   1.575  1.1535 -1.4509  0.4763
13929TIP3   OH263277   6.242   0.328  12.692 -0.2508 -0.1882 -0.7305
13929TIP3    H163278   6.255   0.255  12.752 -1.0834 -0.5637 -0.9848
13929TIP3    H263279   6.319   0.383  12.704 -0.2623 -0.4014  0.4667
13930TIP3   OH263280   5.168   4.047  16.016  0.0269  0.0868 -0.0291
13930TIP3    H163281   5.121   4.119  15.974 -0.5120  1.9760  3.4215
13930TIP3    H263282   5.101   3.980  16.030 -0.4559  0.6519  0.4020
13931TIP3   OH263283   3.097   3.448   4.369  0.3678 -0.5189 -0.0488
13931TIP3    H163284   3.137   3.407   4.292  0.3028 -0.3594 -0.1685
13931TIP3    H263285   3.120   3.390   4.442  0.9733 -0.3286 -0.0861
13932TIP3   OH263286   4.172   4.147  11.792 -0.0004  0.6960 -0.2189
13932TIP3    H163287   4.168   4.242  11.789 -0.7728  0.7633  1.7428
13932TIP3    H263288   4.252   4.127  11.841 -1.3090  0.4630  1.9530
13933TIP3   OH263289   1.031   2.476  14.960  0.2473 -0.6428 -0.8107
13933TIP3    H163290   1.055   2.402  14.905  1.0669  0.3443 -1.8281
13933TIP3    H263291   1.043   2.553  14.904 -3.2149  0.1350 -0.7345
13934TIP3   OH263292   3.469   3.722   3.525  0.0867 -0.2170  0.0920
13934TIP3    H163293   3.492   3.761   3.441  0.2468 -0.2699  0.1104
13934TIP3    H263294   3.375   3.735   3.533 -0.4507 -2.6088 -1.3373
13935TIP3   OH263295   5.583   4.846   4.925 -0.3177  0.2524 -0.8070
13935TIP3    H163296   5.658   4.788   4.920  0.6555  1.4206 -0.2164
13935TIP3    H263297   5.509   4.792   4.896  0.4596 -1.4006  0.1579
13936TIP3   OH263298   0.560   1.145   3.058 -0.1726 -0.1459  0.0125
13936TIP3    H163299   0.569   1.237   3.030 -0.8866  0.0300  0.3561
13936TIP3    H263300   0.651   1.115   3.067  0.4377 -1.2522 -5.6513
13937TIP3   OH263301   1.990   2.394   5.689 -0.1829 -0.3257 -0.4525
13937TIP3    H163302   1.968   2.332   5.619  0.1213  0.1527 -0.9809
13937TIP3    H263303   1.917   2.456   5.688  0.0119 -0.0991 -0.6043
13938TIP3   OH263304   5.367   4.454   6.210  0.1988 -0.0049 -0.5358
13938TIP3    H163305   5.411   4.447   6.294 -0.0427 -0.1933 -0.4234
13938TIP3    H263306   5.279   4.418   6.225 -0.1605  0.8061 -0.6341
13939TIP3   OH263307   3.040   2.120   1.708 -0.1400  0.5560 -0.0035
13939TIP3    H163308   3.074   2.086   1.625  0.1950 -0.8926  0.7039
13939TIP3    H263309   2.963   2.066   1.726  0.6163 -0.1224  1.3320
13940TIP3   OH263310   5.862   3.770  11.603  0.2703 -0.5872 -0.0748
13940TIP3    H163311   5.940   3.775  11.548  0.7587  0.8591  0.6861
13940TIP3    H263312   5.869   3.685  11.647  1.7974 -0.1935  0.4932
13941TIP3   OH263313   2.744   5.067   1.970 -0.4980 -0.0888 -0.5456
13941TIP3    H163314   2.801   5.138   1.941  0.5513 -0.5082  0.4236
13941TIP3    H263315   2.672   5.110   2.016 -0.5533  0.4072 -1.0983
13942TIP3   OH263316   6.240   6.825   1.220 -0.5665  0.1724  0.0437
13942TIP3    H163317   6.317   6.794   1.173 -0.1550  0.7881  0.3071
13942TIP3    H263318   6.259   6.916   1.241 -1.6697  0.5739 -0.5529
13943TIP3   OH263319   6.313   5.865   3.990 -0.6805  0.1453 -0.3528
13943TIP3    H163320   6.375   5.803   3.953  1.2008  1.1790  0.9116
13943TIP3    H263321   6.359   5.904   4.065 -1.9857  2.6049 -0.7188
13944TIP3   OH263322   3.024   6.595   6.295 -0.0766 -0.6402  0.1321
13944TIP3    H163323   3.113   6.630   6.296 -0.8351  1.5015 -0.7919
13944TIP3    H263324   2.973   6.660   6.343 -1.1053 -2.0349  0.9814
13945TIP3   OH263325   3.723   0.363  11.389  0.0268  0.0035 -0.4062
13945TIP3    H163326   3.762   0.303  11.326  0.8782 -1.5091  1.4801
13945TIP3    H263327   3.797   0.405  11.432 -0.4351 -0.6578  1.1148
13946TIP3   OH263328   1.325   4.768   2.971  0.1007 -0.4639  0.2778
13946TIP3    H163329   1.391   4.816   2.922 -0.2438  0.2207  0.4756
13946TIP3    H263330   1.257   4.747   2.907  0.4482 -1.0668  0.0997
13947TIP3   OH263331   5.975   5.123   5.233 -0.1962 -0.2101 -0.2564
13947TIP3    H163332   5.927   5.163   5.305  0.1329 -2.2206  1.1650
13947TIP3    H263333   6.053   5.084   5.274  0.6930 -0.2907 -1.9118
13948TIP3   OH263334   2.462   4.936   2.188  0.0607  0.3488  0.0419
13948TIP3    H163335   2.419   4.943   2.273  0.9270 -0.4312  0.5551
13948TIP3    H263336   2.405   4.986   2.129 -1.9307 -1.1963  0.5430
13949TIP3   OH263337   1.665   2.159  15.546  0.1312 -0.0924  0.4574
13949TIP3    H163338   1.691   2.087  15.604 -0.5809  0.2223  1.1916
13949TIP3    H263339   1.747   2.187  15.505  0.5043 -0.9452  0.5931
13950TIP3   OH263340   1.180   3.646   3.413 -0.2747  0.3954  0.0330
13950TIP3    H163341   1.216   3.671   3.498  2.4445 -0.3339 -0.7981
13950TIP3    H263342   1.145   3.727   3.376 -0.7906  0.8649  1.4852
13951TIP3   OH263343   4.791   1.349   2.685  0.0976  0.1021 -0.1272
13951TIP3    H163344   4.815   1.430   2.641 -0.6414 -0.4044 -1.5127
13951TIP3    H263345   4.809   1.280   2.621 -2.0663 -0.5553 -0.1032
13952TIP3   OH263346   2.450   4.592  16.884  1.0264  0.2944  0.0516
13952TIP3    H163347   2.516   4.640  16.933  0.0889  2.3350 -0.5955
13952TIP3    H263348   2.388   4.562  16.950 -0.5440  3.5218  0.1929
13953TIP3   OH263349   0.532   0.722  16.608 -0.0770 -0.4986  0.1492
13953TIP3    H163350   0.581   0.737  16.689 -0.3509 -0.6555  0.3458
13953TIP3    H263351   0.539   0.804  16.559 -0.4675 -0.1802  0.6264
13954TIP3   OH263352   3.331   3.781  16.384  0.3866  0.4840  0.0624
13954TIP3    H163353   3.344   3.856  16.326 -1.3043  0.2054 -0.7520
13954TIP3    H263354   3.342   3.704  16.327  0.3521  0.1581  0.4898
13955TIP3   OH263355   0.269   2.161  13.346 -0.4070 -0.7499 -0.3792
13955TIP3    H163356   0.286   2.221  13.274 -2.0334 -2.4086 -2.2521
13955TIP3    H263357   0.313   2.080  13.321  0.0836 -1.0024  1.1549
13956TIP3   OH263358   4.117   6.799  11.126 -0.5696 -0.1544 -0.3591
13956TIP3    H163359   4.096   6.715  11.167  0.1461 -0.6804 -1.0368
13956TIP3    H263360   4.118   6.780  11.032  0.4343  0.4168 -0.4747
13957TIP3   OH263361   4.905   5.767  11.637  0.1890  0.3795 -0.3198
13957TIP3    H163362   4.951   5.850  11.632  0.1226  0.6298  2.1596
13957TIP3    H263363   4.969   5.706  11.673 -0.4605 -0.0514  0.1293
13958TIP3   OH263364   2.628   1.071  16.641  0.2146 -0.3439 -0.3984
13958TIP3    H163365   2.588   1.124  16.572 -0.1888 -1.0068 -0.6805
13958TIP3    H263366   2.722   1.089  16.634  0.0651  0.4956 -0.3471
13959TIP3   OH263367   1.186   0.736  14.988  0.0282 -0.0036 -0.8131
13959TIP3    H163368   1.094   0.759  14.996  0.5298  1.4565  1.6185
13959TIP3    H263369   1.186   0.643  14.965 -2.0351 -0.2819  0.1441
13960TIP3   OH263370   6.137   1.559  16.534  0.3188  0.0097 -0.4230
13960TIP3    H163371   6.056   1.545  16.583 -0.9827  0.4771 -2.3572
13960TIP3    H263372   6.200   1.500  16.575 -1.3278 -1.2898  0.3390
13961TIP3   OH263373   0.567   3.042  13.409  0.1023  0.2886  0.4199
13961TIP3    H163374   0.557   2.977  13.340  0.4949 -0.0885  0.7110
13961TIP3    H263375   0.660   3.036  13.434  0.5943  2.2330 -0.7866
13962TIP3   OH263376   0.214   6.184  10.553 -0.2962  0.2540 -0.1442
13962TIP3    H163377   0.237   6.114  10.492  0.0207 -0.3498  0.6493
13962TIP3    H263378   0.134   6.154  10.595 -1.7520  1.6433 -1.7696
13963TIP3   OH263379   5.377   1.552  13.266  0.1199 -0.1425  0.4420
13963TIP3    H163380   5.283   1.551  13.282  0.4401  0.5933  2.6993
13963TIP3    H263381   5.394   1.638  13.228 -0.1206 -0.3274 -0.0959
13964TIP3   OH263382   0.189   0.947   6.321 -0.4895 -0.6849  0.2693
13964TIP3    H163383   0.269   0.996   6.304 -1.6534  1.0127 -0.6737
13964TIP3    H263384   0.211   0.856   6.299  0.2843  0.2184 -3.3225
13965TIP3   OH263385   2.203   3.295   5.348 -0.3896  0.3898 -0.8897
13965TIP3    H163386   2.134   3.352   5.315 -0.8919  1.1474  1.2708
13965TIP3    H263387   2.204   3.311   5.443 -0.6269 -3.2987 -0.1022
13966TIP3   OH263388   2.116   0.672   0.728  0.4756 -0.1204  0.0497
13966TIP3    H163389   2.204   0.698   0.753  0.2876  0.2428  0.3462
13966TIP3    H263390   2.127   0.588   0.685  1.2308  0.9127 -1.8949
13967TIP3   OH263391   2.455   2.051   6.709  1.1822 -0.6207 -0.4072
13967TIP3    H163392   2.416   2.138   6.708 -1.2612 -1.6497 -1.8500
13967TIP3    H263393   2.522   2.054   6.641  0.6325 -0.0549 -0.9310
13968TIP3   OH263394   1.183   0.861   2.426 -0.0400 -0.1562  0.6008
13968TIP3    H163395   1.244   0.825   2.362  0.7100  0.5434  0.9030
13968TIP3    H263396   1.234   0.926   2.474 -1.2008  0.8872  0.4641
13969TIP3   OH263397   5.420   2.319  12.061  0.0389  0.6388  0.2318
13969TIP3    H163398   5.491   2.380  12.043  1.2375 -1.0190 -0.9747
13969TIP3    H263399   5.378   2.305  11.976 -0.2859 -0.1253  0.5102
13970TIP3   OH263400   0.976   6.175  11.383 -0.1754  0.2046  0.8412
13970TIP3    H163401   0.942   6.223  11.458  0.4725  0.2270  1.1241
13970TIP3    H263402   1.068   6.200  11.378  0.1414 -0.8990  0.9132
13971TIP3   OH263403   1.467   3.137  14.207 -0.5454  0.0626 -0.2472
13971TIP3    H163404   1.462   3.066  14.143 -1.3844  1.0844 -1.3655
13971TIP3    H263405   1.376   3.163  14.221 -0.4012 -0.2534  1.5269
13972TIP3   OH263406   4.181   2.032  14.060  0.4374 -0.1900  0.5393
13972TIP3    H163407   4.276   2.037  14.069  0.8113 -3.4361 -0.2857
13972TIP3    H263408   4.166   2.032  13.965 -0.6129  2.0595  0.6409
13973TIP3   OH263409   3.242   3.504   2.970  0.0960  0.0185  0.4419
13973TIP3    H163410   3.228   3.595   2.945  0.8766 -0.1179 -0.5359
13973TIP3    H263411   3.156   3.463   2.964 -0.0874  0.4748 -0.0190
13974TIP3   OH263412   5.076   2.665  16.184 -0.4108 -0.5201  0.3510
13974TIP3    H163413   5.007   2.682  16.248  0.2790 -1.5956  1.4271
13974TIP3    H263414   5.077   2.570  16.174  0.0718 -0.4311 -0.6210
13975TIP3   OH263415   6.356   3.178   2.758  0.1341  0.3150  0.1503
13975TIP3    H163416   6.379   3.116   2.827 -0.3737  1.2453  1.2036
13975TIP3    H263417   6.390   3.139   2.678  1.2374 -0.5494  0.9959
13976TIP3   OH263418   3.116   3.280  12.022 -0.2181 -0.4109 -0.1487
13976TIP3    H163419   3.186   3.215  12.020 -0.6856 -0.9879  1.0181
13976TIP3    H263420   3.035   3.229  12.020 -0.5952  0.1462  0.3502
13977TIP3   OH263421   3.835   4.562  12.683  0.0395 -0.4680  0.5114
13977TIP3    H163422   3.844   4.500  12.756  2.5043 -0.6610  0.1256
13977TIP3    H263423   3.865   4.513  12.607 -0.7883  0.3152 -0.3458
13978TIP3   OH263424   1.160   4.610  14.747 -0.1587  0.6010 -0.2525
13978TIP3    H163425   1.190   4.551  14.677  0.2976  2.3607 -1.6011
13978TIP3    H263426   1.070   4.632  14.723  0.1068  1.4617 -0.4690
13979TIP3   OH263427   3.658   4.396  13.632  0.1211 -0.3777 -0.0284
13979TIP3    H163428   3.726   4.424  13.694  1.4442 -2.1625 -0.5666
13979TIP3    H263429   3.687   4.432  13.548  1.6341 -2.7946 -0.6540
13980TIP3   OH263430   3.513   0.680  14.394 -0.3521  0.5427 -0.2217
13980TIP3    H163431   3.566   0.758  14.380  0.9810  0.0753  1.8537
13980TIP3    H263432   3.571   0.607  14.374 -0.5336  0.0333  1.0495
13981TIP3   OH263433   0.824   3.458  14.410 -0.3314  0.1251  0.1538
13981TIP3    H163434   0.919   3.461  14.420 -0.1257 -1.5295 -0.8575
13981TIP3    H263435   0.810   3.412  14.327 -2.0117  2.1156 -0.7626
13982TIP3   OH263436   5.539   2.758  15.357 -0.4539 -0.3806  0.4006
13982TIP3    H163437   5.584   2.770  15.441 -3.3898  0.0253  2.0313
13982TIP3    H263438   5.550   2.665  15.337 -1.8043 -1.0993  2.6231
13983TIP3   OH263439   0.957   5.849   0.168 -0.0006 -0.2211 -0.0573
13983TIP3    H163440   0.871   5.833   0.208  0.4986  0.6274  1.4435
13983TIP3    H263441   0.954   5.802   0.085 -1.4979 -1.1519  0.4841
13984TIP3   OH263442   0.912   5.498   0.216 -0.4271  0.6822  0.0972
13984TIP3    H163443   0.902   5.549   0.136 -0.7827  2.1611  1.0273
13984TIP3    H263444   1.006   5.495   0.232 -0.3544  0.3486 -0.3876
13985TIP3   OH263445   1.975   3.180  12.798  0.1064  0.0777 -0.1958
13985TIP3    H163446   2.006   3.266  12.767 -0.1477 -0.5891 -2.5204
13985TIP3    H263447   1.884   3.176  12.771 -0.6974  0.0793  2.2844
13986TIP3   OH263448   3.676   0.657   4.696 -0.5445 -0.0639  0.7154
13986TIP3    H163449   3.583   0.668   4.714 -0.5294  0.0155  0.7457
13986TIP3    H263450   3.699   0.574   4.739 -0.3806  0.4069  1.5622
13987TIP3   OH263451   4.371   6.358  15.820 -0.3367  0.2400 -0.4918
13987TIP3    H163452   4.354   6.359  15.914 -0.1625 -1.7323 -0.3885
13987TIP3    H263453   4.324   6.280  15.788 -0.1938  0.7335 -2.0046
13988TIP3   OH263454   0.913   4.180   6.107 -0.1431 -0.3034 -0.2416
13988TIP3    H163455   0.881   4.155   6.194  1.4738 -2.0875 -0.0849
13988TIP3    H263456   0.925   4.096   6.061  1.4869  0.4442 -1.2703
13989TIP3   OH263457   0.459   4.523   0.026 -0.4700 -0.0481  0.7723
13989TIP3    H163458   0.431   4.484  -0.056 -0.8587  2.2643 -0.2810
13989TIP3    H263459   0.480   4.449   0.082 -0.6375 -1.7147 -1.2428
13990TIP3   OH263460   6.006   5.756   5.279  0.0292 -0.1861 -0.0413
13990TIP3    H163461   5.997   5.744   5.374  2.2855  0.1733  0.2797
13990TIP3    H263462   5.917   5.747   5.245 -0.5485 -2.6606  1.8368
13991TIP3   OH263463   1.712   2.798  11.530  0.4609  0.2797 -0.5665
13991TIP3    H163464   1.719   2.741  11.607  0.5132 -0.3538 -1.0338
13991TIP3    H263465   1.641   2.759  11.478 -0.5256  1.4981 -0.1806
13992TIP3   OH263466   3.882   2.898  14.690 -0.0113 -0.8261  0.6950
13992TIP3    H163467   3.965   2.851  14.694  0.5899  0.1772  0.5813
13992TIP3    H263468   3.868   2.914  14.596  0.7904  0.8563  0.8144
13993TIP3   OH263469   5.984   6.539   4.526 -0.6583 -0.1798  0.1421
13993TIP3    H163470   5.904   6.557   4.477 -0.1453 -1.5799 -1.2861
13993TIP3    H263471   6.015   6.626   4.553 -2.9262  0.3591  1.2488
13994TIP3   OH263472   1.969   6.540   1.794  0.0031 -0.3924  0.8298
13994TIP3    H163473   2.006   6.600   1.859  1.8957  1.2654 -1.5731
13994TIP3    H263474   2.041   6.480   1.773 -0.9375 -1.6430  1.0693
13995TIP3   OH263475   2.469   6.401  13.958  0.0015  0.2222  0.4175
13995TIP3    H163476   2.374   6.415  13.954 -0.0353  0.1438  0.9591
13995TIP3    H263477   2.487   6.342  13.885 -0.6039 -1.0092  1.2290
13996TIP3   OH263478   0.294   4.352   6.571  0.3788 -0.0866 -0.8914
13996TIP3    H163479   0.344   4.351   6.489  2.7417  0.6188  0.4322
13996TIP3    H263480   0.294   4.261   6.600 -0.0202 -0.2563 -1.4198
13997TIP3   OH263481   1.589   0.134  17.038  0.0177 -0.3054  0.3144
13997TIP3    H163482   1.654   0.152  17.107 -0.4292 -0.6598  0.8343
13997TIP3    H263483   1.616   0.190  16.965  0.2470  0.4031  0.9300
13998TIP3   OH263484   6.001   0.584   0.134  0.4739 -0.2227 -0.3100
13998TIP3    H163485   6.079   0.548   0.176  0.8732  2.0916  1.1323
13998TIP3    H263486   5.957   0.632   0.204 -0.6817  0.9426 -1.7842
13999TIP3   OH263487   4.385   2.716   5.092 -0.5144 -0.6232 -0.1155
13999TIP3    H163488   4.309   2.659   5.106  0.2118 -1.5226  0.2516
13999TIP3    H263489   4.376   2.744   5.001 -1.2980 -0.6960 -0.0736
14000TIP3   OH263490   0.887   4.665   0.662 -0.2000 -0.1130  0.0552
14000TIP3    H163491   0.956   4.698   0.719 -0.8115 -1.2364  1.5150
14000TIP3    H263492   0.931   4.605   0.602  0.6431  1.9593 -1.5151
14001TIP3   OH263493   3.177   4.629   0.374  0.1886 -0.0579 -0.4249
14001TIP3    H163494   3.270   4.649   0.388 -0.0746  0.4994  0.5850
14001TIP3    H263495   3.142   4.615   0.462 -0.7794  0.1374 -0.7706
14002TIP3   OH263496   3.357   3.087   4.413  0.0093  0.3060 -0.4701
14002TIP3    H163497   3.381   3.001   4.447  1.7135  0.8302 -0.2150
14002TIP3    H263498   3.276   3.110   4.458  0.4302 -0.4528  0.7232
14003TIP3   OH263499   6.423   4.303  13.878  0.4189 -0.8061  0.0241
14003TIP3    H163500   6.351   4.360  13.905  0.7695 -0.1227 -0.4400
14003TIP3    H263501   6.462   4.273  13.960  0.6042  0.1278  0.2957
14004TIP3   OH263502   1.621   4.188  11.636  0.2759 -0.3373  0.2858
14004TIP3    H163503   1.653   4.271  11.673 -0.0698 -0.1269  0.1080
14004TIP3    H263504   1.578   4.145  11.710 -0.1090 -0.0712  0.2193
14005TIP3   OH263505   0.940   6.413   3.661 -0.5520 -0.5768  0.2790
14005TIP3    H163506   0.893   6.481   3.709 -2.1543 -2.8399  2.1409
14005TIP3    H263507   1.015   6.392   3.717 -0.7437 -1.1528  0.3266
14006TIP3   OH263508   2.257   0.076   2.233  0.3464 -0.1106  0.2072
14006TIP3    H163509   2.228   0.092   2.323  0.5841 -0.8461  0.4216
14006TIP3    H263510   2.342   0.033   2.243  0.9055  0.8225 -0.3927
14007TIP3   OH263511   4.247   2.744   1.718  0.6616  0.2305 -0.5023
14007TIP3    H163512   4.335   2.781   1.715  0.0639  1.6958 -1.0012
14007TIP3    H263513   4.235   2.717   1.809  2.3810 -2.0230 -0.8608
14008TIP3   OH263514   5.348   5.152  13.900  0.3354 -0.3849 -0.5679
14008TIP3    H163515   5.346   5.248  13.900  0.8707 -0.3448  1.1306
14008TIP3    H263516   5.352   5.128  13.992 -0.6117 -2.0816 -0.9292
14009TIP3   OH263517   4.582   1.329   1.653  0.1612  0.2747 -0.1020
14009TIP3    H163518   4.562   1.420   1.633 -1.6532 -0.1991 -0.6300
14009TIP3    H263519   4.636   1.300   1.579  0.1032  0.6961 -0.3149
14010TIP3   OH263520   4.154   5.758  10.996  0.4256  0.1306 -0.2113
14010TIP3    H163521   4.098   5.831  10.973 -1.1858 -1.3358 -1.1480
14010TIP3    H263522   4.200   5.736  10.915  0.0585 -0.5872 -0.2313
14011TIP3   OH263523   1.328   3.057  14.970 -0.8588 -0.3099 -0.6668
14011TIP3    H163524   1.323   3.145  14.933 -0.6325 -0.2937 -0.6603
14011TIP3    H263525   1.257   3.009  14.927 -2.5771  0.5151  1.0914
14012TIP3   OH263526   6.473   4.592  16.994  0.8693  0.2812 -0.3000
14012TIP3    H163527   6.405   4.604  16.927  0.3071  0.1625  0.2456
14012TIP3    H263528   6.528   4.670  16.985  0.1300  0.8339 -0.1318
14013TIP3   OH263529   0.055   6.467  10.812 -0.0937  0.2150  0.1955
14013TIP3    H163530   0.004   6.406  10.759  1.8875 -1.5841  0.2521
14013TIP3    H263531   0.073   6.541  10.754  1.7882 -1.5785 -1.6650
14014TIP3   OH263532   1.321   4.450  16.777  0.1047 -0.1534 -0.1394
14014TIP3    H163533   1.345   4.376  16.833 -0.2834 -0.9438 -1.0059
14014TIP3    H263534   1.401   4.503  16.773  0.5657 -0.8272  0.0182
14015TIP3   OH263535   0.170   6.096   4.727  0.2889  0.3181 -0.9113
14015TIP3    H163536   0.116   6.164   4.767 -1.6081 -2.3280  1.4255
14015TIP3    H263537   0.120   6.070   4.649 -0.7957 -0.6624  0.0751
14016TIP3   OH263538   5.806   5.994   4.065 -0.0142 -0.1336  0.1755
14016TIP3    H163539   5.757   5.936   4.122 -0.2646 -0.7428 -0.6446
14016TIP3    H263540   5.897   5.984   4.093 -0.1945 -0.0082  0.8190
14017TIP3   OH263541   5.002   4.319   1.287 -0.4241  0.4292  0.0518
14017TIP3    H163542   5.070   4.280   1.233 -0.5071 -1.6299  1.3389
14017TIP3    H263543   4.920   4.295   1.244 -0.4643 -0.6819  0.7077
14018TIP3   OH263544   0.162   1.518  14.727 -0.0920 -0.1547 -0.5129
14018TIP3    H163545   0.171   1.575  14.803 -0.5080  1.7083 -1.7647
14018TIP3    H263546   0.175   1.430  14.760 -0.3557  0.5905  1.7069
14019TIP3   OH263547   4.282   6.210   3.915 -0.0061 -0.3145  0.8526
14019TIP3    H163548   4.361   6.220   3.969  1.3198  0.3916 -1.0985
14019TIP3    H263549   4.315   6.190   3.828 -2.0244 -0.2855  0.0317
14020TIP3   OH263550   3.293   0.873  13.991  0.2691  0.0044 -0.2992
14020TIP3    H163551   3.383   0.852  13.967  0.3215 -0.6611  0.4317
14020TIP3    H263552   3.296   0.888  14.086 -1.0129 -3.9022  0.5179
14021TIP3   OH263553   5.799   5.351  15.963 -0.0229  0.3695 -0.2469
14021TIP3    H163554   5.866   5.355  15.895  0.0910 -0.0279 -0.1603
14021TIP3    H263555   5.777   5.258  15.971 -1.7303  0.6403 -1.3706
14022TIP3   OH263556   1.858   5.886   2.756 -0.2511 -0.0507 -0.1486
14022TIP3    H163557   1.831   5.839   2.677 -1.7317 -2.2859  1.5636
14022TIP3    H263558   1.800   5.962   2.758 -1.0222 -0.6109 -0.5944
14023TIP3   OH263559   6.657   4.682   4.056 -0.1062 -0.4312 -0.0345
14023TIP3    H163560   6.612   4.658   3.975  0.5894 -0.6142 -0.3821
14023TIP3    H263561   6.723   4.613   4.067  1.5514  0.9542 -0.7319
14024TIP3   OH263562   1.727   6.325  16.831 -0.0038 -0.1571 -0.5542
14024TIP3    H163563   1.662   6.347  16.764 -0.6343 -0.6636 -0.1193
14024TIP3    H263564   1.691   6.248  16.875 -0.4307  1.1404  1.4851
14025TIP3   OH263565   0.629   5.921  14.798  0.9251  0.2630 -0.0053
14025TIP3    H163566   0.674   5.976  14.733 -0.5527  0.3969 -0.9631
14025TIP3    H263567   0.556   5.976  14.828  0.0007 -0.7954 -0.2582
14026TIP3   OH263568   5.253   0.675   6.130  0.0255  0.0180 -0.0885
14026TIP3    H163569   5.305   0.755   6.121 -0.1081  0.2127  0.8539
14026TIP3    H263570   5.188   0.696   6.196  0.8817 -1.3222  1.2394
14027TIP3   OH263571   3.859   6.052  11.147 -0.1621  0.7634 -0.5859
14027TIP3    H163572   3.770   6.049  11.111 -0.0813 -1.0862 -0.7397
14027TIP3    H263573   3.901   6.125  11.102 -1.0826  0.5747 -1.8060
14028TIP3   OH263574   2.882   0.281  16.229 -0.4468  0.6208 -0.5840
14028TIP3    H163575   2.828   0.302  16.305  2.0309 -0.6694  1.6892
14028TIP3    H263576   2.881   0.362  16.176  0.3601  2.8170  2.4907
14029TIP3   OH263577   3.963   3.383   3.406 -0.1689  0.1326 -0.2090
14029TIP3    H163578   3.896   3.315   3.397 -0.7318  0.5062  0.9214
14029TIP3    H263579   3.913   3.465   3.408  0.5015  0.6227 -1.6155
14030TIP3   OH263580   3.482   4.514   3.699 -0.2924 -0.4182 -0.0003
14030TIP3    H163581   3.412   4.453   3.676  1.5189 -2.3304 -0.8061
14030TIP3    H263582   3.527   4.532   3.616  0.5196  0.2960  0.5718
14031TIP3   OH263583   1.874   6.569   5.254  0.0494  0.4483  0.5235
14031TIP3    H163584   1.829   6.561   5.170 -1.5921 -0.3191  1.4066
14031TIP3    H263585   1.892   6.478   5.280  0.1496  0.6481  1.1753
14032TIP3   OH263586   0.982   5.064   5.451 -0.0997 -0.5262  0.2281
14032TIP3    H163587   0.913   5.126   5.427 -0.6132 -0.6062  1.4377
14032TIP3    H263588   0.982   5.063   5.547  0.6362 -1.5815  0.2406
14033TIP3   OH263589   1.654   4.094   1.716 -0.2243  0.2416  0.1424
14033TIP3    H163590   1.659   3.998   1.715 -0.8609  0.1966  0.6306
14033TIP3    H263591   1.742   4.123   1.741 -0.3675 -0.2568  1.2885
14034TIP3   OH263592   6.396   1.993   1.291 -0.1030 -0.4604 -0.1569
14034TIP3    H163593   6.347   2.040   1.223  0.5808 -0.0348 -0.3646
14034TIP3    H263594   6.406   2.057   1.361  1.6703  0.0688 -0.8279
14035TIP3   OH263595   2.687   1.963   5.271 -0.3919 -0.2942 -0.5728
14035TIP3    H163596   2.626   2.015   5.219 -0.4011  1.7550  1.3022
14035TIP3    H263597   2.688   2.006   5.357  1.5642 -1.9435  0.3327
14036TIP3   OH263598   3.262   1.483  11.327 -0.2275  0.2316  0.2546
14036TIP3    H163599   3.283   1.573  11.304  0.2439  0.4316  1.3822
14036TIP3    H263600   3.167   1.483  11.339 -0.6162 -0.0461 -2.2097
14037TIP3   OH263601   3.671   0.307  12.080  0.6321  0.0883 -0.2465
14037TIP3    H163602   3.669   0.292  12.174  0.1056 -0.1516 -0.2903
14037TIP3    H263603   3.702   0.224  12.042  0.3121 -0.0005 -0.3173
14038TIP3   OH263604   5.008   3.253  15.909 -0.2854  1.0686  0.0042
14038TIP3    H163605   5.001   3.157  15.914  0.7616  1.0462  1.4707
14038TIP3    H263606   4.987   3.283  15.997 -2.2049  2.3415 -0.8229
14039TIP3   OH263607   3.733   2.303  15.419 -0.2350 -0.0478 -0.1831
14039TIP3    H163608   3.654   2.355  15.404  0.2750  1.2305  1.3292
14039TIP3    H263609   3.751   2.262  15.334 -1.9361  0.4504 -0.8181
14040TIP3   OH263610   5.644   0.366   1.719 -0.3417 -0.1530 -0.3919
14040TIP3    H163611   5.597   0.402   1.644  0.1261  0.3888 -0.4364
14040TIP3    H263612   5.579   0.363   1.789  0.0278  2.7078  0.2171
14041TIP3   OH263613   3.189   0.976  12.709  0.3303 -0.1626  0.0226
14041TIP3    H163614   3.271   0.983  12.659  1.3472 -0.8473  1.5231
14041TIP3    H263615   3.146   0.898  12.673 -0.3357  0.9000 -1.6348
14042TIP3   OH263616   5.866   5.558   2.225 -0.4139  0.5332 -0.2332
14042TIP3    H163617   5.775   5.529   2.216 -0.3752  0.6103 -0.8973
14042TIP3    H263618   5.871   5.638   2.173 -0.1853  1.0220  0.5118
14043TIP3   OH263619   0.852   3.997  12.640 -0.5865 -0.0126 -0.7040
14043TIP3    H163620   0.789   4.059  12.676  0.3010  0.5674 -0.1200
14043TIP3    H263621   0.829   3.913  12.682 -0.8469  0.2323 -0.3507
14044TIP3   OH263622   0.680   4.674   0.247  0.8768 -0.3521 -0.1163
14044TIP3    H163623   0.762   4.637   0.214  0.8465 -0.9025  0.4000
14044TIP3    H263624   0.615   4.604   0.235  0.9892 -0.8137  1.6264
14045TIP3   OH263625   2.999   4.006  14.485 -0.3991 -0.0104 -0.6110
14045TIP3    H163626   3.087   4.042  14.497 -0.6425  0.4767 -0.2562
14045TIP3    H263627   2.974   3.975  14.572 -0.6967  0.1236 -0.6484
14046TIP3   OH263628   0.207   4.098   0.929  0.2089 -0.1318 -0.3799
14046TIP3    H163629   0.151   4.175   0.940 -1.7242 -1.5662  0.4102
14046TIP3    H263630   0.146   4.026   0.916  1.8441 -1.8907  1.0865
14047TIP3   OH263631   5.602   1.822  16.172 -0.1672  0.3283 -0.1147
14047TIP3    H163632   5.591   1.784  16.085  0.7972 -0.5043  0.1142
14047TIP3    H263633   5.522   1.873  16.186 -0.5916 -0.0028 -1.2427
14048TIP3   OH263634   2.194   1.347  15.801  0.1190 -0.4468  0.0944
14048TIP3    H163635   2.171   1.301  15.721  3.3076  1.1757 -1.9886
14048TIP3    H263636   2.161   1.436  15.788 -0.4218 -0.4667  1.1866
14049TIP3   OH263637   1.664   5.543   4.982  0.5492 -0.4747  0.3683
14049TIP3    H163638   1.595   5.538   5.048 -0.8180  0.7170 -0.9107
14049TIP3    H263639   1.638   5.480   4.915  0.0211  0.8113 -0.6868
14050TIP3   OH263640   2.494   6.218  12.513 -0.0352  0.3539  0.2879
14050TIP3    H163641   2.431   6.171  12.458  0.6046 -0.6118  0.3637
14050TIP3    H263642   2.576   6.170  12.503  0.3931  0.8797  1.1363
14051TIP3   OH263643   4.519   2.553  11.389  0.4769  0.0920  0.1601
14051TIP3    H163644   4.463   2.529  11.315 -0.2595  0.4651  0.5822
14051TIP3    H263645   4.485   2.500  11.462  0.2981  0.7464  0.5547
14052TIP3   OH263646   1.114   4.068   4.434 -0.6261  0.2912 -0.0050
14052TIP3    H163647   1.186   4.047   4.494 -1.1219  0.9574  0.8538
14052TIP3    H263648   1.086   3.984   4.399 -1.5940 -0.3746  2.2089
14053TIP3   OH263649   4.975   6.063  15.319  0.2522  0.4876 -0.2683
14053TIP3    H163650   4.951   6.061  15.412  0.6115  0.8048 -0.1632
14053TIP3    H263651   5.070   6.070  15.319  0.1661  2.3484 -0.6224
14054TIP3   OH263652   1.027   1.298   2.708 -0.2014  0.0495 -0.3150
14054TIP3    H163653   0.965   1.261   2.646 -1.5539  0.9881  0.4359
14054TIP3    H263654   1.032   1.234   2.779 -1.8988  0.8688  0.5871
14055TIP3   OH263655   2.921   0.232   4.875 -0.4815  0.4840  0.2042
14055TIP3    H163656   2.835   0.212   4.913 -0.1917  1.0823  1.2218
14055TIP3    H263657   2.964   0.147   4.866 -1.3357  0.1283 -0.7385
14056TIP3   OH263658   2.423   0.536  16.884  0.0865 -0.6105  0.2217
14056TIP3    H163659   2.476   0.587  16.822 -0.1745 -1.0162 -0.3404
14056TIP3    H263660   2.479   0.461  16.907  0.7819  0.2974  1.6437
14057TIP3   OH263661   0.486   1.488   3.736  0.4965 -0.4147 -0.5350
14057TIP3    H163662   0.509   1.432   3.810  1.1630 -1.3785 -1.4413
14057TIP3    H263663   0.568   1.529   3.710  0.2439  0.0071 -0.6739
14058TIP3   OH263664   0.638   5.262   2.743 -0.5230 -0.3335 -0.0348
14058TIP3    H163665   0.566   5.324   2.754 -0.3559  0.5990 -3.1567
14058TIP3    H263666   0.595   5.177   2.735 -1.3135  0.1485 -1.3535
14059TIP3   OH263667   2.898   0.466  15.800  0.6692  0.3701 -0.1140
14059TIP3    H163668   2.816   0.507  15.827  1.2776  1.2699  0.3994
14059TIP3    H263669   2.888   0.374  15.826  0.3526  0.7512  1.1601
14060TIP3   OH263670   4.344   3.696   2.233 -0.0872  0.3536  0.0903
14060TIP3    H163671   4.302   3.779   2.252  0.1531  0.8734 -1.5269
14060TIP3    H263672   4.331   3.644   2.312 -2.9543  0.8080  0.0221
14061TIP3   OH263673   5.975   6.093   0.711 -0.0056 -0.4427 -0.0836
14061TIP3    H163674   5.953   6.185   0.697  0.3558 -0.3646 -0.1635
14061TIP3    H263675   5.891   6.049   0.723 -0.2515 -0.2599 -1.0139
14062TIP3   OH263676   4.804   0.330  12.668 -0.1645  0.1053  1.1319
14062TIP3    H163677   4.826   0.397  12.732  0.0387  0.4995  0.6584
14062TIP3    H263678   4.765   0.379  12.595 -1.2554 -0.4258  1.3421
14063TIP3   OH263679   6.442   3.122  12.859 -0.2133 -0.3377  0.1320
14063TIP3    H163680   6.484   3.048  12.816 -0.8413 -1.5559  1.5278
14063TIP3    H263681   6.469   3.115  12.950  0.0503  1.4126  0.2128
14064TIP3   OH263682   6.025   2.231   3.988  0.2187 -0.4434  0.2909
14064TIP3    H163683   5.977   2.171   3.931  0.4518 -0.2928 -0.0687
14064TIP3    H263684   6.088   2.273   3.930  1.1240 -0.9917  0.8607
14065TIP3   OH263685   0.882   3.471  16.870 -0.1333 -0.2784  0.0716
14065TIP3    H163686   0.873   3.556  16.826  0.1423  0.0155  0.5728
14065TIP3    H263687   0.794   3.433  16.866  0.1634 -0.8501 -1.8887
14066TIP3   OH263688   2.032   2.509  13.233 -0.0648  0.4503 -0.1836
14066TIP3    H163689   2.028   2.593  13.187  1.5302  2.1848  2.5471
14066TIP3    H263690   1.989   2.525  13.317 -0.5916 -1.7756  0.0213
14067TIP3   OH263691   3.690   3.152  13.955 -0.5678  0.0432  0.8929
14067TIP3    H163692   3.638   3.101  14.017 -0.1561 -2.1017 -0.4142
14067TIP3    H263693   3.646   3.237  13.950 -2.6685 -0.9608  1.4519
14068TIP3   OH263694   3.204   0.129   0.304 -0.3648 -0.1272 -0.7955
14068TIP3    H163695   3.264   0.087   0.242  0.8605  1.9984 -1.1567
14068TIP3    H263696   3.231   0.097   0.390 -0.1715 -0.8674 -1.1228
14069TIP3   OH263697   2.096   4.047  14.340  0.1575  0.2897  0.6136
14069TIP3    H163698   2.074   4.030  14.248  0.9479 -0.7038  0.5906
14069TIP3    H263699   2.024   4.102  14.372  0.2736  1.3097 -0.7971
14070TIP3   OH263700   1.683   1.690   2.642  0.4034 -0.4891  0.3929
14070TIP3    H163701   1.701   1.718   2.731  0.3546  2.7583 -0.4937
14070TIP3    H263702   1.751   1.626   2.623  1.0095 -0.5027  2.4252
14071TIP3   OH263703   3.544   1.550   0.458  0.2488  0.2628 -0.1603
14071TIP3    H163704   3.485   1.475   0.453  2.0146 -1.1048 -2.8361
14071TIP3    H263705   3.498   1.621   0.414  0.0010 -0.3561 -0.9161
14072TIP3   OH263706   0.334   0.805   1.674 -0.3191 -0.3538  0.3552
14072TIP3    H163707   0.317   0.815   1.580  0.8624 -0.7164  0.0945
14072TIP3    H263708   0.256   0.761   1.708 -0.1414 -1.5386 -0.7200
14073TIP3   OH263709   3.428   3.636   1.776  0.3121 -0.1348  0.1593
14073TIP3    H163710   3.502   3.697   1.781  2.2773 -2.2689 -0.9323
14073TIP3    H263711   3.353   3.691   1.753  1.8333  1.9468 -0.1257
14074TIP3   OH263712   2.271   6.581  12.111 -0.1716  0.8267  0.8819
14074TIP3    H163713   2.298   6.554  12.023 -2.3864 -3.4088  1.2319
14074TIP3    H263714   2.336   6.542  12.169 -0.0530  1.5710  1.2682
14075TIP3   OH263715   3.040   0.877  13.364 -0.2010  0.3677  0.0141
14075TIP3    H163716   2.997   0.794  13.344  0.8735 -0.8104  2.2043
14075TIP3    H263717   2.968   0.936  13.387 -0.8464 -0.8132  1.1631
14076TIP3   OH263718   0.323   2.593   0.981  0.3193  0.1451  0.0375
14076TIP3    H163719   0.407   2.585   0.935 -0.3585 -0.1790 -1.1945
14076TIP3    H263720   0.258   2.563   0.917 -0.5292 -2.1326  1.8204
14077TIP3   OH263721   3.770   1.821   5.901 -0.0857  0.2665  0.1324
14077TIP3    H163722   3.764   1.771   5.983  1.9501 -0.4167 -0.0961
14077TIP3    H263723   3.862   1.847   5.895 -0.0818 -0.0936 -2.1844
14078TIP3   OH263724   0.885   5.355   1.066  0.1403  0.1636 -0.5904
14078TIP3    H163725   0.943   5.318   0.999  0.0444 -0.8080 -0.1517
14078TIP3    H263726   0.797   5.331   1.036  0.1681 -2.2735  0.9723
14079TIP3   OH263727   2.813   3.153   2.522  0.9244  0.9694  0.3845
14079TIP3    H163728   2.882   3.200   2.476 -0.1354  1.8335 -0.3790
14079TIP3    H263729   2.736   3.162   2.466  0.8912 -2.7626 -0.4652
14080TIP3   OH263730   1.592   6.558  11.140 -0.5655  0.2075 -0.1642
14080TIP3    H163731   1.613   6.546  11.047 -0.0894  0.6210 -0.1130
14080TIP3    H263732   1.675   6.580  11.181 -0.5910 -0.9158  0.5363
14081TIP3   OH263733   4.221   4.911   5.976  0.3421  0.0315  0.1212
14081TIP3    H163734   4.229   4.822   5.942  0.5832  0.1391 -0.1047
14081TIP3    H263735   4.163   4.902   6.052  0.9969 -0.4547  0.5824
14082TIP3   OH263736   2.520   4.042   0.766 -0.1092  0.3015  0.3621
14082TIP3    H163737   2.473   3.996   0.696  1.3346  1.6848 -1.5838
14082TIP3    H263738   2.464   4.116   0.788  0.2353  0.8462 -0.5742
14083TIP3   OH263739   0.921   6.020  15.156 -0.3859 -0.2824  0.1605
14083TIP3    H163740   0.967   5.958  15.213 -0.3067 -0.8787 -0.5357
14083TIP3    H263741   0.903   5.970  15.076 -0.9149  0.3985 -0.1528
14084TIP3   OH263742   2.849   3.381  16.447  0.4456  0.2494 -0.3254
14084TIP3    H163743   2.794   3.442  16.497 -0.7868 -0.5042 -0.7210
14084TIP3    H263744   2.830   3.295  16.485  0.9142 -0.0900 -0.8463
14085TIP3   OH263745   4.617   4.572  16.234  1.0044  0.4076 -0.4218
14085TIP3    H163746   4.571   4.649  16.269  0.9889  0.5549 -0.7664
14085TIP3    H263747   4.708   4.586  16.260  0.7172 -0.3712  1.1348
14086TIP3   OH263748   1.324   2.198   3.751 -0.1258  0.7266  0.1856
14086TIP3    H163749   1.277   2.116   3.734  0.8506  0.4139 -1.1232
14086TIP3    H263750   1.292   2.259   3.685  0.6739  0.7670 -0.1735
14087TIP3   OH263751   5.733   5.452   5.576 -0.4676  0.6548 -0.1775
14087TIP3    H163752   5.796   5.522   5.557  1.7116 -1.0530  0.2949
14087TIP3    H263753   5.650   5.485   5.542  0.8207  2.7057 -1.5977
14088TIP3   OH263754   1.157   0.459   1.959  0.8900  0.1013  0.0976
14088TIP3    H163755   1.179   0.452   2.052  1.3318 -0.7392 -0.0531
14088TIP3    H263756   1.098   0.386   1.943  0.4837  0.4922 -0.1961
14089TIP3   OH263757   3.819   6.653   6.992  0.2990  0.2000 -0.1459
14089TIP3    H163758   3.757   6.676   6.923  0.5361 -0.4711 -0.5976
14089TIP3    H263759   3.776   6.584   7.042  0.4123  0.1886 -0.0624
14090TIP3   OH263760   0.117   5.150  16.757  0.0503 -0.1987 -0.3264
14090TIP3    H163761   0.193   5.195  16.795 -0.9347  2.2579 -1.0750
14090TIP3    H263762   0.130   5.156  16.663 -0.3567 -1.1084 -0.4504
14091TIP3   OH263763   0.833   2.403   0.846 -0.1473  0.0781 -0.3602
14091TIP3    H163764   0.876   2.325   0.809 -1.0618  0.4290 -2.3177
14091TIP3    H263765   0.868   2.476   0.795  0.5248  0.9702  1.3019
14092TIP3   OH263766   3.494   2.663  15.041 -0.0831 -0.2607 -0.1021
14092TIP3    H163767   3.545   2.744  15.034 -0.9754  0.2222 -1.3139
14092TIP3    H263768   3.511   2.617  14.959 -2.0972  0.2423 -0.8444
14093TIP3   OH263769   0.191   6.250   3.036  0.1400  0.6583  0.1068
14093TIP3    H163770   0.275   6.295   3.032 -0.0909  1.0389 -0.6915
14093TIP3    H263771   0.144   6.279   2.958 -0.0035 -1.0032 -0.4648
14094TIP3   OH263772   0.120   3.854  14.319 -0.7556  0.3664 -0.1103
14094TIP3    H163773   0.150   3.799  14.390 -0.7739 -1.2664 -1.3012
14094TIP3    H263774   0.186   3.923  14.311  1.6389 -1.8822 -1.2718
14095TIP3   OH263775   3.887   1.090  10.760 -0.3172  0.2697 -0.1099
14095TIP3    H163776   3.898   1.178  10.724  2.2440  1.1451  2.4024
14095TIP3    H263777   3.834   1.104  10.839 -1.3730 -0.7478 -0.6229
14096TIP3   OH263778   3.056   4.430  10.541 -0.0323 -0.3404 -0.1843
14096TIP3    H163779   2.988   4.493  10.565  0.1466 -0.8179  1.7248
14096TIP3    H263780   3.007   4.350  10.519 -0.2945  0.5020 -3.1182
14097TIP3   OH263781   3.466   2.023  15.768 -0.2610  0.0875  0.2542
14097TIP3    H163782   3.428   2.079  15.700 -0.3756  0.0160  0.2592
14097TIP3    H263783   3.553   2.001  15.735 -0.5083 -0.3731 -0.1096
14098TIP3   OH263784   2.286   0.646  14.729 -0.1428 -0.3223  0.4045
14098TIP3    H163785   2.295   0.729  14.776 -1.1350 -1.5094  2.8748
14098TIP3    H263786   2.375   0.610  14.726  0.5549  1.3821 -1.9534
14099TIP3   OH263787   5.335   0.000   4.451 -0.2211 -0.6277 -0.1405
14099TIP3    H163788   5.305   0.035   4.535  0.2833 -0.0031 -0.2042
14099TIP3    H263789   5.342  -0.094   4.464 -1.7994 -0.7470 -0.0126
14100TIP3   OH263790   0.287   6.163  12.549 -0.1419  0.5418  0.4098
14100TIP3    H163791   0.329   6.249  12.560  0.7060  0.0014  1.6111
14100TIP3    H263792   0.310   6.136  12.460  1.1817  0.7381  0.6726
14101TIP3   OH263793   2.661   5.838  11.685  0.1356 -0.0589  0.1516
14101TIP3    H163794   2.748   5.813  11.714  1.7318  3.5489 -0.9995
14101TIP3    H263795   2.666   5.837  11.589 -1.5874 -1.1179  0.0126
14102TIP3   OH263796   0.689   2.535   4.518  0.1482  0.0657 -0.1314
14102TIP3    H163797   0.678   2.512   4.611  1.3744  0.5486  0.1495
14102TIP3    H263798   0.719   2.626   4.519 -1.2955  0.5832 -1.0878
14103TIP3   OH263799   3.481   1.041   0.688 -0.0850  0.5410  0.1414
14103TIP3    H163800   3.443   1.071   0.605 -0.0056 -0.1363 -0.1460
14103TIP3    H263801   3.479   0.945   0.682  1.4210  0.4885  0.2325
14104TIP3   OH263802   1.192   5.178  12.852  0.0895 -0.1946  0.5702
14104TIP3    H163803   1.231   5.180  12.765 -1.1589 -0.2653 -0.0033
14104TIP3    H263804   1.164   5.269  12.868 -0.2279 -0.3081  0.6524
14105TIP3   OH263805   4.138   3.008  12.204  0.1935 -0.2753 -0.7347
14105TIP3    H163806   4.151   3.039  12.293 -1.6917  0.9086 -0.8209
14105TIP3    H263807   4.108   2.918  12.214 -1.1248  0.2123 -0.0861
14106TIP3   OH263808   0.074   2.641   1.961 -0.5424  0.0196 -0.3482
14106TIP3    H163809   0.161   2.606   1.942  0.0073  0.0029  1.9664
14106TIP3    H263810   0.052   2.693   1.884  0.7394 -1.3780 -1.7351
14107TIP3   OH263811   6.160   0.662   2.992 -0.2982 -0.3526 -0.4996
14107TIP3    H163812   6.103   0.592   3.024 -0.0252 -0.6328 -0.6227
14107TIP3    H263813   6.243   0.647   3.035 -0.7042  0.9078  0.8166
14108TIP3   OH263814   1.153   6.800  16.152 -0.4279 -0.1932  0.0935
14108TIP3    H163815   1.135   6.871  16.213  0.2546  0.2516 -0.2126
14108TIP3    H263816   1.176   6.843  16.070 -0.0229 -0.7621 -0.1048
14109TIP3   OH263817   5.419   5.416  12.707  0.5684  0.0569  0.5095
14109TIP3    H163818   5.496   5.473  12.701  0.6558 -0.1487 -0.4843
14109TIP3    H263819   5.422   5.381  12.797 -0.2627  2.6761  1.6457
14110TIP3   OH263820   5.491   0.390  16.844 -0.3352  0.0606 -0.0000
14110TIP3    H163821   5.462   0.299  16.836 -0.4957  0.0685  0.4601
14110TIP3    H263822   5.584   0.384  16.862 -0.0736  0.0286 -1.2788
14111TIP3   OH263823   2.672   0.793   2.062  0.5450 -0.2659 -0.3684
14111TIP3    H163824   2.684   0.701   2.084  0.7978 -0.5400 -1.5497
14111TIP3    H263825   2.580   0.810   2.080  0.2849 -0.9946 -0.9408
14112TIP3   OH263826   2.151   2.162   5.358  0.0060  0.4093  0.2514
14112TIP3    H163827   2.232   2.125   5.324 -0.3030  1.5354 -1.8544
14112TIP3    H263828   2.155   2.145   5.452  1.6164 -1.5270 -0.0912
14113TIP3   OH263829   6.221   4.990  12.708 -0.1933 -0.3334  0.0624
14113TIP3    H163830   6.309   4.986  12.670  0.0549 -0.1312  0.6111
14113TIP3    H263831   6.226   5.061  12.772 -0.9425  0.1276 -0.3820
14114TIP3   OH263832   2.390   5.330   0.831  0.5416  0.5737  0.2168
14114TIP3    H163833   2.432   5.329   0.745 -0.5444  2.0161 -0.3833
14114TIP3    H263834   2.417   5.413   0.870  0.0302  0.5007  0.7383
14115TIP3   OH263835   2.132   0.555   6.035  0.2208  0.2045 -0.1166
14115TIP3    H163836   2.088   0.536   6.118 -0.0779  0.8135 -0.1373
14115TIP3    H263837   2.061   0.573   5.973  0.4179 -0.7374 -0.6361
14116TIP3   OH263838   2.491   6.056  11.501  0.5950  0.1802 -0.0659
14116TIP3    H163839   2.429   5.990  11.532 -0.5670  1.0478 -0.4743
14116TIP3    H263840   2.547   6.074  11.577 -1.7489  1.7691  1.4267
14117TIP3   OH263841   3.764   6.679  15.200 -0.1474 -0.1252  0.7741
14117TIP3    H163842   3.850   6.713  15.227  0.1432  0.2034 -0.4970
14117TIP3    H263843   3.736   6.737  15.130 -0.7110 -1.1268  0.1426
14118TIP3   OH263844   0.003   3.942  15.889  0.3382 -0.3018 -0.0099
14118TIP3    H163845  -0.012   3.918  15.798 -2.3826  1.0213  0.0166
14118TIP3    H263846  -0.060   3.889  15.939 -0.6317  1.4664  0.7187
14119TIP3   OH263847   4.170   4.810   2.437 -0.3952  0.1006  0.1995
14119TIP3    H163848   4.077   4.792   2.450 -0.1626 -0.4778  1.0732
14119TIP3    H263849   4.201   4.844   2.521  0.1200  0.5763 -0.1730
14120TIP3   OH263850   0.441   4.850   0.780 -0.1911  0.0824 -0.0899
14120TIP3    H163851   0.437   4.828   0.687 -0.2583  0.0450 -0.0780
14120TIP3    H263852   0.535   4.861   0.797  0.0619 -2.2541  0.3698
14121TIP3   OH263853   6.059   0.333  12.471 -0.3615  0.8135 -0.0489
14121TIP3    H163854   6.118   0.383  12.528 -0.2708 -0.6623  1.2253
14121TIP3    H263855   5.979   0.322  12.522  0.6996 -2.9682  1.1451
14122TIP3   OH263856   3.687   3.681   2.808  0.1828  0.3246  0.1430
14122TIP3    H163857   3.607   3.697   2.759 -0.2274  0.8302  0.9451
14122TIP3    H263858   3.708   3.765   2.849 -0.4448 -0.4409  2.1753
14123TIP3   OH263859   5.981   2.272   0.341 -0.1809  0.1082  0.1308
14123TIP3    H163860   6.050   2.269   0.408 -0.3578  0.0945  0.3126
14123TIP3    H263861   5.997   2.195   0.287 -1.1926 -0.9534  1.2980
14124TIP3   OH263862   3.820   1.389  13.409 -0.3447 -0.0213  0.5642
14124TIP3    H163863   3.788   1.309  13.368  0.3032 -1.8451  3.3762
14124TIP3    H263864   3.909   1.399  13.375 -0.2256 -0.8065  0.6439
14125TIP3   OH263865   1.910   5.067   2.672 -0.2858  0.1185  0.2342
14125TIP3    H163866   1.846   5.019   2.724 -1.4578  0.3130 -0.9848
14125TIP3    H263867   1.972   5.102   2.736 -0.4329 -1.4643  1.3042
14126TIP3   OH263868   5.408   3.419  13.221  0.4830  0.1732  0.2820
14126TIP3    H163869   5.452   3.464  13.149  0.0037 -0.4399 -0.4019
14126TIP3    H263870   5.325   3.389  13.184  1.8190 -3.5664 -0.1486
14127TIP3   OH263871   0.925   3.275  11.743  0.0647  0.5573 -0.1593
14127TIP3    H163872   0.841   3.284  11.698  1.3611 -1.2488 -3.2358
14127TIP3    H263873   0.990   3.275  11.673  2.3015 -2.2791  1.6905
14128TIP3   OH263874   5.241   2.228  13.746 -0.6199  0.1183  0.0492
14128TIP3    H163875   5.276   2.178  13.672 -0.3553  0.2310  0.0962
14128TIP3    H263876   5.180   2.168  13.789 -1.7565  0.4798 -1.0058
14129TIP3   OH263877   3.559   6.279   1.935  0.2357 -0.1124  0.2597
14129TIP3    H163878   3.618   6.255   2.006 -0.0601 -1.9871 -0.0826
14129TIP3    H263879   3.480   6.311   1.978  0.0631 -1.2171  0.7889
14130TIP3   OH263880   2.590   1.899  15.298 -0.6207 -0.1181 -0.0487
14130TIP3    H163881   2.668   1.943  15.334 -1.4236  1.8725 -0.6197
14130TIP3    H263882   2.523   1.911  15.365 -0.8039 -0.6823 -0.1287
14131TIP3   OH263883   1.524   0.434  16.934  0.3284 -0.2808 -0.1165
14131TIP3    H163884   1.484   0.510  16.893  1.4718  0.8608  0.7962
14131TIP3    H263885   1.480   0.426  17.019  0.2315 -0.6051 -0.1980
14132TIP3   OH263886   1.076   4.552  13.784  0.4769  0.3915  0.2896
14132TIP3    H163887   1.048   4.619  13.848  1.4564  1.8427 -0.7402
14132TIP3    H263888   1.089   4.601  13.703  0.5448 -1.2011 -0.6894
14133TIP3   OH263889   0.785   2.880  13.476 -0.2486  0.5839  0.1344
14133TIP3    H163890   0.878   2.878  13.455 -0.4290  1.4938 -0.8289
14133TIP3    H263891   0.779   2.837  13.561  1.1488  1.1450  0.5536
14134TIP3   OH263892   2.432   3.254  14.335  0.0182  0.1689 -0.4130
14134TIP3    H163893   2.507   3.311  14.317 -0.3859  0.5573 -0.9430
14134TIP3    H263894   2.452   3.173  14.289  0.8950 -0.3689  0.8825
14135TIP3   OH263895   1.409   4.405   2.069  0.0706 -0.0171  0.0685
14135TIP3    H163896   1.372   4.489   2.041  2.4214  0.8348 -0.6496
14135TIP3    H263897   1.405   4.350   1.991  1.0645  0.3613 -0.2602
14136TIP3   OH263898   6.285   4.135  16.912  0.6519 -0.1755  0.4136
14136TIP3    H163899   6.256   4.044  16.922 -0.0678  0.0634  0.5827
14136TIP3    H263900   6.316   4.160  17.000 -0.5192  0.1900  0.7456
14137TIP3   OH263901   1.483   6.610   3.030 -0.2450  0.4313  0.3702
14137TIP3    H163902   1.527   6.605   3.115  0.8526 -2.0286 -0.2665
14137TIP3    H263903   1.428   6.532   3.027 -0.0256  0.3076 -1.2807
14138TIP3   OH263904   0.354   1.321   1.036 -0.2244  0.2756 -0.6192
14138TIP3    H163905   0.336   1.407   0.999  0.6108 -0.2464 -2.3501
14138TIP3    H263906   0.449   1.309   1.026 -0.3563 -0.9243 -0.6148
14139TIP3   OH263907   1.632   2.500   6.519  0.3074  0.5650  0.0735
14139TIP3    H163908   1.610   2.419   6.473  0.1451 -0.0108  1.1533
14139TIP3    H263909   1.725   2.514   6.499  0.3430  0.1036 -0.0952
14140TIP3   OH263910   0.988   5.964   1.593 -0.0539 -0.5102  0.3126
14140TIP3    H163911   1.022   6.053   1.603  0.0150 -0.5274  0.2400
14140TIP3    H263912   0.913   5.973   1.534 -0.1905 -0.4686  0.4918
14141TIP3   OH263913   3.066   3.821  15.285  0.0091  0.6999 -0.0231
14141TIP3    H163914   3.008   3.745  15.285  0.8746 -0.0182 -1.8738
14141TIP3    H263915   3.093   3.831  15.194  0.1604  3.0696  0.2077
14142TIP3   OH263916   2.525   2.059   4.348 -0.0231  0.4105  0.6857
14142TIP3    H163917   2.504   1.993   4.282 -0.0024  2.0837 -1.0884
14142TIP3    H263918   2.443   2.106   4.362  0.3980  1.2217  0.4735
14143TIP3   OH263919   2.293   5.728  15.486  0.0553 -0.7784  0.3184
14143TIP3    H163920   2.207   5.701  15.518 -0.3902 -1.4225 -1.3325
14143TIP3    H263921   2.339   5.646  15.469  0.3486 -0.4548 -0.4803
14144TIP3   OH263922   1.878   3.711   5.890 -0.1806 -0.2320  0.2742
14144TIP3    H163923   1.872   3.806   5.903 -1.2800  0.1088 -2.0619
14144TIP3    H263924   1.787   3.682   5.881  0.2015 -1.2342 -0.5725
14145TIP3   OH263925   1.611   6.539   2.523 -0.0412  0.6130  0.7329
14145TIP3    H163926   1.570   6.476   2.582 -2.1101  0.8761 -0.3069
14145TIP3    H263927   1.596   6.624   2.565 -2.3059  0.8915 -0.4683
14146TIP3   OH263928   1.686   4.350  10.817 -0.0781  0.6839  0.5043
14146TIP3    H163929   1.751   4.399  10.766  1.3388  0.3381  1.8913
14146TIP3    H263930   1.623   4.416  10.846 -0.1902  1.0797 -0.6071
14147TIP3   OH263931   6.303   5.029  15.103 -0.3102 -0.3002 -0.4721
14147TIP3    H163932   6.382   5.016  15.050 -0.7466  0.0997 -1.2270
14147TIP3    H263933   6.288   5.123  15.102 -1.7448 -0.5231 -1.7305
14148TIP3   OH263934   0.121   4.050  10.955  0.6729 -0.1928  0.8131
14148TIP3    H163935   0.132   4.042  10.860  1.1169  0.2440  0.8235
14148TIP3    H263936   0.137   3.962  10.988  0.5195 -0.3480  0.4874
14149TIP3   OH263937   2.491   1.118   0.541  0.1714  0.0256  0.5823
14149TIP3    H163938   2.565   1.068   0.508  0.6425  0.5253  0.8665
14149TIP3    H263939   2.526   1.166   0.616 -0.7993 -0.8502  1.6268
14150TIP3   OH263940   2.560   0.698   5.167 -0.6096 -0.2843  0.9251
14150TIP3    H163941   2.591   0.621   5.119 -1.6441 -0.6144  0.7531
14150TIP3    H263942   2.543   0.666   5.256  0.8992  0.2285  1.4250
14151TIP3   OH263943   6.271   1.839   1.663 -0.6745  0.1215 -0.0270
14151TIP3    H163944   6.333   1.841   1.736 -2.4021 -1.5963  1.6324
14151TIP3    H263945   6.226   1.923   1.667 -2.6554 -0.8873  2.8292
14152TIP3   OH263946   6.251   0.145   4.411  0.4399  0.4153 -0.1618
14152TIP3    H163947   6.290   0.230   4.435  3.3501 -0.6960 -0.5034
14152TIP3    H263948   6.267   0.089   4.486 -0.9220 -0.0336 -0.1816
14153TIP3   OH263949   3.827   5.200   2.025 -0.1933  0.3194  0.2706
14153TIP3    H163950   3.795   5.110   2.032  1.7512 -0.3827  0.6267
14153TIP3    H263951   3.885   5.199   1.949  1.0997  0.8407  1.2174
14154TIP3   OH263952   3.420   1.959   3.748 -0.3485 -0.0475  0.2456
14154TIP3    H163953   3.367   2.036   3.730  0.4068  0.1846 -1.0743
14154TIP3    H263954   3.424   1.912   3.665 -1.4105 -1.9349  1.1800
14155TIP3   OH263955   2.230   6.753  17.101  0.2960  0.1359  0.4829
14155TIP3    H163956   2.234   6.792  17.188  0.7269 -0.9739  0.9689
14155TIP3    H263957   2.253   6.825  17.042 -0.2873  0.9696  1.2518
14156TIP3   OH263958   3.608   3.902   3.017  0.1151  0.4381  0.4323
14156TIP3    H163959   3.619   3.988   2.974 -0.5744  0.6528  0.6706
14156TIP3    H263960   3.525   3.869   2.981 -0.1253  0.3195  1.0864
14157TIP3   OH263961   6.044   6.528  13.671  0.4762 -0.0908  0.2687
14157TIP3    H163962   6.059   6.565  13.585  0.8945  0.9373  0.7623
14157TIP3    H263963   6.068   6.435  13.663  1.7549  0.2770 -0.3890
14158TIP3   OH263964   6.759   4.921   1.890 -0.2724 -0.3425  0.6434
14158TIP3    H163965   6.702   4.959   1.823  0.7333 -0.4556 -0.2948
14158TIP3    H263966   6.707   4.926   1.971 -1.1206  0.7040  0.0611
14159TIP3   OH263967   4.299   1.902  16.472 -0.3136  0.1944  0.1041
14159TIP3    H163968   4.270   1.989  16.446 -1.0738 -0.4119 -1.1656
14159TIP3    H263969   4.248   1.882  16.551 -1.2732  0.2880 -0.4796
14160TIP3   OH263970   1.815   1.622  11.216 -0.3363 -0.2098 -0.0488
14160TIP3    H163971   1.732   1.626  11.168  0.4215  0.5888 -1.3410
14160TIP3    H263972   1.813   1.536  11.260 -0.8869 -1.1746 -1.8588
14161TIP3   OH263973   2.775   3.571   2.678  0.4981 -0.2410 -0.4680
14161TIP3    H163974   2.862   3.540   2.702  1.4419  1.2970 -1.7413
14161TIP3    H263975   2.758   3.644   2.738 -0.1334 -0.8104  0.0695
14162TIP3   OH263976   0.786   5.955  12.831 -0.5527  0.3274  0.4901
14162TIP3    H163977   0.784   5.967  12.926 -2.6923 -1.4914  0.7563
14162TIP3    H263978   0.705   5.997  12.800 -0.8465 -0.7458 -0.2581
14163TIP3   OH263979   3.460   5.672   4.081 -0.2870  0.2788 -0.4536
14163TIP3    H163980   3.537   5.678   4.024  0.2531  0.9136  0.3180
14163TIP3    H263981   3.396   5.622   4.031  1.1402 -1.5286 -0.5297
14164TIP3   OH263982   5.971   5.967   1.639 -0.4868 -0.2348  0.1764
14164TIP3    H163983   6.048   6.005   1.598 -0.8659 -1.1610 -1.4976
14164TIP3    H263984   5.929   6.040   1.685  2.1063  0.0036  2.4117
14165TIP3   OH263985   3.844   6.554   0.157 -0.7863  0.4051  0.3827
14165TIP3    H163986   3.833   6.471   0.109  0.2564  0.3565  0.2046
14165TIP3    H263987   3.788   6.544   0.234  1.7235 -1.8524  2.1008
14166TIP3   OH263988   6.523   1.152  14.440 -0.8801 -0.0274  0.3223
14166TIP3    H163989   6.583   1.221  14.469 -0.4052  0.3268 -1.3327
14166TIP3    H263990   6.477   1.191  14.365 -1.6753 -1.0070  0.2822
14167TIP3   OH263991   4.653   6.355   5.313 -0.1819  0.3796  0.5072
14167TIP3    H163992   4.595   6.357   5.389  0.8582  0.1338  1.3189
14167TIP3    H263993   4.741   6.348   5.349  0.3201 -0.0201 -0.7247
14168TIP3   OH263994   1.074   0.456   2.389 -0.1212  0.4814  0.2858
14168TIP3    H163995   1.050   0.507   2.312  1.6942  1.2219  0.1830
14168TIP3    H263996   1.166   0.475   2.404 -0.2949 -0.0408  2.3592
14169TIP3   OH263997   4.537   0.359  12.098 -0.1435 -0.1625  0.1637
14169TIP3    H163998   4.492   0.431  12.144 -0.6935 -0.7444  0.5554
14169TIP3    H263999   4.624   0.394  12.079 -1.0664  1.3674 -1.5345
14170TIP3   OH264000   3.753   6.149  15.971 -0.1872  0.0031 -0.2766
14170TIP3    H164001   3.793   6.070  15.934 -0.3662  0.7455 -2.1773
14170TIP3    H264002   3.808   6.172  16.046 -0.3295 -2.0894  0.5461
14171TIP3   OH264003   2.277   6.175  12.850  0.5072 -0.1933 -0.1644
14171TIP3    H164004   2.371   6.192  12.838  1.4534 -2.8041  2.2124
14171TIP3    H264005   2.255   6.114  12.779  1.4436 -1.8490  0.9042
14172TIP3   OH264006   1.877   6.453  14.603 -0.4368 -0.4386  0.1298
14172TIP3    H164007   1.970   6.468  14.585 -0.1770  0.7319  2.0984
14172TIP3    H264008   1.838   6.540  14.600 -1.1127 -0.6959  0.9770
14173TIP3   OH264009   6.436   3.233   4.298 -0.0206  0.5381  0.6516
14173TIP3    H164010   6.516   3.227   4.245  0.5092  0.5020  1.4316
14173TIP3    H264011   6.366   3.249   4.234  0.3556 -1.0861 -0.2318
14174TIP3   OH264012   4.447   1.973  16.230 -0.4926 -0.6129 -0.3417
14174TIP3    H164013   4.528   1.969  16.280 -1.1757  1.0248  1.0044
14174TIP3    H264014   4.443   1.889  16.184  2.4012 -0.3807 -1.2332
14175TIP3   OH264015   1.854   6.454   1.107  0.2527 -0.1246 -0.6127
14175TIP3    H164016   1.764   6.441   1.138  0.6520 -1.4054  0.0869
14175TIP3    H264017   1.902   6.484   1.184 -0.0191  2.9982 -1.5304
14176TIP3   OH264018   4.624   4.039  16.297 -0.3338  0.3784 -0.5311
14176TIP3    H164019   4.718   4.054  16.287 -0.4855  1.4391 -0.4321
14176TIP3    H264020   4.601   4.083  16.379 -0.4023 -2.2540  0.9776
14177TIP3   OH264021   1.722   6.664   1.731 -0.5293  0.3483  0.6023
14177TIP3    H164022   1.804   6.615   1.737 -1.4959 -1.3959  0.1538
14177TIP3    H264023   1.720   6.718   1.810  0.6050 -0.2779  1.0737
14178TIP3   OH264024   5.859   3.554   2.319  0.0557  0.5164  0.0177
14178TIP3    H164025   5.905   3.621   2.268  1.3233 -0.5801 -0.3116
14178TIP3    H264026   5.888   3.471   2.282 -1.4922 -0.2432  0.4213
14179TIP3   OH264027   1.794   6.637  15.662  0.5738  0.1767  0.4649
14179TIP3    H164028   1.854   6.577  15.707 -2.0638 -1.8350  1.5354
14179TIP3    H264029   1.776   6.594  15.578  0.1083  0.4056  0.4474
14180TIP3   OH264030   4.989   4.169   1.650  0.0718  0.0999 -0.1598
14180TIP3    H164031   4.979   4.189   1.743 -1.5518  0.3217 -0.3581
14180TIP3    H264032   4.906   4.129   1.625  1.1350 -1.6013 -1.1227
14181TIP3   OH264033   5.375   3.422  11.056  0.4081 -0.1558 -0.4360
14181TIP3    H164034   5.303   3.359  11.064  0.3179  0.0720  0.7291
14181TIP3    H264035   5.353   3.474  10.979 -1.1153  0.4382  0.3669
14182TIP3   OH264036   6.780   4.205  10.469  0.2355  0.0260  0.4741
14182TIP3    H164037   6.720   4.247  10.407 -0.9582 -1.9202  0.2372
14182TIP3    H264038   6.723   4.157  10.529  1.4973 -3.1916 -0.7027
14183TIP3   OH264039   1.319   2.382  15.782  0.6528 -0.0639 -0.7667
14183TIP3    H164040   1.348   2.309  15.728 -0.8320 -0.7850 -0.6414
14183TIP3    H264041   1.314   2.346  15.870 -0.9048 -0.0866 -0.8391
14184TIP3   OH264042   5.351   5.352   4.490  0.1986  0.3483  0.0970
14184TIP3    H164043   5.322   5.322   4.577 -1.6946  1.2206 -0.1735
14184TIP3    H264044   5.400   5.279   4.454  0.0176 -0.4711  1.4544
14185TIP3   OH264045   2.177   4.261  15.324 -0.1149 -0.4129  0.4017
14185TIP3    H164046   2.253   4.233  15.273 -1.5163 -2.3462 -0.7800
14185TIP3    H264047   2.196   4.352  15.349  2.6093 -0.8972  0.3008
14186TIP3   OH264048   6.207   1.249   0.392  0.8340 -0.2229  0.2891
14186TIP3    H164049   6.191   1.157   0.412 -2.6881  0.3851  0.9058
14186TIP3    H264050   6.216   1.291   0.477 -0.6418  0.3773  0.1894
14187TIP3   OH264051   2.154   4.114   5.499  0.8201 -0.7645 -0.5118
14187TIP3    H164052   2.143   4.093   5.592 -0.3080 -1.1128 -0.7031
14187TIP3    H264053   2.227   4.060   5.470  0.1635 -1.8545 -0.1900
14188TIP3   OH264054   5.836   1.878   1.202 -0.7851  0.1410  0.3880
14188TIP3    H164055   5.816   1.832   1.121  1.1431  1.4351 -0.8772
14188TIP3    H264056   5.906   1.828   1.243  1.3682  1.8090 -1.0253
14189TIP3   OH264057   6.052   2.972  13.169 -0.2325  0.1405 -0.1756
14189TIP3    H164058   6.123   3.016  13.214 -0.1426  1.2480 -1.3267
14189TIP3    H264059   5.984   2.961  13.236  0.0220  1.4180  0.3312
14190TIP3   OH264060   5.507   3.073   4.213 -0.4015 -0.2240  0.2725
14190TIP3    H164061   5.539   2.988   4.243  0.9229  0.0502 -0.2727
14190TIP3    H264062   5.525   3.073   4.119 -1.4744  0.2058  0.0578
14191TIP3   OH264063   1.971   6.179  12.622  0.4191  0.3937  0.9224
14191TIP3    H164064   1.901   6.117  12.643  0.3622  0.9477  2.4362
14191TIP3    H264065   2.051   6.126  12.619 -0.1711 -0.5543 -2.4380
14192TIP3   OH264066   1.986   5.385   4.961 -0.3759  0.9564 -0.6369
14192TIP3    H164067   1.975   5.461   5.018  0.8206  2.1114 -1.8807
14192TIP3    H264068   2.007   5.313   5.021 -1.9506  1.4505  0.6101
14193TIP3   OH264069   2.368   6.230  14.938  0.0827  0.4190  0.3067
14193TIP3    H164070   2.358   6.289  14.864  0.8482 -0.5495 -0.5970
14193TIP3    H264071   2.438   6.270  14.991 -1.1875  1.6731  1.1199
14194TIP3   OH264072   4.427   0.571   2.157  0.2142  1.1737 -0.8401
14194TIP3    H164073   4.508   0.563   2.206  0.0673  0.7697 -0.6611
14194TIP3    H264074   4.425   0.494   2.100 -1.4040 -0.3920  1.1916
14195TIP3   OH264075   3.977   4.406   0.990  1.0213  0.2823 -0.5266
14195TIP3    H164076   3.936   4.480   0.944  2.6854  1.2018 -0.6272
14195TIP3    H264077   4.038   4.369   0.926  2.3751  0.7285  0.4622
14196TIP3   OH264078   3.976   6.541   2.128  0.1372 -0.5969 -0.0607
14196TIP3    H164079   3.933   6.457   2.137 -0.2817 -0.2521  1.3081
14196TIP3    H264080   3.933   6.582   2.053  0.3342 -1.5688 -0.7221
14197TIP3   OH264081   0.899   2.294   3.811  0.3361 -0.3420 -0.4893
14197TIP3    H164082   0.923   2.226   3.748  1.6856 -1.2085  0.8968
14197TIP3    H264083   0.980   2.312   3.860 -0.1231  1.8636 -0.4199
14198TIP3   OH264084   4.723   1.453  15.374  0.5768  0.3136 -0.1739
14198TIP3    H164085   4.784   1.524  15.355  1.9245 -0.3397  1.4874
14198TIP3    H264086   4.776   1.373  15.370 -0.6020 -0.4800 -0.6155
14199TIP3   OH264087   5.352   1.402  14.276  0.7567 -0.0444  0.3658
14199TIP3    H164088   5.369   1.359  14.359 -0.9152 -0.5889  0.4702
14199TIP3    H264089   5.426   1.378  14.220  1.5016 -0.3065  1.4500
14200TIP3   OH264090   3.281   0.108   2.776 -0.6005 -0.6268 -0.3019
14200TIP3    H164091   3.347   0.119   2.707 -0.0623  0.9943  0.4148
14200TIP3    H264092   3.197   0.113   2.730 -0.2551  0.8618 -0.8259
14201TIP3   OH264093   2.380   1.661  11.362 -0.0541  0.3314 -0.0294
14201TIP3    H164094   2.348   1.631  11.447  0.7199 -0.9415 -0.1756
14201TIP3    H264095   2.430   1.741  11.382  0.8361 -0.4213  0.8341
14202TIP3   OH264096   0.582   5.732  14.607  0.3702 -0.3458  0.0505
14202TIP3    H164097   0.520   5.664  14.632 -2.1550  0.8876 -2.3623
14202TIP3    H264098   0.599   5.781  14.687 -0.3071 -1.8150  1.1300
14203TIP3   OH264099   0.783   2.696  13.051 -0.1769  0.7509  0.4497
14203TIP3    H164100   0.748   2.777  13.016 -1.2308  0.5233  0.9424
14203TIP3    H264101   0.758   2.696  13.144 -0.0352 -0.0425  0.5001
14204TIP3   OH264102   1.854   2.372  15.522 -0.2639 -0.1267  0.4781
14204TIP3    H164103   1.893   2.458  15.507 -1.7029  0.3851 -0.4814
14204TIP3    H264104   1.783   2.389  15.584 -1.0646 -0.4625 -0.3229
14205TIP3   OH264105   4.403   6.488  13.943  0.7099  0.2241 -0.1729
14205TIP3    H164106   4.471   6.555  13.935  0.2130  0.7496 -0.0606
14205TIP3    H264107   4.451   6.405  13.942  1.5657  0.6234  1.8823
14206TIP3   OH264108   3.164   4.660   5.265 -0.1377  0.6538 -0.0795
14206TIP3    H164109   3.110   4.581   5.266 -0.0716  0.5873 -0.9682
14206TIP3    H264110   3.248   4.633   5.302 -0.5434  0.6454  0.8741
14207TIP3   OH264111   6.673   1.175  12.279  0.6097 -0.0903 -0.4168
14207TIP3    H164112   6.589   1.198  12.320  1.5493  0.6230  1.1868
14207TIP3    H264113   6.719   1.259  12.272  1.1661 -0.4614 -1.3924
14208TIP3   OH264114   0.374   0.493  16.600 -0.0067  0.0854  0.4688
14208TIP3    H164115   0.429   0.567  16.626  1.3657 -0.2228 -1.3611
14208TIP3    H264116   0.284   0.525  16.609  0.4523  0.9255  2.6229
14209TIP3   OH264117   5.884   3.122  12.326 -0.0677 -0.0773  0.5122
14209TIP3    H164118   5.910   3.077  12.246 -0.0733 -1.5071  1.2924
14209TIP3    H264119   5.790   3.139  12.315 -0.0542 -0.2099  0.1989
14210TIP3   OH264120   2.263   2.115   3.219  0.0243  0.1258 -0.5804
14210TIP3    H164121   2.268   2.082   3.309  1.3867  2.0413  0.1404
14210TIP3    H264122   2.173   2.145   3.210 -0.2204 -0.3971  0.0382
14211TIP3   OH264123   2.768   1.985  15.536  0.1105  0.0588 -0.5701
14211TIP3    H164124   2.857   2.011  15.563  2.1968 -2.0696 -4.4541
14211TIP3    H264125   2.750   1.906  15.588  0.2125  0.7424  0.5572
14212TIP3   OH264126   5.605   1.505  12.207  0.9162  0.0682 -0.5798
14212TIP3    H164127   5.562   1.490  12.123 -1.3207  0.4767  0.4344
14212TIP3    H264128   5.573   1.591  12.235  0.8851 -0.4718  1.1243
14213TIP3   OH264129   1.771   6.348   3.176  0.3583  0.1848 -0.6369
14213TIP3    H164130   1.726   6.370   3.095 -1.5134 -1.6440 -0.2002
14213TIP3    H264131   1.773   6.252   3.177 -0.3032  0.1233  1.7330
14214TIP3   OH264132   6.767   6.261  16.042  0.1902 -0.3465  0.5806
14214TIP3    H164133   6.830   6.195  16.072 -0.3218  0.3475  3.5193
14214TIP3    H264134   6.820   6.328  16.001  0.7879 -2.1408 -1.8142
14215TIP3   OH264135   5.451   0.574   2.862  0.1468  0.0370  0.1140
14215TIP3    H164136   5.525   0.626   2.831  0.2687  0.2656  0.7783
14215TIP3    H264137   5.469   0.485   2.831  0.8806  0.0174  0.5791
14216TIP3   OH264138   3.403   2.987  16.193 -0.8355  0.1230 -0.5780
14216TIP3    H164139   3.436   2.984  16.104  3.8999 -0.3695  0.9231
14216TIP3    H264140   3.346   2.910  16.200  1.5910 -2.0151 -2.3170
14217TIP3   OH264141   6.711   6.219  15.750 -0.5550  0.2648  0.5966
14217TIP3    H164142   6.665   6.135  15.749  0.3220 -0.2383 -1.0550
14217TIP3    H264143   6.676   6.267  15.676 -0.5995  1.1230  1.1604
14218TIP3   OH264144   1.521   4.498   3.578  0.3155 -0.3793  0.2837
14218TIP3    H164145   1.434   4.535   3.563  0.4600  0.7745  2.0264
14218TIP3    H264146   1.581   4.572   3.568  0.8777 -0.6968  1.1750
14219TIP3   OH264147   3.896   2.382   1.769 -0.0901 -0.2057 -0.1051
14219TIP3    H164148   3.887   2.409   1.678  1.0011 -0.9210 -0.4422
14219TIP3    H264149   3.990   2.367   1.781 -0.4292 -2.1600  0.5165
14220TIP3   OH264150   6.023   5.258   6.319  0.5896  0.0395  0.1120
14220TIP3    H164151   6.083   5.333   6.312  1.2830 -0.1883  2.7264
14220TIP3    H264152   6.062   5.202   6.387 -1.2383 -1.4412  0.0155
14221TIP3   OH264153   2.636   2.781  13.441  0.2924 -0.9430 -0.1879
14221TIP3    H164154   2.726   2.765  13.414  0.2527 -0.4386 -0.6383
14221TIP3    H264155   2.632   2.876  13.454 -0.1635 -0.9675 -0.1406
14222TIP3   OH264156   3.918   2.136   0.359 -0.4942 -0.5674 -0.1136
14222TIP3    H164157   3.855   2.174   0.420 -0.6025 -0.1576 -0.4678
14222TIP3    H264158   3.929   2.204   0.292  1.5447  0.0313  0.7808
14223TIP3   OH264159   4.126   3.942  13.941 -0.3623  0.1107  0.5488
14223TIP3    H164160   4.038   3.979  13.951 -0.4702  0.3799 -1.1638
14223TIP3    H264161   4.153   3.966  13.852  1.8185  0.8087  1.3280
14224TIP3   OH264162   2.376   1.117   3.185 -0.1090  0.1849  0.0565
14224TIP3    H164163   2.429   1.151   3.257 -0.2072  2.6640 -0.9440
14224TIP3    H264164   2.298   1.082   3.227  0.2307  0.7731  1.2072
14225TIP3   OH264165   1.484   5.273   5.777  0.4130 -0.1356  0.2616
14225TIP3    H164166   1.471   5.352   5.829 -0.1775  1.5968 -2.3429
14225TIP3    H264167   1.432   5.206   5.822  0.4640  1.0543  2.2165
14226TIP3   OH264168   1.671   2.602  12.415 -0.6578  0.2248  0.1297
14226TIP3    H164169   1.701   2.516  12.446 -1.4844 -0.4740 -0.9120
14226TIP3    H264170   1.594   2.582  12.361 -1.6616  1.7639  0.9423
14227TIP3   OH264171   3.466   4.441   3.968  0.0787  0.1280  0.0656
14227TIP3    H164172   3.495   4.458   3.878  1.1270 -1.7447 -0.0049
14227TIP3    H264173   3.452   4.346   3.971  2.6809 -0.2976  2.5567
14228TIP3   OH264174   3.422   3.206   0.207 -0.5230  0.4112 -0.3340
14228TIP3    H164175   3.334   3.184   0.177  0.0221 -1.6572 -0.5530
14228TIP3    H264176   3.477   3.134   0.176  0.9431  0.7693  1.2816
14229TIP3   OH264177   4.485   0.003   1.837 -0.1647  0.1270 -0.2107
14229TIP3    H164178   4.571  -0.038   1.841 -0.3591 -0.2255  0.5073
14229TIP3    H264179   4.424  -0.066   1.864 -0.3931  1.1870  2.1801
14230TIP3   OH264180   2.914   4.023   4.140  0.1889  0.2267 -0.0651
14230TIP3    H164181   2.823   4.025   4.112  0.4881 -0.6674 -1.1549
14230TIP3    H264182   2.914   3.963   4.215  0.2154 -1.6070 -1.4684
14231TIP3   OH264183   2.628   2.872   5.595  0.3198  0.3609  0.3450
14231TIP3    H164184   2.539   2.871   5.631  0.0467  0.3523 -0.3306
14231TIP3    H264185   2.679   2.818   5.656 -0.9248 -2.8669 -1.2629
14232TIP3   OH264186   4.046   0.677   3.624  0.7519  0.3670 -0.0641
14232TIP3    H164187   4.025   0.633   3.707 -1.7449 -1.6024 -1.5698
14232TIP3    H264188   4.132   0.642   3.600  0.9714  0.0389  1.1113
14233TIP3   OH264189   3.630   3.223  17.057  0.1440  0.3317  0.6574
14233TIP3    H164190   3.724   3.223  17.073  0.0760 -0.0774  1.0798
14233TIP3    H264191   3.622   3.221  16.961  0.6027 -2.5350  0.5988
14234TIP3   OH264192   4.931   2.732  16.706 -0.3216  0.2621  0.3954
14234TIP3    H164193   4.907   2.730  16.613  0.7524  1.8345  0.0377
14234TIP3    H264194   4.961   2.643  16.725  1.0701  0.3105 -1.2591
14235TIP3   OH264195   0.526   3.097  10.583  0.0214  0.1143 -0.2921
14235TIP3    H164196   0.484   3.012  10.575  0.7343 -0.4629  1.5975
14235TIP3    H264197   0.578   3.091  10.663  0.0803  2.3372 -0.0942
14236TIP3   OH264198   4.608   6.221  13.334 -0.0200  0.0471  0.1829
14236TIP3    H164199   4.588   6.232  13.427 -1.7152 -1.6142  0.0555
14236TIP3    H264200   4.566   6.139  13.309  1.0056  0.0843 -1.9017
14237TIP3   OH264201   1.092   3.537   2.300  0.1681 -0.3141  0.0073
14237TIP3    H164202   1.087   3.608   2.364  0.3404 -0.2390 -0.0647
14237TIP3    H264203   1.182   3.537   2.270 -0.4421  1.2117 -2.0368
14238TIP3   OH264204   0.111   3.699  16.130  0.4918  0.3355  0.1139
14238TIP3    H164205   0.107   3.619  16.182 -1.2225  0.1206 -0.2807
14238TIP3    H264206   0.022   3.710  16.095  0.8933  1.9620 -0.5221
14239TIP3   OH264207   6.023   2.729   4.286 -0.1565  0.0882 -0.3355
14239TIP3    H164208   6.074   2.800   4.247  0.4022 -0.0082  0.2110
14239TIP3    H264209   6.075   2.650   4.270 -0.7788 -0.2106 -0.9491
14240TIP3   OH264210   3.197   6.407   4.072 -0.0837 -0.1794 -0.0365
14240TIP3    H164211   3.192   6.486   4.127 -0.2921  0.1456 -0.5136
14240TIP3    H264212   3.290   6.396   4.053 -0.0341 -0.1647  0.1945
14241TIP3   OH264213   2.582   2.793  16.021  0.3528  0.0626  0.3195
14241TIP3    H164214   2.652   2.778  16.085  0.0293 -1.2208  0.4100
14241TIP3    H264215   2.607   2.740  15.945  0.8410  1.7380 -0.7431
14242TIP3   OH264216   0.599   5.618  16.164  0.2949 -0.5925  0.0005
14242TIP3    H164217   0.634   5.657  16.244 -1.3861  1.4795 -0.2004
14242TIP3    H264218   0.674   5.571  16.126  2.1638  1.5044  0.8687
14243TIP3   OH264219   5.693   1.685   5.381 -0.6525 -0.1293 -0.1986
14243TIP3    H164220   5.686   1.775   5.349 -2.0796 -0.7481 -1.7623
14243TIP3    H264221   5.787   1.671   5.392 -0.1599  0.5614 -2.9510
14244TIP3   OH264222   1.261   1.107  16.302  0.5244 -0.5841 -0.6624
14244TIP3    H164223   1.181   1.141  16.341  1.8061  2.4379 -0.4300
14244TIP3    H264224   1.314   1.078  16.376  1.4660  1.7764 -0.3220
14245TIP3   OH264225   2.393   4.346  13.219 -0.8480 -0.2959  0.4424
14245TIP3    H164226   2.461   4.330  13.284  0.9793  2.5442 -0.6186
14245TIP3    H264227   2.418   4.293  13.144  0.4716  0.9788 -0.0620
14246TIP3   OH264228   2.062   2.847   1.410  0.0142 -0.6134 -0.2740
14246TIP3    H164229   2.085   2.829   1.501 -1.2911  0.5343  0.3187
14246TIP3    H264230   2.085   2.940   1.398  0.5043 -0.8501 -1.2293
14247TIP3   OH264231   1.576   5.843   1.983  0.0458 -0.2510 -0.5333
14247TIP3    H164232   1.509   5.789   1.942  0.6322 -1.4327  0.0123
14247TIP3    H264233   1.656   5.821   1.935 -0.0173  1.5494 -1.5457
14248TIP3   OH264234   1.126   2.171  15.497  0.4983  0.0822 -0.2871
14248TIP3    H164235   1.159   2.203  15.413  2.1511  1.5230  0.8117
14248TIP3    H264236   1.162   2.083  15.506 -0.2510 -0.3482 -1.3513
14249TIP3   OH264237   2.217   5.095  16.191 -0.4406  0.4872  0.0320
14249TIP3    H164238   2.268   5.016  16.206 -0.9468  0.0824 -0.3642
14249TIP3    H264239   2.279   5.156  16.150  0.0083  0.3830  0.5485
14250TIP3   OH264240   5.347   6.377  13.478  0.4693  0.3258  0.6045
14250TIP3    H164241   5.281   6.415  13.420  0.3897 -0.0073  0.4761
14250TIP3    H264242   5.415   6.345  13.418  0.1443 -0.4851  0.6663
14251TIP3   OH264243   2.291   5.181   4.407  0.3005 -0.2954 -0.2251
14251TIP3    H164244   2.214   5.229   4.440  2.1835  1.6502  1.6758
14251TIP3    H264245   2.283   5.094   4.446  0.2085  0.6232  1.9781
14252TIP3   OH264246   1.553   4.567   4.716 -0.5092  0.0496 -0.3495
14252TIP3    H164247   1.541   4.639   4.653  0.8643 -0.8705 -1.7457
14252TIP3    H264248   1.538   4.488   4.665  2.5852 -0.8265 -0.1293
14253TIP3   OH264249   6.830   5.763  11.301  0.0280 -0.2800  0.1742
14253TIP3    H164250   6.893   5.701  11.339 -0.4414 -2.0816 -1.8326
14253TIP3    H264251   6.834   5.748  11.207 -2.7386  0.1922 -0.1148
14254TIP3   OH264252   5.134   6.203   0.709 -0.0607 -0.3121 -0.2748
14254TIP3    H164253   5.132   6.188   0.614  1.0122 -0.3192 -0.3146
14254TIP3    H264254   5.099   6.291   0.720  1.9851  0.6690 -0.9491
14255TIP3   OH264255   1.799   1.398   5.019 -0.5348  0.4999  0.0980
14255TIP3    H164256   1.836   1.392   4.931 -2.7989 -5.8370 -0.9419
14255TIP3    H264257   1.712   1.434   5.007 -1.6439 -2.2459 -0.8507
14256TIP3   OH264258   0.773   0.211   1.601  0.2038  0.5588  0.1810
14256TIP3    H164259   0.766   0.122   1.634 -0.4968 -0.4474 -2.4257
14256TIP3    H264260   0.686   0.231   1.566  0.5324  1.9937  0.1234
14257TIP3   OH264261   4.122   3.032   2.581  0.0946 -0.3670  0.4846
14257TIP3    H164262   4.199   2.985   2.548  0.7573  0.7247  0.4346
14257TIP3    H264263   4.089   2.976   2.652  0.9847 -0.8071  0.5641
14258TIP3   OH264264   4.850   3.440  13.640 -0.4774  0.1370  0.1053
14258TIP3    H164265   4.905   3.513  13.668 -0.0078 -0.2355  0.1748
14258TIP3    H264266   4.864   3.373  13.707 -0.6264 -0.1511 -0.1496
14259TIP3   OH264267   5.463   6.144   2.087  0.0584 -0.3314 -0.0768
14259TIP3    H164268   5.413   6.098   2.155  2.5630 -0.3521  1.8755
14259TIP3    H264269   5.496   6.073   2.031  1.9796 -0.8347  1.5790
14260TIP3   OH264270   4.907   0.596  15.846 -0.1457  0.5550 -0.0878
14260TIP3    H164271   5.002   0.591  15.834  0.2324 -0.7684  2.7050
14260TIP3    H264272   4.891   0.553  15.929 -3.2519  0.6710 -0.5082
14261TIP3   OH264273   1.027   3.076  16.538  0.2759 -0.3500  0.2188
14261TIP3    H164274   1.084   3.001  16.555  0.4343  0.1589  2.0737
14261TIP3    H264275   1.072   3.125  16.469  0.6491 -1.4262 -0.3307
14262TIP3   OH264276   5.385   3.914   6.724 -0.8090  0.0269  0.0493
14262TIP3    H164277   5.404   4.007   6.712  0.2766 -0.1945 -0.0673
14262TIP3    H264278   5.328   3.910   6.801 -0.7645  0.7768  0.1246
14263TIP3   OH264279   4.122   6.475  16.637  0.6715 -0.3369 -0.4319
14263TIP3    H164280   4.143   6.402  16.580 -0.1407 -0.2565 -0.8367
14263TIP3    H264281   4.050   6.521  16.593  1.2793  0.8084 -0.2801
14264TIP3   OH264282   4.700   4.328   0.162 -0.6330  0.6838  0.6286
14264TIP3    H164283   4.755   4.356   0.236  1.0713 -0.3228 -0.2003
14264TIP3    H264284   4.636   4.268   0.201  0.9010 -0.6635  1.1750
14265TIP3   OH264285   2.241   3.377  17.126  0.1141  0.2362  0.3823
14265TIP3    H164286   2.269   3.450  17.070  0.0474  0.9905  1.2968
14265TIP3    H264287   2.157   3.350  17.089  0.3644  0.3044 -0.2544
14266TIP3   OH264288   3.540   4.028   2.577  0.2379 -0.2269 -0.1117
14266TIP3    H164289   3.461   4.005   2.529  0.8692 -2.6566 -0.0942
14266TIP3    H264290   3.517   4.109   2.623 -1.6469  0.0447 -1.4137
14267TIP3   OH264291   3.005   6.186   0.804  0.0738 -0.1360  0.0485
14267TIP3    H164292   2.980   6.186   0.897  0.5360  0.1823  0.1768
14267TIP3    H264293   2.955   6.258   0.766  0.3330  0.1155  0.1783
14268TIP3   OH264294   6.452   3.377  11.746  0.5792  0.1853 -0.3157
14268TIP3    H164295   6.428   3.297  11.794 -1.4488  0.8317 -0.1985
14268TIP3    H264296   6.373   3.403  11.701  0.4660  3.4283  1.4971
14269TIP3   OH264297   5.046   5.499   3.208 -0.0968 -0.2570  0.2004
14269TIP3    H164298   5.121   5.538   3.164 -0.6714  1.3748  0.5836
14269TIP3    H264299   5.069   5.406   3.218  1.4679  0.0274 -0.4742
14270TIP3   OH264300   6.458   4.798   5.326 -0.1486  0.3852  0.2885
14270TIP3    H164301   6.391   4.866   5.316  0.3960  0.7828 -0.8939
14270TIP3    H264302   6.540   4.847   5.337  0.4067 -0.0294 -1.6448
14271TIP3   OH264303   0.762   3.026   0.667 -0.5832  0.3585 -0.0669
14271TIP3    H164304   0.797   2.943   0.700  2.4456  1.0919 -1.0620
14271TIP3    H264305   0.771   3.087   0.740 -1.9866  0.0577  0.3843
14272TIP3   OH264306   1.422   3.189   3.966 -0.1938  0.2874 -0.4265
14272TIP3    H164307   1.417   3.271   4.015 -0.5717  1.6207 -2.5537
14272TIP3    H264308   1.515   3.166   3.968 -0.3176 -0.2636  1.6893
14273TIP3   OH264309   5.998   1.329  15.402 -0.1872 -0.1483 -0.2163
14273TIP3    H164310   6.076   1.273  15.399 -0.5906 -0.8749  1.7031
14273TIP3    H264311   6.027   1.410  15.444 -0.5378 -0.6016  0.9366
14274TIP3   OH264312   3.662   0.501  12.397 -0.0224  0.7406 -0.0942
14274TIP3    H164313   3.575   0.480  12.433  0.6539  0.6179  1.5290
14274TIP3    H264314   3.718   0.429  12.426  1.2653  2.2606  1.4201
14275TIP3   OH264315   2.016   6.297  15.144  0.7248  0.0628  0.6638
14275TIP3    H164316   2.036   6.233  15.075 -1.0229  1.2786 -1.0782
14275TIP3    H264317   2.032   6.382  15.103 -3.6979  1.0006  0.3802
14276TIP3   OH264318   3.704   1.336   4.932  0.0321  0.1718 -0.0145
14276TIP3    H164319   3.652   1.380   4.864  2.2040  1.7063 -0.8342
14276TIP3    H264320   3.746   1.264   4.886  0.9332  0.7691 -0.1559
14277TIP3   OH264321   0.448   0.334  10.878  0.0588 -0.5321 -0.6395
14277TIP3    H164322   0.382   0.307  10.814  1.2278 -0.8464 -1.7767
14277TIP3    H264323   0.475   0.421  10.848 -0.5604  0.0489  0.4337
14278TIP3   OH264324   6.435   4.792  10.585  0.1747  0.1892  0.3735
14278TIP3    H164325   6.342   4.791  10.563 -0.2918  1.8284  2.0285
14278TIP3    H264326   6.467   4.706  10.559 -1.5989 -0.1177 -0.9808
14279TIP3   OH264327   5.513   1.906  11.267 -0.2222 -0.4028 -0.1622
14279TIP3    H164328   5.558   1.958  11.332  1.0516 -0.7255 -0.7593
14279TIP3    H264329   5.509   1.962  11.189  1.7562 -1.3699 -1.0230
14280TIP3   OH264330   2.468   0.188   2.532  0.0642  0.5776  0.1859
14280TIP3    H164331   2.410   0.112   2.532 -0.0140  0.6255  0.9055
14280TIP3    H264332   2.510   0.187   2.446 -0.9712  0.5175 -0.3341
14281TIP3   OH264333   2.615   6.404   3.472 -0.6216 -0.0236 -0.3512
14281TIP3    H164334   2.582   6.444   3.553  0.4680  2.4604 -1.0219
14281TIP3    H264335   2.559   6.441   3.404 -1.1786 -1.6723 -0.8291
14282TIP3   OH264336   1.217   5.778   4.327 -0.0531 -0.1911  0.0442
14282TIP3    H164337   1.266   5.783   4.409 -0.6895 -0.1718  0.4391
14282TIP3    H264338   1.125   5.771   4.355 -0.3131  0.2223 -0.6668
14283TIP3   OH264339   2.721   4.330  16.504 -0.2440 -0.5566  0.7121
14283TIP3    H164340   2.685   4.341  16.416  0.3363 -2.1165  0.2546
14283TIP3    H264341   2.651   4.359  16.562 -0.8218  0.0179 -0.2460
14284TIP3   OH264342   1.048   1.604  14.208  0.1023 -0.4354 -0.1818
14284TIP3    H164343   1.099   1.622  14.287  1.4188  2.6591 -1.5251
14284TIP3    H264344   1.105   1.548  14.155 -0.2699 -1.5248  0.5617
14285TIP3   OH264345   2.466   6.290  15.212  0.5101  0.3034 -0.1005
14285TIP3    H164346   2.481   6.212  15.264 -0.6175 -0.6420 -1.1350
14285TIP3    H264347   2.389   6.331  15.251  0.2254  0.1034 -0.4536
14286TIP3   OH264348   4.606   1.503  13.321  0.0243 -0.4090 -0.1403
14286TIP3    H164349   4.516   1.482  13.296 -1.1565  1.8083  1.8814
14286TIP3    H264350   4.618   1.462  13.406  0.6646 -0.0749 -0.0602
14287TIP3   OH264351   6.008   2.074  14.870 -0.5633 -0.0921 -0.1698
14287TIP3    H164352   6.004   1.979  14.886 -0.9329 -0.5331 -2.5560
14287TIP3    H264353   6.017   2.112  14.957  1.5387 -2.4007  0.7399
14288TIP3   OH264354   6.186   2.621  13.963 -0.0280  0.4905 -0.2325
14288TIP3    H164355   6.272   2.616  14.005 -0.1758  0.8714  0.1282
14288TIP3    H264356   6.167   2.532  13.934 -0.3885 -0.0139  1.4427
14289TIP3   OH264357   3.254   6.230  15.761 -0.8267 -0.4016  0.1909
14289TIP3    H164358   3.345   6.199  15.761 -0.9181 -0.8350  2.3412
14289TIP3    H264359   3.258   6.316  15.720  0.7612  0.0301  1.1408
14290TIP3   OH264360   5.376   0.418   5.804  0.1516  0.1320  0.5143
14290TIP3    H164361   5.301   0.449   5.856  0.0901  0.3678  0.2907
14290TIP3    H264362   5.396   0.492   5.746  0.6448  0.1184  0.6671
14291TIP3   OH264363   6.694   5.919   4.554 -0.8037  0.0553 -0.2112
14291TIP3    H164364   6.787   5.896   4.561 -0.3109  2.0388  0.7544
14291TIP3    H264365   6.656   5.891   4.637 -1.3410 -1.6698 -0.9994
14292TIP3   OH264366   3.885   0.075   3.742  0.4641  0.3551 -0.1595
14292TIP3    H164367   3.798   0.065   3.704  0.4861  0.5059 -0.2535
14292TIP3    H264368   3.905  -0.010   3.781 -0.5809  0.9024  1.6742
14293TIP3   OH264369   0.567   5.697  11.836 -0.2524  0.0371  0.4529
14293TIP3    H164370   0.632   5.737  11.779 -1.4609  1.5028  0.0162
14293TIP3    H264371   0.574   5.603  11.819  0.9038  0.2718 -0.4848
14294TIP3   OH264372   4.751   1.085   4.264 -0.2534  0.6466  0.0461
14294TIP3    H164373   4.723   1.070   4.174 -0.1034  0.7558 -0.0201
14294TIP3    H264374   4.846   1.097   4.257 -0.1211 -0.1495  0.3164
14295TIP3   OH264375   4.574   0.766  14.907  0.7081 -0.2273 -0.0964
14295TIP3    H164376   4.547   0.852  14.939 -0.5873 -0.7208  0.1975
14295TIP3    H264377   4.585   0.713  14.986 -0.3647 -0.8434 -0.3357
14296TIP3   OH264378   4.849   3.380   4.936  0.5774 -0.7965 -0.1556
14296TIP3    H164379   4.758   3.405   4.952  0.8451 -0.7661  1.4822
14296TIP3    H264380   4.892   3.461   4.911  0.4348 -0.5434  0.4124
14297TIP3   OH264381   3.530   1.257  10.615  0.3972 -0.2806 -0.3533
14297TIP3    H164382   3.525   1.350  10.635  0.1206 -0.1562 -0.9727
14297TIP3    H264383   3.615   1.247  10.571  1.2166 -0.6336  1.2314
14298TIP3   OH264384   5.396   0.993   3.106  0.7958 -0.7698  0.7193
14298TIP3    H164385   5.435   0.922   3.158  0.0704 -0.1100  2.2187
14298TIP3    H264386   5.471   1.035   3.063  1.4749 -1.0119  1.6346
14299TIP3   OH264387   2.571   2.489  13.547 -0.4139  0.1883  0.1046
14299TIP3    H164388   2.625   2.428  13.597 -0.1050  0.6268  0.3122
14299TIP3    H264389   2.632   2.556  13.517 -0.4144 -0.5625 -1.6752
14300TIP3   OH264390   4.240   4.108   1.336  0.4604 -0.0342  0.3177
14300TIP3    H164391   4.154   4.137   1.308 -0.2582 -1.6149  0.7742
14300TIP3    H264392   4.291   4.104   1.255  0.0884  0.8042  0.0309
14301TIP3   OH264393   5.844   4.786   4.262 -0.8637  0.4130  0.3259
14301TIP3    H164394   5.928   4.771   4.218 -1.6278 -0.2065 -1.0048
14301TIP3    H264395   5.867   4.818   4.349  0.7633 -0.6315  0.3199
14302TIP3   OH264396   4.058   1.230  13.536  0.0946  0.4649  0.3825
14302TIP3    H164397   4.053   1.274  13.452  0.4427  1.4313  0.8568
14302TIP3    H264398   4.139   1.179  13.532 -0.6475 -0.6947 -0.4174
14303TIP3   OH264399   3.238   6.334   5.468  0.0621 -0.3966 -0.2287
14303TIP3    H164400   3.152   6.307   5.499 -0.2006 -0.8621 -1.3257
14303TIP3    H264401   3.234   6.430   5.467 -0.0425 -0.3849  0.8083
14304TIP3   OH264402   4.867   0.851  11.969 -0.2886 -0.0413 -0.4476
14304TIP3    H164403   4.910   0.897  12.041 -1.2253 -0.2104  0.2335
14304TIP3    H264404   4.936   0.840  11.903  0.2932  1.1320 -0.0647
14305TIP3   OH264405   4.212   1.591  15.591  0.0715 -0.1092 -0.0292
14305TIP3    H164406   4.122   1.583  15.560  0.1738  0.2857 -0.4292
14305TIP3    H264407   4.257   1.515  15.554 -0.1360 -0.4063  0.3206
14306TIP3   OH264408   2.349   0.076   0.405  0.6382  0.3326 -0.2908
14306TIP3    H164409   2.315   0.015   0.339 -0.9787 -0.7537  1.4610
14306TIP3    H264410   2.293   0.063   0.481  1.6877  2.4119  0.9285
14307TIP3   OH264411   6.212   2.511  11.736 -0.1712 -0.5757  0.1471
14307TIP3    H164412   6.208   2.530  11.643  2.6856  1.3728  0.2798
14307TIP3    H264413   6.123   2.485  11.760 -1.8553  2.1479 -2.4656
14308TIP3   OH264414   4.421   3.065  11.966  0.1036 -0.0949  0.1646
14308TIP3    H164415   4.393   3.114  11.889  0.9789  0.2722  0.0758
14308TIP3    H264416   4.424   3.130  12.036  0.6834 -0.1480  0.1862
14309TIP3   OH264417   1.394   3.292   1.391 -0.5869  0.3444 -0.3710
14309TIP3    H164418   1.487   3.273   1.401  0.2162  3.8814 -0.0379
14309TIP3    H264419   1.371   3.255   1.306  1.4458  0.4941 -1.0417
14310TIP3   OH264420   0.518   5.297  10.563  0.8326 -0.2304  0.3001
14310TIP3    H164421   0.604   5.334  10.581  0.9439  0.0065 -0.6965
14310TIP3    H264422   0.464   5.325  10.637  0.9410  1.8257 -0.3487
14311TIP3   OH264423   2.955   5.279  14.160 -0.5021  0.8599  0.2144
14311TIP3    H164424   3.042   5.242  14.171 -1.2584 -1.2731 -0.5063
14311TIP3    H264425   2.951   5.303  14.067 -0.6370  1.0559  0.2705
14312TIP3   OH264426   2.775   2.613   3.293  0.6146 -0.1258 -0.1921
14312TIP3    H164427   2.695   2.618   3.346 -0.4026 -0.3902 -1.6332
14312TIP3    H264428   2.846   2.619   3.356 -0.5150 -2.2940  1.4189
14313TIP3   OH264429   6.460   0.554  15.327 -0.5124  0.0862  0.0487
14313TIP3    H164430   6.449   0.486  15.394 -0.1920  0.9123  0.9584
14313TIP3    H264431   6.372   0.581  15.305 -0.6014  0.1753  0.5144
14314TIP3   OH264432   4.958   4.136  17.103 -0.0206  0.1466 -0.4657
14314TIP3    H164433   5.014   4.209  17.079 -0.0436 -0.0060 -0.9911
14314TIP3    H264434   4.879   4.148  17.049 -0.9087  0.8871  0.9160
14315TIP3   OH264435   3.808   4.040  14.220 -0.1607 -0.4212 -0.3524
14315TIP3    H164436   3.824   4.066  14.129 -0.2657  2.0212  0.2403
14315TIP3    H264437   3.893   4.008  14.251  0.2664  0.1528 -0.9003
14316TIP3   OH264438   2.616   1.831  10.350  0.2762 -0.8543  0.0883
14316TIP3    H164439   2.595   1.908  10.296 -1.5001 -0.7158  0.9016
14316TIP3    H264440   2.705   1.808  10.325  0.1279  0.2563 -1.6281
14317TIP3   OH264441   3.181   6.502  13.553 -0.2489  0.2946  0.2542
14317TIP3    H164442   3.217   6.470  13.470  0.9133  0.8101  0.5522
14317TIP3    H264443   3.255   6.539  13.600 -1.5042  3.7728 -0.2085
14318TIP3   OH264444   4.135   4.556   3.306 -0.0613 -0.2378 -0.2519
14318TIP3    H164445   4.094   4.530   3.389 -0.1557 -0.9366 -0.5066
14318TIP3    H264446   4.160   4.647   3.319  0.6408 -0.5602  0.8435
14319TIP3   OH264447   1.893   4.051  16.058  0.2303 -0.0716  0.2916
14319TIP3    H164448   1.902   4.146  16.070 -1.0428 -0.0946  1.6102
14319TIP3    H264449   1.973   4.015  16.097  0.7785  0.4502 -0.3187
14320TIP3   OH264450   4.074   4.864   1.976 -0.3180 -0.5440 -0.0397
14320TIP3    H164451   3.995   4.874   1.922 -0.0635 -0.8095 -0.4631
14320TIP3    H264452   4.065   4.932   2.044  0.3336  1.1504 -1.5732
14321TIP3   OH264453   4.996   1.789   0.690 -0.3687 -0.4334  0.1476
14321TIP3    H164454   5.056   1.754   0.756  1.6526  1.9763 -0.2571
14321TIP3    H264455   4.939   1.848   0.740 -2.3634 -2.4917  0.4802
14322TIP3   OH264456   4.101   1.132   2.438 -0.2832 -0.1725  0.2467
14322TIP3    H164457   4.032   1.156   2.500  0.2254 -0.7301  1.0570
14322TIP3    H264458   4.115   1.038   2.454  1.4008  0.1514  0.8682
14323TIP3   OH264459   3.708   4.012   1.607 -0.2525  0.7293  0.4161
14323TIP3    H164460   3.647   3.998   1.679  0.0734  0.6489  0.6820
14323TIP3    H264461   3.663   4.071   1.548 -0.8518  0.1458  0.2779
14324TIP3   OH264462   0.004   4.348  15.561 -0.0859 -0.2529  0.0841
14324TIP3    H164463   0.035   4.297  15.635  2.0872  1.3963  0.4237
14324TIP3    H264464   0.026   4.296  15.484  1.1756 -0.3060  0.4614
14325TIP3   OH264465   4.301   1.295   1.355 -0.1164  0.5144 -0.8842
14325TIP3    H164466   4.370   1.303   1.289 -0.5201  0.9945 -1.2572
14325TIP3    H264467   4.267   1.384   1.364  0.1164  0.5027  0.1799
14326TIP3   OH264468   1.707   5.385   4.093  0.5264  0.3314  0.7216
14326TIP3    H164469   1.797   5.386   4.127  0.1614  1.1559  1.7085
14326TIP3    H264470   1.716   5.408   4.001  1.4088 -0.5188  0.5743
14327TIP3   OH264471   0.391   5.137  15.817 -0.5053 -0.0229 -0.1314
14327TIP3    H164472   0.432   5.086  15.747  0.2627  0.4577 -0.0418
14327TIP3    H264473   0.387   5.226  15.782 -0.3180  0.1778  0.3490
14328TIP3   OH264474   4.861   3.834  11.005 -0.2641  0.4277 -0.3551
14328TIP3    H164475   4.836   3.853  11.096 -1.0543  0.1701 -0.5116
14328TIP3    H264476   4.928   3.900  10.985  0.1325  0.3020  0.5033
14329TIP3   OH264477   6.538   4.170  13.120 -0.0383 -0.4582 -0.5289
14329TIP3    H164478   6.602   4.102  13.143 -0.4930 -1.1468 -1.2317
14329TIP3    H264479   6.532   4.224  13.198  1.0133 -0.6890 -0.2688
14330TIP3   OH264480   0.038   5.702  15.234  0.8426  0.1900  0.4828
14330TIP3    H164481  -0.026   5.662  15.293  1.0425 -0.7712  0.0750
14330TIP3    H264482   0.036   5.646  15.156 -0.9122  2.5583 -1.3153
14331TIP3   OH264483   4.416   1.144  12.167 -0.4176 -0.4877 -0.4109
14331TIP3    H164484   4.342   1.118  12.112 -0.6382 -1.1772  0.2036
14331TIP3    H264485   4.376   1.187  12.242 -0.2097 -1.1407  0.0754
14332TIP3   OH264486   0.546   4.171   3.755 -0.1459 -0.5215 -0.4382
14332TIP3    H164487   0.480   4.233   3.726  0.9104  0.7316 -0.2620
14332TIP3    H264488   0.595   4.218   3.823  1.2810 -1.1967 -0.9604
14333TIP3   OH264489   5.401   5.274  15.447  0.4083  0.1034 -0.3523
14333TIP3    H164490   5.348   5.216  15.502 -1.1264 -0.5960 -2.4403
14333TIP3    H264491   5.440   5.217  15.382  0.6933  1.1290 -1.1010
14334TIP3   OH264492   6.131   1.008  11.381  0.4020 -0.4360  0.2047
14334TIP3    H164493   6.138   1.067  11.306  1.8913 -2.3844 -1.2696
14334TIP3    H264494   6.138   1.065  11.457  0.2398  1.4477 -1.1324
14335TIP3   OH264495   5.366   5.299  12.951  0.6221  0.3545  0.1938
14335TIP3    H164496   5.320   5.245  13.015  1.4635  0.2233  0.7060
14335TIP3    H264497   5.346   5.389  12.975  0.2458  0.2914  0.1176
14336TIP3   OH264498   1.645   0.163   6.353 -0.1490 -0.5030 -0.1380
14336TIP3    H164499   1.652   0.109   6.432  1.0359  0.0224  0.1456
14336TIP3    H264500   1.661   0.103   6.281 -1.6728 -1.0749 -0.0290
14337TIP3   OH264501   2.987   2.160   4.049 -0.3777  0.5513  0.2583
14337TIP3    H164502   3.001   2.070   4.020 -1.8376  0.0001  1.1502
14337TIP3    H264503   3.075   2.197   4.057  0.4747 -1.6291  2.4217
14338TIP3   OH264504   5.148   3.496   5.806 -0.4216  0.3588 -0.2802
14338TIP3    H164505   5.073   3.550   5.830 -0.4700  0.3023 -0.3036
14338TIP3    H264506   5.177   3.531   5.722  0.4746  1.3159  0.4021
14339TIP3   OH264507   4.499   2.000   4.454 -0.1773  0.1918 -0.8296
14339TIP3    H164508   4.570   2.043   4.406  0.0326  0.4743 -0.2747
14339TIP3    H264509   4.430   1.989   4.389  0.3325  0.0098 -1.3507
14340TIP3   OH264510   6.139   0.777   4.706 -0.1377 -0.2299  0.2316
14340TIP3    H164511   6.113   0.685   4.700 -0.4398 -0.0714 -1.2046
14340TIP3    H264512   6.214   0.777   4.765 -0.5149 -1.3170  0.7249
14341TIP3   OH264513   1.355   1.321  12.038  0.6361  0.1077  0.1884
14341TIP3    H164514   1.438   1.282  12.010  1.1832  0.4510  1.3029
14341TIP3    H264515   1.363   1.331  12.133 -0.6463  0.2401  0.3068
14342TIP3   OH264516   1.438   4.294   0.458 -0.1765 -0.7569  0.0202
14342TIP3    H164517   1.506   4.226   0.464  0.0307 -0.5656 -0.1753
14342TIP3    H264518   1.408   4.290   0.368  2.2700  1.7413 -1.0413
14343TIP3   OH264519   0.042   0.200   0.295 -0.2422 -0.5048 -0.5817
14343TIP3    H164520   0.068   0.122   0.246  0.6098 -1.3918  1.1651
14343TIP3    H264521   0.121   0.224   0.344 -1.2205 -0.0864  0.8520
14344TIP3   OH264522   5.087   6.267   0.404  0.4260  0.0432 -0.1997
14344TIP3    H164523   5.009   6.314   0.434  1.2173  0.4618  1.3272
14344TIP3    H264524   5.059   6.222   0.325 -1.2734  0.4496  0.1291
14345TIP3   OH264525   5.583   6.708   2.543  0.1843 -0.3452 -0.2726
14345TIP3    H164526   5.616   6.645   2.607 -1.2965  0.1734  1.0785
14345TIP3    H264527   5.501   6.669   2.511 -0.4750  0.6253  0.1845
14346TIP3   OH264528   4.915   1.519   6.130  0.1563  0.0913 -1.1274
14346TIP3    H164529   4.945   1.434   6.161  1.9635  0.9348 -0.4148
14346TIP3    H264530   4.991   1.577   6.140 -1.6711  2.3811  0.7886
14347TIP3   OH264531   0.600   0.647   5.789  0.2330 -0.1008  0.3912
14347TIP3    H164532   0.583   0.694   5.871  0.0059  0.0674  0.2472
14347TIP3    H264533   0.543   0.570   5.794  0.9402 -0.6189  0.8365
14348TIP3   OH264534   4.678   0.373   5.311 -0.3180  0.1552  0.2077
14348TIP3    H164535   4.681   0.281   5.287 -0.8123  0.2639 -0.2884
14348TIP3    H264536   4.754   0.386   5.368 -1.0940 -0.9114  1.5470
14349TIP3   OH264537   3.582   5.624  16.737 -0.3958 -0.4334 -0.0610
14349TIP3    H164538   3.575   5.717  16.757  0.3529 -0.5148  0.6656
14349TIP3    H264539   3.505   5.604  16.684 -0.3299  0.6865 -0.5886
14350TIP3   OH264540   3.475   2.862   4.548  0.2491  0.0642  0.2437
14350TIP3    H164541   3.409   2.834   4.611 -0.7240  1.1254 -0.2684
14350TIP3    H264542   3.489   2.785   4.492  1.1759 -0.9135  1.7477
14351TIP3   OH264543   5.697   5.478   4.750 -0.1252  0.2521  0.5043
14351TIP3    H164544   5.678   5.390   4.782 -0.5909  0.0600 -0.2621
14351TIP3    H264545   5.723   5.465   4.659  5.0190  0.3450  1.6621
14352TIP3   OH264546   6.288   1.362   5.371  0.3608  0.1644  0.5288
14352TIP3    H164547   6.286   1.289   5.310 -2.4233  1.1813 -0.7597
14352TIP3    H264548   6.206   1.355   5.419  2.3314 -0.4855  4.2036
14353TIP3   OH264549   0.144   2.390   5.455 -0.0207 -0.0450  0.4742
14353TIP3    H164550   0.070   2.396   5.516 -0.1487 -0.1406  0.3288
14353TIP3    H264551   0.122   2.451   5.384 -0.6954 -1.1891 -0.3384
14354TIP3   OH264552   1.944   1.212  11.086 -0.0910 -0.3057 -0.0427
14354TIP3    H164553   1.936   1.277  11.156  0.9488 -1.1768  0.9218
14354TIP3    H264554   1.963   1.264  11.007 -2.4553  0.7970  0.0285
14355TIP3   OH264555   6.312   6.318  16.688 -0.2856 -0.2392 -0.0734
14355TIP3    H164556   6.361   6.322  16.770  0.1926 -1.9247 -0.2341
14355TIP3    H264557   6.340   6.396  16.639  0.8353 -0.1832  0.6126
14356TIP3   OH264558   5.125   1.379  12.107  0.1596 -0.4464  0.3373
14356TIP3    H164559   5.197   1.327  12.071 -0.7230 -1.7300  0.3439
14356TIP3    H264560   5.076   1.408  12.031 -0.6402 -1.5869  0.3829
14357TIP3   OH264561   6.312   3.666  13.546 -0.2231 -0.0820 -0.1817
14357TIP3    H164562   6.264   3.717  13.612 -0.0936  0.0015 -0.1514
14357TIP3    H264563   6.333   3.729  13.477  0.5475  0.0711  0.1790
14358TIP3   OH264564   2.780   3.039   3.281  0.3215 -0.2286 -0.4018
14358TIP3    H164565   2.770   3.118   3.333  0.0893 -0.4860 -0.0482
14358TIP3    H264566   2.864   3.002   3.308  0.0359 -0.5536  0.0637
14359TIP3   OH264567   2.623   6.512   2.075 -0.4217  0.4971 -0.0463
14359TIP3    H164568   2.559   6.583   2.076  0.3134  1.1674  0.6464
14359TIP3    H264569   2.708   6.556   2.076  0.0472 -0.3879  0.2372
14360TIP3   OH264570   6.834   5.562  16.615 -0.1765 -0.0906 -0.1087
14360TIP3    H164571   6.836   5.641  16.562  1.1144  0.2023  0.3279
14360TIP3    H264572   6.904   5.507  16.580 -2.0770 -1.8100 -1.4667
14361TIP3   OH264573   4.710   2.853  11.361  0.6598  0.3793  0.1517
14361TIP3    H164574   4.721   2.935  11.313 -0.2683  2.7577  3.6455
14361TIP3    H264575   4.752   2.868  11.445 -0.9351 -2.1251  1.5252
14362TIP3   OH264576   3.891   6.228   0.146 -0.2739  0.2936  0.7065
14362TIP3    H164577   3.825   6.161   0.126 -1.7072  1.5908  0.9142
14362TIP3    H264578   3.863   6.265   0.230  0.4660  1.1864  0.5735
14363TIP3   OH264579   0.777   3.512  10.709  0.4424 -0.3051 -0.2033
14363TIP3    H164580   0.855   3.567  10.709 -0.5757  1.2316 -1.2014
14363TIP3    H264581   0.798   3.440  10.768  1.2613  1.9907  2.5197
14364TIP3   OH264582   2.588   3.949  15.372  0.8857 -0.0198  0.1043
14364TIP3    H164583   2.642   3.923  15.297 -0.3068 -0.3203 -0.6699
14364TIP3    H264584   2.529   4.016  15.338 -1.0002 -1.5294  0.2324
14365TIP3   OH264585   2.876   5.808   0.622 -0.1845  0.3189  0.5148
14365TIP3    H164586   2.788   5.845   0.629  0.3404  1.4205  1.7891
14365TIP3    H264587   2.874   5.757   0.541 -2.0447  0.1477  0.6235
14366TIP3   OH264588   4.274   6.744  15.469  0.2185  0.5878 -0.2973
14366TIP3    H164589   4.349   6.685  15.481  0.1831  0.2808 -1.4972
14366TIP3    H264590   4.314   6.832  15.468  0.3593  0.5481  0.7116
14367TIP3   OH264591   4.708   6.632  12.365  0.3519 -0.4876  0.0012
14367TIP3    H164592   4.755   6.558  12.326  0.1065 -1.9255  2.2317
14367TIP3    H264593   4.629   6.592  12.401 -0.9825  1.3201 -0.7635
14368TIP3   OH264594   5.320   3.448  16.149 -0.5795  0.4073  0.7819
14368TIP3    H164595   5.380   3.470  16.220  0.3872 -0.0505  0.1434
14368TIP3    H264596   5.263   3.380  16.185 -1.0004  1.1405  1.5263
14369TIP3   OH264597   0.174   2.474  12.887  0.0191 -0.1576  0.0258
14369TIP3    H164598   0.104   2.412  12.906  0.3677 -0.0741  1.8461
14369TIP3    H264599   0.152   2.551  12.939  0.2113  0.8182 -1.2879
14370TIP3   OH264600   3.878   3.541  11.077  0.8058 -0.4286  0.7702
14370TIP3    H164601   3.851   3.480  11.009  1.5694  0.0458  0.0290
14370TIP3    H264602   3.971   3.523  11.090  1.2935  1.2270 -0.1750
14371TIP3   OH264603   1.742   1.768  15.624 -0.8755 -0.1999 -0.0184
14371TIP3    H164604   1.790   1.813  15.693 -1.6363  1.6957 -0.6676
14371TIP3    H264605   1.654   1.804  15.627 -0.9789 -0.1869 -1.8374
14372TIP3   OH264606   3.126   3.341   0.197  0.0984 -0.3751  0.2612
14372TIP3    H164607   3.046   3.389   0.174 -0.6441 -1.6074  0.1843
14372TIP3    H264608   3.114   3.255   0.157  1.6627 -0.4452 -0.1112
14373TIP3   OH264609   2.107   1.599   1.204  0.4377 -0.1318  0.3946
14373TIP3    H164610   2.169   1.652   1.255  2.4420 -2.7013  0.8159
14373TIP3    H264611   2.036   1.581   1.265  1.5052 -0.9031  1.4574
14374TIP3   OH264612   3.858   3.889   4.673  0.5190 -0.0593  0.2626
14374TIP3    H164613   3.795   3.849   4.734 -0.2441 -0.3501 -0.6766
14374TIP3    H264614   3.939   3.839   4.686 -0.0562 -1.0928  0.0211
14375TIP3   OH264615   4.191   3.494   3.313 -0.0644  0.4058 -0.7068
14375TIP3    H164616   4.122   3.441   3.353  0.1468  0.4833 -0.2417
14375TIP3    H264617   4.259   3.431   3.290  0.5431  0.5553  0.5849
14376TIP3   OH264618   6.715   5.255  16.882 -0.2194 -0.9700  0.0880
14376TIP3    H164619   6.797   5.226  16.843  0.4595  0.6410  0.2528
14376TIP3    H264620   6.658   5.272  16.807 -0.2700 -1.7111 -0.0425
14377TIP3   OH264621   4.653   2.206   4.316  0.1506  0.1603 -0.3183
14377TIP3    H164622   4.601   2.284   4.297  0.3872  0.2405 -0.6349
14377TIP3    H264623   4.744   2.234   4.307  0.3934  0.7096  2.7314
14378TIP3   OH264624   1.857   3.172  12.196  0.6951 -0.2360 -0.2719
14378TIP3    H164625   1.778   3.129  12.230  1.4009 -2.2362 -1.0037
14378TIP3    H264626   1.880   3.235  12.264 -0.6502 -0.7137  0.6866
14379TIP3   OH264627   2.727   2.031   3.035 -0.0978 -0.3069  0.0883
14379TIP3    H164628   2.693   2.063   3.118 -1.7943 -0.1507 -0.6229
14379TIP3    H264629   2.656   1.977   2.999 -0.1241  1.0406 -2.0369
14380TIP3   OH264630   2.357   1.394   0.129 -0.6034  0.5750  0.2013
14380TIP3    H164631   2.445   1.380   0.162  0.0212 -0.5014 -1.7610
14380TIP3    H264632   2.301   1.389   0.207  1.0534  1.5498  1.5116
14381TIP3   OH264633   4.079   2.661   4.126  0.0286 -0.1217 -0.0782
14381TIP3    H164634   4.089   2.593   4.059 -0.3296  0.3416 -0.6148
14381TIP3    H264635   4.020   2.726   4.086  0.2659  0.4432  0.4680
14382TIP3   OH264636   6.417   2.485  11.203 -0.0723 -0.1556  0.0849
14382TIP3    H164637   6.458   2.509  11.285  0.0535  1.2572 -0.3763
14382TIP3    H264638   6.336   2.536  11.201 -1.9262 -2.8389  0.9571
14383TIP3   OH264639   4.632   2.679  11.125  0.4231  0.0707  0.0631
14383TIP3    H164640   4.643   2.746  11.192 -1.2580  0.1140  0.3478
14383TIP3    H264641   4.564   2.621  11.160 -0.7355  0.2776 -1.7155
14384TIP3   OH264642   6.073   0.160  15.863 -0.1698 -0.4561 -0.8211
14384TIP3    H164643   6.088   0.246  15.901 -0.6856 -1.1476  1.0798
14384TIP3    H264644   5.983   0.162  15.832 -0.1368 -0.2748 -0.9037
14385TIP3   OH264645   5.989   4.272   1.049 -0.0314 -0.3720 -0.0011
14385TIP3    H164646   6.061   4.310   1.000 -1.8601  1.5891 -1.3569
14385TIP3    H264647   6.025   4.193   1.089  3.1467  1.1213  0.3703
14386TIP3   OH264648   1.146   6.609  12.582  0.2037 -0.3546  0.6940
14386TIP3    H164649   1.132   6.701  12.607  0.0896 -0.8634  2.7057
14386TIP3    H264650   1.226   6.610  12.529 -0.0635  0.9638  0.2906
14387TIP3   OH264651   2.761   2.068   0.141 -0.1048 -0.8599 -0.1143
14387TIP3    H164652   2.732   2.097   0.227 -1.1246  1.6877 -1.2455
14387TIP3    H264653   2.855   2.051   0.152 -0.1437 -0.2365  1.3842
14388TIP3   OH264654   1.098   6.139  16.303 -0.2575  0.0326  0.0917
14388TIP3    H164655   1.085   6.121  16.396 -0.7949 -1.0918 -0.1783
14388TIP3    H264656   1.141   6.224  16.301  1.4196 -0.7186  1.4320
14389TIP3   OH264657   6.415   4.790   4.230 -0.2939  0.1506 -0.4235
14389TIP3    H164658   6.508   4.774   4.245  0.1925  1.4416 -1.8325
14389TIP3    H264659   6.378   4.802   4.317  0.9458  0.0979  0.1258
14390TIP3   OH264660   5.028   2.043  11.367 -0.2449 -0.2842 -0.1116
14390TIP3    H164661   5.023   2.131  11.331  1.3977  1.0563  2.6393
14390TIP3    H264662   5.111   2.041  11.415 -1.2905 -2.5442  1.8340
14391TIP3   OH264663   1.532   5.525  16.612  0.2068  0.1348 -0.4632
14391TIP3    H164664   1.607   5.548  16.556 -0.4445 -0.7321 -1.7544
14391TIP3    H264665   1.558   5.442  16.652  0.0377 -0.0594 -0.7490
14392TIP3   OH264666   2.794   3.137   2.947  0.4575 -0.2516  0.0067
14392TIP3    H164667   2.742   3.121   2.868  1.2373  0.5515 -0.6878
14392TIP3    H264668   2.740   3.103   3.019 -0.9991  0.5407 -0.6857
14393TIP3   OH264669   4.385   2.728  11.723 -0.1009 -0.0720  0.7222
14393TIP3    H164670   4.337   2.742  11.805 -0.8494 -1.2054  0.4968
14393TIP3    H264671   4.450   2.662  11.744 -1.3500 -1.5885  0.0555
14394TIP3   OH264672   3.123   2.433  11.164  0.0961 -0.5638 -0.1943
14394TIP3    H164673   3.186   2.497  11.196  2.2470 -2.1205 -1.1158
14394TIP3    H264674   3.088   2.472  11.084 -1.3514  0.9778  1.0953
14395TIP3   OH264675   4.728   3.063  15.514  0.0243 -0.1571 -0.7281
14395TIP3    H164676   4.818   3.029  15.509 -0.3280 -0.9557 -2.0872
14395TIP3    H264677   4.681   2.997  15.565  0.0136 -0.1746 -0.7607
14396TIP3   OH264678   3.208   0.186  11.969  0.1748  0.3303 -0.0630
14396TIP3    H164679   3.301   0.171  11.954  0.3450  1.5545 -0.3627
14396TIP3    H264680   3.166   0.165  11.886  0.3252  0.8192 -0.2669
14397TIP3   OH264681   0.705   0.789   0.422 -0.1740 -0.1108 -0.0961
14397TIP3    H164682   0.752   0.870   0.403 -2.3402  2.0026  2.6697
14397TIP3    H264683   0.758   0.720   0.380  2.6210  2.4994 -1.2556
14398TIP3   OH264684   3.976   0.775  11.674 -0.0323  0.4647  0.2564
14398TIP3    H164685   4.025   0.829  11.735  0.7825  0.1418 -0.1012
14398TIP3    H264686   3.995   0.685  11.700  0.2822  0.3214 -0.4282
14399TIP3   OH264687   6.353   4.074   4.955  0.1031 -0.4570  0.1754
14399TIP3    H164688   6.285   4.126   4.912  0.8774 -0.5496 -1.2233
14399TIP3    H264689   6.337   4.087   5.049 -0.5117  1.2546 -0.1276
14400TIP3   OH264690   1.699   0.906  13.971 -0.1765 -0.4841  0.0026
14400TIP3    H164691   1.606   0.923  13.962 -0.1274  0.4227  0.9701
14400TIP3    H264692   1.705   0.813  13.992 -0.7421 -0.8755 -1.4699
14401TIP3   OH264693   2.785   6.832   3.652 -0.2494  0.9663  0.0366
14401TIP3    H164694   2.794   6.907   3.593 -2.4819  1.6390  0.4493
14401TIP3    H264695   2.707   6.787   3.621 -1.7618  1.5933  2.6787
14402TIP3   OH264696   2.651   3.484   1.550 -0.4576  0.4839 -0.9412
14402TIP3    H164697   2.616   3.541   1.619  2.3202 -0.2176  1.2944
14402TIP3    H264698   2.729   3.530   1.519 -1.3067  0.4709 -3.2717
14403TIP3   OH264699   5.847   2.679  11.455  0.5512 -0.0830  0.7882
14403TIP3    H164700   5.930   2.650  11.417 -0.4745 -1.2724 -0.6316
14403TIP3    H264701   5.828   2.763  11.413 -0.4199 -1.2404 -1.1917
14404TIP3   OH264702   3.467   1.221  13.605 -0.3772  0.0143 -0.1407
14404TIP3    H164703   3.406   1.165  13.558 -1.0721 -0.1621  0.9458
14404TIP3    H264704   3.500   1.282  13.539  0.9917 -2.1155 -1.5585
14405TIP3   OH264705   3.254   0.576  15.080 -0.1558  0.2887  0.1643
14405TIP3    H164706   3.303   0.548  15.157  0.1184  1.9525  0.6399
14405TIP3    H264707   3.290   0.663  15.060 -1.6679  0.7668 -0.5767
14406TIP3   OH264708   0.300   5.488   5.239  0.4680  0.7966 -0.5386
14406TIP3    H164709   0.310   5.458   5.148 -0.0471  1.5061 -0.8326
14406TIP3    H264710   0.389   5.487   5.274  0.5642 -0.3489 -0.7615
14407TIP3   OH264711   0.558   6.398  12.416 -0.7580  0.1522  0.2655
14407TIP3    H164712   0.595   6.466  12.360  0.8645 -0.0297  1.0548
14407TIP3    H264713   0.471   6.382  12.380 -2.0821  4.0753  1.2514
14408TIP3   OH264714   5.869   4.282  15.180  0.1867  0.5413  0.4827
14408TIP3    H164715   5.863   4.257  15.087  0.1297 -1.5138  0.9827
14408TIP3    H264716   5.866   4.377  15.179 -0.6108  0.5621 -1.5783
14409TIP3   OH264717   5.341   1.968  11.648 -0.4332  0.1986 -0.1849
14409TIP3    H164718   5.360   2.021  11.571  2.3652 -0.0676  0.2284
14409TIP3    H264719   5.247   1.948  11.641 -0.3290  0.3382 -3.3714
14410TIP3   OH264720   6.666   6.037  15.022 -0.1644 -0.3146 -0.3955
14410TIP3    H164721   6.734   6.103  15.030 -1.8482  1.3708  0.6559
14410TIP3    H264722   6.681   5.977  15.095 -0.0288  0.2561  0.0457
14411TIP3   OH264723   0.137   1.410  13.141  0.3042 -0.0420  0.5463
14411TIP3    H164724   0.183   1.437  13.221 -0.5967  0.7357  0.8056
14411TIP3    H264725   0.048   1.390  13.170 -0.1522  0.6709 -0.3372
14412TIP3   OH264726   1.087   6.297  13.510 -0.4101  0.6520  0.2010
14412TIP3    H164727   1.044   6.332  13.431  1.0662 -1.7981 -1.8563
14412TIP3    H264728   1.032   6.224  13.536  0.5700 -0.3030 -0.3255
14413TIP3   OH264729   0.702   2.349   0.520 -0.4311  0.5888 -0.4685
14413TIP3    H164730   0.653   2.267   0.531  1.3988 -0.6009 -0.7637
14413TIP3    H264731   0.762   2.351   0.595 -0.3563  1.5962 -0.5426
14414TIP3   OH264732   6.478   1.086  15.092 -0.0542 -0.1595 -0.0824
14414TIP3    H164733   6.528   1.057  15.016 -0.3149  0.4709 -0.5000
14414TIP3    H264734   6.526   1.050  15.167 -1.6055 -3.7231 -0.5751
14415TIP3   OH264735   5.107   2.744  14.192  0.5606  0.4362  0.0135
14415TIP3    H164736   5.082   2.684  14.262 -1.9654 -0.3776 -1.4714
14415TIP3    H264737   5.062   2.826  14.214  1.3901  0.8249  0.3322
14416TIP3   OH264738   0.233   3.268  12.145 -0.2450 -0.0104 -0.0766
14416TIP3    H164739   0.294   3.202  12.178  2.1380  0.1537 -3.6081
14416TIP3    H264740   0.279   3.351  12.157 -0.2290  0.2488 -1.7556
14417TIP3   OH264741   0.135   2.834  15.339  0.0256  0.0620 -0.3646
14417TIP3    H164742   0.050   2.795  15.361  0.6844 -1.6989 -0.7545
14417TIP3    H264743   0.186   2.762  15.301  1.9565  0.8616  0.5340
14418TIP3   OH264744   1.288   4.358  15.810  0.5590 -0.1363  0.0882
14418TIP3    H164745   1.213   4.306  15.836  0.4368  0.7290  1.5863
14418TIP3    H264746   1.334   4.305  15.745  0.3288 -2.0022  1.3821
14419TIP3   OH264747   4.540   0.445   5.853 -0.5467  0.0267  0.1241
14419TIP3    H164748   4.621   0.414   5.811 -1.1164  0.8334 -1.6700
14419TIP3    H264749   4.542   0.406   5.940  1.5079 -0.4228 -0.0651
14420TIP3   OH264750   3.394   4.971   3.694  0.1248 -0.5774 -0.5017
14420TIP3    H164751   3.438   4.960   3.779 -1.0732 -0.4613  0.1623
14420TIP3    H264752   3.460   5.011   3.638  0.1733  1.9167  1.1741
14421TIP3   OH264753   6.521   4.728   2.280 -0.1759 -0.7107  0.3901
14421TIP3    H164754   6.471   4.649   2.300 -1.1466 -0.1036  0.4203
14421TIP3    H264755   6.492   4.792   2.346 -0.6162  0.1679 -0.6316
14422TIP3   OH264756   4.125   6.097  15.801  0.3977  0.1427 -0.1648
14422TIP3    H164757   4.136   6.116  15.894  0.2797  0.4523 -0.2122
14422TIP3    H264758   4.083   6.175  15.765  0.6215  0.1070 -0.5178
14423TIP3   OH264759   0.209   6.740   1.106 -0.3373  1.0277 -0.2173
14423TIP3    H164760   0.234   6.650   1.084  0.7057  1.4542 -0.8762
14423TIP3    H264761   0.232   6.791   1.028 -1.8649  1.7265 -0.2571
14424TIP3   OH264762   1.792   6.761   3.291  0.1376 -0.3800  0.2396
14424TIP3    H164763   1.779   6.745   3.198 -0.5588  0.9217  0.0905
14424TIP3    H264764   1.820   6.677   3.326 -1.9207 -1.5270 -0.7202
14425TIP3   OH264765   0.913   6.203  13.870 -0.3165 -0.2320 -0.0898
14425TIP3    H164766   0.966   6.237  13.942 -0.1165 -0.0676 -0.3130
14425TIP3    H264767   0.858   6.276  13.843 -0.3389 -0.2715 -0.1533
14426TIP3   OH264768   3.212   0.860   2.830  0.3623 -0.2643 -0.1059
14426TIP3    H164769   3.269   0.936   2.820 -0.6060  0.7038  1.3343
14426TIP3    H264770   3.134   0.882   2.780  0.8620 -1.2116 -1.3514
14427TIP3   OH264771   3.846   2.777   5.936 -0.6361  0.2937 -0.3928
14427TIP3    H164772   3.754   2.799   5.951 -0.6252  0.2496 -0.2610
14427TIP3    H264773   3.864   2.810   5.848 -0.3680  1.6314  0.1417
14428TIP3   OH264774   6.011   5.643  15.874  0.4296 -0.1935  0.0548
14428TIP3    H164775   5.931   5.658  15.822 -0.2256  2.0424  1.5516
14428TIP3    H264776   6.042   5.557  15.846 -2.1951 -0.9050 -0.9825
14429TIP3   OH264777   2.000   5.155  15.712 -0.2300  0.1248 -0.1567
14429TIP3    H164778   1.927   5.112  15.756  0.0263  0.5136  0.6766
14429TIP3    H264779   1.971   5.164  15.621 -0.8917 -0.4400 -0.0117
14430TIP3   OH264780   3.495   6.440  12.194  0.1094  0.2530 -0.1154
14430TIP3    H164781   3.584   6.407  12.178 -0.9748 -1.9075 -2.6972
14430TIP3    H264782   3.446   6.362  12.221 -1.0839  1.3578  1.0047
14431TIP3   OH264783   1.704   3.518   3.653  0.2115  0.1631  0.4057
14431TIP3    H164784   1.797   3.493   3.657  1.5869  4.3268 -0.5996
14431TIP3    H264785   1.667   3.462   3.585  3.0589  0.9176 -1.9856
14432TIP3   OH264786   3.636   5.736  12.413 -0.2621 -0.5703  0.2145
14432TIP3    H164787   3.572   5.805  12.429  1.2996  0.8008  0.9745
14432TIP3    H264788   3.666   5.710  12.500  1.7987  0.4728 -0.1002
14433TIP3   OH264789   3.315   6.024  16.008 -0.8435 -0.1254 -0.3761
14433TIP3    H164790   3.349   6.113  16.009 -2.8546  0.6985 -0.3862
14433TIP3    H264791   3.386   5.971  15.972  0.3141  1.4900 -0.5667
14434TIP3   OH264792   4.538   1.793  16.677 -0.4399 -0.3996 -0.6252
14434TIP3    H164793   4.475   1.818  16.609 -0.0853 -0.6177 -1.0412
14434TIP3    H264794   4.538   1.867  16.738 -1.8844 -0.8610 -0.0420
14435TIP3   OH264795   4.340   4.369  16.064  0.2776 -0.4789  0.3604
14435TIP3    H164796   4.411   4.359  16.000  1.0915  1.1421  0.9693
14435TIP3    H264797   4.271   4.414  16.016  0.6131  0.1078  0.4231
14436TIP3   OH264798   1.828   4.365   6.095 -0.1253 -0.0804  0.3992
14436TIP3    H164799   1.759   4.395   6.035  0.4294  0.3727 -0.0202
14436TIP3    H264800   1.884   4.442   6.108  3.0139 -1.5244 -3.0120
14437TIP3   OH264801   0.040   0.408   4.032 -0.2844 -0.0735 -0.1991
14437TIP3    H164802   0.118   0.459   4.012 -0.4408 -0.3553 -1.7057
14437TIP3    H264803   0.066   0.317   4.015 -1.0482 -0.1260 -1.1656
14438TIP3   OH264804   4.369   6.074   4.640  0.3209  0.1592 -0.7519
14438TIP3    H164805   4.443   6.038   4.690 -0.1767  0.8674  0.5331
14438TIP3    H264806   4.315   6.118   4.705 -0.7347  0.5031 -1.8249
14439TIP3   OH264807   6.686   6.613   1.768 -0.2961 -0.1356 -0.3481
14439TIP3    H164808   6.775   6.621   1.800 -0.8371 -0.1244  1.2394
14439TIP3    H264809   6.632   6.651   1.837 -1.4637  0.9447 -1.7788
14440TIP3   OH264810   2.089   1.382   2.723  0.1340  0.4524 -0.9343
14440TIP3    H164811   2.165   1.439   2.731 -1.7536  3.0533  0.1764
14440TIP3    H264812   2.078   1.344   2.810  0.0415  0.2691 -1.0251
14441TIP3   OH264813   5.430   6.305   2.633 -0.6227  0.3513 -0.1301
14441TIP3    H164814   5.460   6.363   2.703  0.1206 -0.4639  0.2308
14441TIP3    H264815   5.498   6.311   2.566 -0.7988  0.2832 -0.3166
14442TIP3   OH264816   1.176   2.533  15.198  0.6241  0.2352 -0.1833
14442TIP3    H164817   1.237   2.566  15.132 -0.4536  3.3368  0.2474
14442TIP3    H264818   1.103   2.498  15.148  1.3963 -0.8311 -0.6266
14443TIP3   OH264819   1.439   3.082   3.295 -0.1195 -0.0037 -0.2589
14443TIP3    H164820   1.383   3.036   3.233 -0.6279  0.5706 -0.2325
14443TIP3    H264821   1.525   3.040   3.286 -0.2654 -0.1260 -1.1187
14444TIP3   OH264822   6.056   2.642   2.052  0.3641  0.4016  1.0457
14444TIP3    H164823   6.055   2.582   2.126  0.1293 -0.6360  0.2149
14444TIP3    H264824   6.094   2.592   1.980 -1.8915  0.4440 -0.2731
14445TIP3   OH264825   0.839   5.481  11.842 -0.0331  0.1422 -0.8845
14445TIP3    H164826   0.881   5.567  11.844  0.1179  0.0578  0.5525
14445TIP3    H264827   0.820   5.466  11.749  0.9415  1.2293 -1.2900
14446TIP3   OH264828   1.178   6.486   4.998  0.4114  0.2363 -0.2870
14446TIP3    H164829   1.120   6.515   5.067 -0.6005 -1.5465 -0.3101
14446TIP3    H264830   1.163   6.391   4.992  1.5303  0.1085 -1.9565
14447TIP3   OH264831   6.471   0.872  11.997  0.0077  1.2173 -0.5447
14447TIP3    H164832   6.529   0.918  11.936  0.4706  0.2776 -0.8320
14447TIP3    H264833   6.385   0.875  11.955 -0.0045  1.9647 -0.4752
14448TIP3   OH264834   6.286   3.920   2.159 -0.7016  0.0563  0.4579
14448TIP3    H164835   6.364   3.971   2.179 -1.7328  2.2052 -0.7163
14448TIP3    H264836   6.283   3.916   2.064 -1.8771 -0.2325  0.4905
14449TIP3   OH264837   4.900   2.379   0.583 -0.5463 -0.4307  0.1734
14449TIP3    H164838   4.938   2.463   0.609 -1.5418 -0.2245  1.0683
14449TIP3    H264839   4.811   2.382   0.618 -1.1443 -1.1889 -1.2153
14450TIP3   OH264840   3.943   2.552  12.736  0.7043 -0.0474 -0.0756
14450TIP3    H164841   3.891   2.499  12.675 -0.7880  0.6814  0.4982
14450TIP3    H264842   4.003   2.489  12.777  0.1111 -0.9791 -0.5949
14451TIP3   OH264843   2.037   0.328   1.327  0.4228  0.4197 -0.3461
14451TIP3    H164844   2.083   0.279   1.395  0.1766 -0.7376 -0.9756
14451TIP3    H264845   1.944   0.316   1.347  0.2295 -2.0410 -2.1962
14452TIP3   OH264846   2.072   4.423   1.281  0.7505 -0.5945  0.4433
14452TIP3    H164847   2.130   4.497   1.260  0.3693 -0.9636 -2.2447
14452TIP3    H264848   1.985   4.454   1.255  0.1744 -1.1246  1.6710
14453TIP3   OH264849   4.815   1.236  13.263  0.1092  0.3922  0.0425
14453TIP3    H164850   4.768   1.180  13.201  0.8643 -0.6166  0.3579
14453TIP3    H264851   4.782   1.324  13.245 -0.7667 -0.0846 -0.7791
14454TIP3   OH264852   1.921   3.374  16.430 -0.2267  0.1776 -0.2312
14454TIP3    H164853   1.908   3.469  16.442  0.1625  0.0092  1.9812
14454TIP3    H264854   1.957   3.345  16.514 -1.0738 -2.0695 -0.5972
14455TIP3   OH264855   4.472   3.979   0.464 -0.8180 -0.0443 -0.3323
14455TIP3    H164856   4.472   3.884   0.455  0.6641 -0.1850  0.7918
14455TIP3    H264857   4.384   4.001   0.492 -0.4098 -1.4306  2.3099
14456TIP3   OH264858   5.483   3.242  14.557 -0.9374  0.2972  0.2036
14456TIP3    H164859   5.420   3.201  14.498  0.2622  1.7715 -2.2554
14456TIP3    H264860   5.563   3.189  14.549 -0.8230  0.3844  0.6887
14457TIP3   OH264861   2.726   3.889  12.266 -0.3233  0.3939 -1.0085
14457TIP3    H164862   2.784   3.965  12.269 -1.0161  0.8977  0.1651
14457TIP3    H264863   2.773   3.821  12.315 -0.0275  0.2879 -1.4330
14458TIP3   OH264864   2.500   5.321  14.913 -0.3675  0.1081 -0.0110
14458TIP3    H164865   2.536   5.410  14.911  2.6486 -0.9865 -0.4741
14458TIP3    H264866   2.525   5.284  14.828 -0.3403 -1.5705  0.6908
14459TIP3   OH264867   2.504   4.764  12.433 -0.0211 -0.2511 -1.0077
14459TIP3    H164868   2.441   4.836  12.429  0.4889  0.1757 -1.5005
14459TIP3    H264869   2.558   4.774  12.354  1.8035  0.4429  0.2552
14460TIP3   OH264870   2.575   0.214   1.870  0.6804 -0.8048  0.2253
14460TIP3    H164871   2.624   0.266   1.806 -1.1951  0.7549 -0.0357
14460TIP3    H264872   2.548   0.136   1.821  1.2031 -0.7287 -0.2016
14461TIP3   OH264873   5.219   0.643  14.836  0.0482 -0.1357  0.2857
14461TIP3    H164874   5.181   0.592  14.907  0.0006 -2.1160 -1.0808
14461TIP3    H264875   5.149   0.650  14.771  1.3918 -2.6139 -1.6489
14462TIP3   OH264876   1.460   0.167   5.934  0.3774 -0.8184  0.2002
14462TIP3    H164877   1.527   0.194   5.870  0.5417  1.5728  1.3152
14462TIP3    H264878   1.426   0.084   5.898  1.6662 -0.4552 -2.0706
14463TIP3   OH264879   5.967   0.159   5.880  0.2803 -0.2096  0.1721
14463TIP3    H164880   5.995   0.112   5.959 -0.5778 -0.4622  0.3364
14463TIP3    H264881   5.881   0.196   5.903 -0.1498 -0.5889 -0.7578
14464TIP3   OH264882   2.089   5.234   5.163  0.1358  0.1793 -0.0079
14464TIP3    H164883   2.046   5.204   5.243 -0.6062 -0.2207 -0.5441
14464TIP3    H264884   2.176   5.262   5.192  0.6106 -1.8308  0.6264
14465TIP3   OH264885   1.123   3.026   4.837  0.0114  0.0661 -0.0951
14465TIP3    H164886   1.044   3.067   4.871 -0.3188  0.2038 -1.0129
14465TIP3    H264887   1.124   3.048   4.744  1.5683  0.7682  0.0610
14466TIP3   OH264888   3.904   5.516   5.238  0.1283  0.2951 -0.2708
14466TIP3    H164889   3.840   5.445   5.228  0.9714 -0.3105 -1.5525
14466TIP3    H264890   3.899   5.539   5.331 -1.9560  0.2763 -0.3271
14467TIP3   OH264891   4.415   1.879   3.942 -0.2422  1.1768 -0.0525
14467TIP3    H164892   4.339   1.822   3.951  0.2307  0.8386  3.2162
14467TIP3    H264893   4.382   1.966   3.963  0.1480  1.0625  1.1467
14468TIP3   OH264894   4.987   4.592  13.458 -0.5468 -0.2338  0.0063
14468TIP3    H164895   5.038   4.535  13.515  0.5032  0.4061 -0.2632
14468TIP3    H264896   4.896   4.567  13.474 -0.3600  0.4633  2.5549
14469TIP3   OH264897   2.799   6.447   2.908  0.5384 -0.3316  0.5331
14469TIP3    H164898   2.722   6.405   2.870  0.7657  0.9496 -1.4987
14469TIP3    H264899   2.873   6.408   2.861  0.7869  1.7185 -0.9032
14470TIP3   OH264900   2.397   2.216  13.716 -0.2197 -0.0736  0.7763
14470TIP3    H164901   2.393   2.166  13.798  0.7173 -0.2453  0.7290
14470TIP3    H264902   2.305   2.227  13.690 -0.5326 -0.0241  1.8434
14471TIP3   OH264903   5.448   5.358  14.873 -0.8648 -0.2377 -0.0407
14471TIP3    H164904   5.509   5.297  14.832 -1.0233 -0.2467 -0.2728
14471TIP3    H264905   5.487   5.380  14.957  0.8806  1.9301 -1.2963
14472TIP3   OH264906   4.892   1.252   4.792  0.4182  0.3418  0.0519
14472TIP3    H164907   4.885   1.249   4.887  2.1142  1.1496  0.2578
14472TIP3    H264908   4.822   1.311   4.764  0.2468  0.5275  0.8558
14473TIP3   OH264909   5.110   3.942   5.866 -0.1998  0.8149 -0.2932
14473TIP3    H164910   5.203   3.938   5.888 -0.3977  0.9556  0.5738
14473TIP3    H264911   5.091   4.035   5.853 -0.9605  1.2005  2.8747
14474TIP3   OH264912   4.835   6.533   4.364 -0.2596 -0.1184  0.0112
14474TIP3    H164913   4.786   6.481   4.428  0.7064 -0.4733  0.4719
14474TIP3    H264914   4.804   6.501   4.279 -1.4012  0.2130  0.2869
14475TIP3   OH264915   2.158   0.503  14.081  0.2732 -0.1778  0.0471
14475TIP3    H164916   2.242   0.510  14.126 -0.0245 -1.6275  0.9275
14475TIP3    H264917   2.096   0.547  14.140  0.1837 -0.4618  0.1707
14476TIP3   OH264918   5.521   3.056  15.259  0.3533  0.2402  0.0016
14476TIP3    H164919   5.519   2.986  15.323  1.1636  0.6652  0.5086
14476TIP3    H264920   5.429   3.080  15.246 -0.1043 -2.0351 -1.4597
14477TIP3   OH264921   2.804   4.773  12.840  0.0324  0.5791 -0.4222
14477TIP3    H164922   2.810   4.698  12.899  0.8728 -1.2094 -2.6376
14477TIP3    H264923   2.712   4.799  12.844 -0.8559 -2.1212 -1.3048
14478TIP3   OH264924   2.409   6.708   2.062  0.3854  0.6700  0.3556
14478TIP3    H164925   2.392   6.778   1.999  0.6082  0.6122  0.2303
14478TIP3    H264926   2.332   6.652   2.056 -0.6512  1.8650  1.7741
14479TIP3   OH264927   6.542   3.525   5.186 -0.3651  0.3242 -0.3436
14479TIP3    H164928   6.514   3.610   5.151  0.4639  0.5211 -0.5583
14479TIP3    H264929   6.587   3.482   5.113 -0.6462 -0.2403 -0.1923
14480TIP3   OH264930   6.214   5.598   1.605 -0.0796  0.0519  0.1683
14480TIP3    H164931   6.214   5.504   1.622 -0.7457  0.2568  1.4235
14480TIP3    H264932   6.124   5.625   1.619  0.0633  0.8585 -0.3802
14481TIP3   OH264933   3.378   3.595   6.859  0.0796 -0.4344 -0.3537
14481TIP3    H164934   3.287   3.564   6.863 -0.9059  1.8907 -2.4955
14481TIP3    H264935   3.397   3.604   6.766  1.9208  0.7928  0.0735
14482TIP3   OH264936   1.266   5.102  16.546 -0.4010  0.4265 -0.2334
14482TIP3    H164937   1.361   5.098  16.539 -0.4728  1.3750 -2.6456
14482TIP3    H264938   1.242   5.023  16.595  1.5795 -0.0268  0.0743
14483TIP3   OH264939   1.201   6.125  13.730  0.9558  0.5068  0.0484
14483TIP3    H164940   1.121   6.072  13.737  1.0754  0.2726 -0.3602
14483TIP3    H264941   1.250   6.085  13.658  0.5827  1.8063 -0.9583
14484TIP3   OH264942   1.618   1.522   3.998  0.5573  0.2798  0.0803
14484TIP3    H164943   1.704   1.484   3.979  0.2925 -0.6706  0.7324
14484TIP3    H264944   1.560   1.484   3.932  0.4897  0.3454  0.1022
14485TIP3   OH264945   3.510   6.485  14.199 -0.3712  1.2502  0.1519
14485TIP3    H164946   3.533   6.485  14.106 -0.4290  1.5881  0.1365
14485TIP3    H264947   3.595   6.483  14.244 -0.3444  0.0532  0.1017
14486TIP3   OH264948   1.287   4.098  14.848 -0.0452  0.5423 -0.2244
14486TIP3    H164949   1.348   4.165  14.879  1.1879 -0.5130 -0.2499
14486TIP3    H264950   1.341   4.020  14.837 -1.6421 -0.8423  1.0743
14487TIP3   OH264951   3.710   3.022  16.812  0.4472  0.1898  0.1652
14487TIP3    H164952   3.682   3.100  16.764 -0.2684 -0.0206  0.2224
14487TIP3    H264953   3.638   2.960  16.800  1.3288 -0.7344 -0.4883
14488TIP3   OH264954   3.384   2.669   4.161  0.4419  0.0876 -0.5635
14488TIP3    H164955   3.406   2.634   4.247  2.5376 -1.4399 -1.6405
14488TIP3    H264956   3.344   2.596   4.115 -0.6648  0.8932 -0.9200
14489TIP3   OH264957   6.315   1.523   0.703  0.4921 -0.4344 -0.1726
14489TIP3    H164958   6.239   1.517   0.762  1.3307  1.1953  1.1656
14489TIP3    H264959   6.386   1.552   0.760  1.3309  1.2940 -1.9906
14490TIP3   OH264960   0.174   3.552   4.861 -0.2200 -0.2217 -0.3579
14490TIP3    H164961   0.150   3.615   4.793  0.3382  0.3278 -0.0584
14490TIP3    H264962   0.255   3.587   4.899  0.7269 -1.6845 -0.9129
14491TIP3   OH264963   2.890   3.380  16.927 -0.4403 -0.5776  0.0404
14491TIP3    H164964   2.970   3.422  16.896  0.4248 -1.2837  1.2344
14491TIP3    H264965   2.830   3.453  16.946 -0.3614 -0.0718 -1.5152
14492TIP3   OH264966   3.974   3.909   0.478 -0.1035 -0.2247  0.0804
14492TIP3    H164967   3.972   3.816   0.458 -0.8829 -0.0534 -0.7021
14492TIP3    H264968   4.021   3.915   0.561  1.6159 -1.1229 -0.7888
14493TIP3   OH264969   5.082   4.785   6.469  0.1503  0.1403  0.0775
14493TIP3    H164970   5.008   4.807   6.525 -0.3423 -0.1583 -0.4520
14493TIP3    H264971   5.154   4.838   6.504  0.0832 -0.6592  1.5340
14494TIP3   OH264972   3.395   0.161   3.640  0.0946 -0.3262  0.8572
14494TIP3    H164973   3.303   0.187   3.647  0.5055  1.2132  1.0142
14494TIP3    H264974   3.393   0.066   3.642 -1.4431 -0.3221  1.6712
14495TIP3   OH264975   1.420   4.062   2.437  0.1916 -0.5699 -1.1465
14495TIP3    H164976   1.422   4.141   2.491  1.3211 -0.4229 -1.3897
14495TIP3    H264977   1.359   4.004   2.483 -0.0624  0.1426 -0.5533
14496TIP3   OH264978   3.764   4.077   3.379 -0.4347  0.2719 -0.2536
14496TIP3    H164979   3.797   4.160   3.345  1.2888 -0.2581  0.0418
14496TIP3    H264980   3.797   4.073   3.469 -0.9624 -0.4880 -0.0821
14497TIP3   OH264981   6.074   5.901   4.140  0.0030 -0.4360  0.2154
14497TIP3    H164982   6.112   5.873   4.057 -3.1079 -1.7634 -0.8911
14497TIP3    H264983   6.099   5.833   4.202  0.5326 -0.5707 -0.1341
14498TIP3   OH264984   0.019   3.115  14.140 -0.4069 -0.6005 -0.1142
14498TIP3    H164985  -0.064   3.135  14.097 -0.8186 -1.1317  0.4120
14498TIP3    H264986   0.016   3.021  14.157  0.3958 -0.6686 -0.2754
14499TIP3   OH264987   5.274   4.763  13.712  0.2454 -0.4211 -0.4232
14499TIP3    H164988   5.321   4.689  13.674  0.9904 -0.2361  0.1180
14499TIP3    H264989   5.282   4.833  13.647  3.2197  0.5346  0.8317
14500TIP3   OH264990   2.787   0.770   2.718 -0.1378 -0.0043 -0.2287
14500TIP3    H164991   2.714   0.828   2.694  0.3571  0.2431 -1.1830
14500TIP3    H264992   2.807   0.724   2.637  0.3926 -0.4915  0.1803
14501TIP3   OH264993   0.305   0.820   2.530 -0.9908  0.5642 -0.3216
14501TIP3    H164994   0.384   0.800   2.580 -0.5816  0.6233 -0.9312
14501TIP3    H264995   0.242   0.753   2.556 -1.0524  1.0566  0.8569
14502TIP3   OH264996   4.373   4.514   4.270  0.2986 -0.1876 -0.4645
14502TIP3    H164997   4.310   4.453   4.309  0.6683 -0.2641  0.0114
14502TIP3    H264998   4.318   4.586   4.238 -0.3081 -1.3783 -2.3078
14503TIP3   OH264999   3.981   3.251   2.495 -0.0457 -0.3252  0.7359
14503TIP3    H165000   4.018   3.163   2.494 -0.4639 -0.5146 -0.7378
14503TIP3    H265001   4.037   3.302   2.436 -1.0265 -0.1709 -0.1057
14504TIP3   OH265002   2.284   2.121  16.282 -0.1714 -0.9162  0.2443
14504TIP3    H165003   2.277   2.054  16.350  0.1288  0.2862  1.5021
14504TIP3    H265004   2.252   2.078  16.203 -1.8910 -1.9279  1.4143
14505TIP3   OH265005   3.487   3.396   0.032  0.2347 -0.5412 -0.0694
14505TIP3    H165006   3.445   3.344   0.101  1.7044 -1.5935  0.0786
14505TIP3    H265007   3.528   3.331  -0.025  0.6011  0.4018 -0.9087
14506TIP3   OH265008   5.534   2.304  11.610 -0.0623 -0.0435 -0.0938
14506TIP3    H165009   5.605   2.335  11.554 -0.0162 -1.5234 -0.9351
14506TIP3    H265010   5.578   2.259  11.682 -0.1382  1.0933  0.6880
14507TIP3   OH265011   1.203   6.443  12.851  0.0046 -0.9002  0.5849
14507TIP3    H165012   1.178   6.496  12.775 -0.8435  0.0244  1.4705
14507TIP3    H265013   1.296   6.425  12.838  0.0625 -0.0791 -0.2646
14508TIP3   OH265014   0.833   2.210  15.056  0.1472  0.6325 -0.3198
14508TIP3    H165015   0.761   2.181  15.000 -0.8207  1.0062  0.6828
14508TIP3    H265016   0.858   2.131  15.105 -0.3494  0.7534  0.1367
14509TIP3   OH265017   4.213   3.306  16.945 -0.1605  0.2573  0.3369
14509TIP3    H165018   4.123   3.281  16.925  0.2471  0.1602 -1.5223
14509TIP3    H265019   4.226   3.389  16.900  1.1870 -0.5824 -0.9275
14510TIP3   OH265020   5.849   6.660  11.685 -0.1617  0.0531  0.0024
14510TIP3    H165021   5.848   6.593  11.754 -0.9929 -2.2948 -2.1529
14510TIP3    H265022   5.940   6.691  11.684  1.1946 -3.4488 -1.0021
14511TIP3   OH265023   0.419   0.012  16.396  0.0620  0.3916  0.4662
14511TIP3    H165024   0.350  -0.019  16.337  0.6040 -0.8059  0.4366
14511TIP3    H265025   0.373   0.070  16.458 -0.8228  0.2474 -0.0361
14512TIP3   OH265026   5.493   4.245  16.457 -0.7771  0.5159  0.8480
14512TIP3    H165027   5.540   4.185  16.514  0.0487  0.3634  0.0233
14512TIP3    H265028   5.561   4.300  16.418 -1.1214 -0.3580 -1.1356
14513TIP3   OH265029   0.317   6.001   5.085  0.4839 -0.2795  0.7732
14513TIP3    H165030   0.386   5.968   5.143 -0.1295 -0.4651  1.4036
14513TIP3    H265031   0.326   6.096   5.089  1.8042 -0.3038 -0.5056
14514TIP3   OH265032   3.469   5.698  14.702 -0.0291  0.3151 -0.4861
14514TIP3    H165033   3.505   5.610  14.690  0.5319 -0.0573  2.9658
14514TIP3    H265034   3.542   5.757  14.682 -0.4438  0.0874 -2.9450
14515TIP3   OH265035   4.103   5.264   5.606 -0.8378  0.4000  0.0467
14515TIP3    H165036   4.059   5.216   5.536  0.2846  0.1076 -0.4801
14515TIP3    H265037   4.137   5.195   5.664  0.6377  0.5339 -0.6233
14516TIP3   OH265038   4.658   6.789   2.709  0.0295  0.6541  0.1323
14516TIP3    H165039   4.735   6.843   2.693 -1.0644  2.0798 -0.4947
14516TIP3    H265040   4.651   6.734   2.631 -1.6460  3.1417 -1.6253
14517TIP3   OH265041   0.064   0.084  13.368 -0.0857  0.1388  0.0256
14517TIP3    H165042   0.123   0.018  13.331 -1.6713 -2.4372  1.7723
14517TIP3    H265043   0.110   0.118  13.445  1.2737  2.1446 -1.5719
14518TIP3   OH265044   4.744   3.944  14.130 -0.0248 -0.3149 -0.3102
14518TIP3    H165045   4.803   3.949  14.205  0.6137  0.9341 -0.8710
14518TIP3    H265046   4.670   3.999  14.154  0.5636  0.7674 -0.9051
14519TIP3   OH265047   2.014   1.567  12.792  0.8498  0.0192  0.3985
14519TIP3    H165048   2.059   1.596  12.713  3.1030 -1.7095  0.9638
14519TIP3    H265049   1.939   1.517  12.760  0.0117  1.7846 -0.5659
14520TIP3   OH265050   4.210   3.482   2.742 -0.6984  0.1774 -0.5163
14520TIP3    H165051   4.250   3.496   2.827  0.0942  1.4206 -1.0568
14520TIP3    H265052   4.249   3.401   2.709 -0.4718  0.0792 -0.0061
14521TIP3   OH265053   3.246   2.711   2.609 -0.2233 -0.4451  0.6283
14521TIP3    H165054   3.202   2.692   2.526 -0.3894  0.9360  0.3692
14521TIP3    H265055   3.176   2.710   2.674 -0.4437  0.4629  0.4198
14522TIP3   OH265056   6.066   1.829  15.603  0.5602 -0.0080 -0.1074
14522TIP3    H165057   6.058   1.820  15.698  0.8432  0.2152 -0.0644
14522TIP3    H265058   6.160   1.831  15.586  0.5528 -1.7743 -0.5554
14523TIP3   OH265059   1.603   5.040   6.134 -0.5258 -0.0957 -0.2700
14523TIP3    H165060   1.649   5.050   6.051  2.0066 -1.4577  0.8645
14523TIP3    H265061   1.558   4.956   6.127  0.4359 -0.6412  0.0624
14524TIP3   OH265062   1.793   2.653  15.334  0.1907 -0.4937 -0.1573
14524TIP3    H165063   1.841   2.655  15.251  1.1630  0.4274  0.4014
14524TIP3    H265064   1.860   2.667  15.400 -0.8548  0.9214  0.6510
14525TIP3   OH265065   3.505   1.890   5.852  0.8158  0.2967 -0.2002
14525TIP3    H165066   3.490   1.880   5.946  2.2492  1.1571  0.1535
14525TIP3    H265067   3.599   1.906   5.844  0.5113  1.6530 -1.6508
14526TIP3   OH265068   3.141   4.506   3.434 -1.1015  0.0476 -0.1812
14526TIP3    H165069   3.098   4.495   3.350  0.4813  1.2061 -1.1895
14526TIP3    H265070   3.224   4.548   3.414 -0.2419 -0.5354  1.8678
14527TIP3   OH265071   4.101   5.108   1.511  0.2234  0.1673  0.0737
14527TIP3    H165072   4.089   5.014   1.522 -1.3373  0.2038 -1.0479
14527TIP3    H265073   4.102   5.122   1.416 -2.0779  1.5144  0.1501
14528TIP3   OH265074   2.139   5.241  12.389  0.5300  0.0101 -0.0244
14528TIP3    H165075   2.217   5.234  12.443  0.9263 -0.0003 -0.5919
14528TIP3    H265076   2.068   5.211  12.446  0.6481  1.7124  1.0881
14529TIP3   OH265077   3.016   0.738  12.714 -0.3659  0.7207 -0.4650
14529TIP3    H165078   2.924   0.750  12.736  0.0922  3.8564  0.0974
14529TIP3    H265079   3.017   0.733  12.618 -1.1450  0.2649 -0.4550
14530TIP3   OH265080   2.023   4.367   4.507 -0.1047 -0.0079 -0.1736
14530TIP3    H165081   2.080   4.391   4.580 -0.6439 -2.7242  1.2892
14530TIP3    H265082   2.048   4.426   4.436  1.9000  1.3530  1.5446
14531TIP3   OH265083   6.772   5.800  11.002  0.8251  0.0149  0.2339
14531TIP3    H165084   6.798   5.775  10.914  1.8438  1.2672  0.1574
14531TIP3    H265085   6.741   5.890  10.994  1.6482  0.4128  1.2779
14532TIP3   OH265086   6.581   2.923  12.670  0.6427 -0.0720 -0.3611
14532TIP3    H165087   6.602   2.833  12.646 -1.0754 -0.7483  0.5119
14532TIP3    H265088   6.487   2.930  12.657  0.5200  1.1591  0.9179
14533TIP3   OH265089   1.224   3.094   0.945 -0.1474  0.2182  0.5665
14533TIP3    H165090   1.155   3.038   0.980  0.6533 -1.9955 -1.1709
14533TIP3    H265091   1.243   3.058   0.859  1.7151  2.0800  0.1128
14534TIP3   OH265092   6.805   2.855   0.967 -0.0462  0.3728 -0.5356
14534TIP3    H165093   6.713   2.876   0.977 -0.1357  0.0448 -0.6498
14534TIP3    H265094   6.808   2.789   0.897 -0.0059 -1.4465  1.0767
14535TIP3   OH265095   4.478   0.435   6.127  0.7055  0.3374  0.0483
14535TIP3    H165096   4.512   0.423   6.215 -1.5415 -0.7098  0.8396
14535TIP3    H265097   4.388   0.467   6.139  0.6605  1.0872 -1.8722
14536TIP3   OH265098   3.170   0.545   2.973 -0.1051 -0.3026  0.7036
14536TIP3    H165099   3.114   0.474   3.002 -0.4926 -0.1978  0.2184
14536TIP3    H265100   3.245   0.502   2.932 -0.1094 -0.4348  0.8361
14537TIP3   OH265101   0.458   6.382  15.962  0.7938  0.6554  0.7531
14537TIP3    H165102   0.539   6.377  15.911 -0.2257  1.9559 -1.1154
14537TIP3    H265103   0.485   6.360  16.051  3.3736  1.7583  0.3524
14538TIP3   OH265104   1.224   4.773  15.826 -0.3128 -0.7081 -0.0114
14538TIP3    H165105   1.187   4.861  15.816 -0.4414 -0.8225 -0.5637
14538TIP3    H265106   1.222   4.757  15.920 -0.4179 -0.1751  0.0828
14539TIP3   OH265107   2.642   5.335   4.987 -0.3215  0.1319 -0.8334
14539TIP3    H165108   2.598   5.350   5.070 -2.3008 -3.2150 -1.0906
14539TIP3    H265109   2.724   5.291   5.011  0.3234  1.4270 -0.5949
14540TIP3   OH265110   4.421   3.341   2.020  0.0669  0.5048 -0.1842
14540TIP3    H165111   4.464   3.411   2.070 -1.6412  0.9457  0.7198
14540TIP3    H265112   4.494   3.287   1.989  1.4607  2.6631 -0.9539
14541TIP3   OH265113   1.325   1.905  15.919 -0.3561 -0.0087 -0.1152
14541TIP3    H165114   1.267   1.980  15.903 -0.8466 -0.5201 -0.8331
14541TIP3    H265115   1.281   1.832  15.875 -0.5069 -0.9962  1.5898
14542TIP3   OH265116   0.052   2.826  14.166 -0.4999  0.2401 -0.0877
14542TIP3    H165117   0.031   2.778  14.086  0.9884 -1.7943  0.6577
14542TIP3    H265118   0.025   2.767  14.237  0.4092  0.9422  0.8783
14543TIP3   OH265119   4.662   0.776   0.975 -0.1985 -0.2046 -0.2662
14543TIP3    H165120   4.621   0.846   1.025 -0.4105  0.1067 -0.8713
14543TIP3    H265121   4.736   0.748   1.029 -1.6690 -1.3643  1.2747
14544TIP3   OH265122   2.691   6.133   4.573 -0.3088  0.5136 -0.2741
14544TIP3    H165123   2.640   6.166   4.646  0.3200  1.7028 -0.3464
14544TIP3    H265124   2.708   6.041   4.594 -0.1009  0.8503  1.0863
14545TIP3   OH265125   0.873   2.241  15.356 -0.1115 -0.1304 -0.2443
14545TIP3    H165126   0.949   2.183  15.355 -0.6151 -0.7986 -0.1205
14545TIP3    H265127   0.841   2.240  15.266 -0.7905 -0.9438 -0.0006
14546TIP3   OH265128   4.701   3.942   5.787  0.4598 -0.2956 -0.0357
14546TIP3    H165129   4.766   3.947   5.717  1.2337 -2.0328  0.5153
14546TIP3    H265130   4.707   4.027   5.832  0.8733  0.3371 -1.2417
14547TIP3   OH265131   2.987   1.717  14.906 -0.2058 -0.2857  0.2367
14547TIP3    H165132   2.959   1.625  14.902 -1.6733  0.1749 -1.3183
14547TIP3    H265133   2.988   1.738  14.999  1.6450 -2.2792  0.7426
14548TIP3   OH265134   1.540   1.642  16.701  0.0720 -0.3388 -0.0993
14548TIP3    H165135   1.466   1.589  16.729 -0.1723 -0.4797 -0.9942
14548TIP3    H265136   1.572   1.600  16.621  1.2301 -0.3825  0.3660
14549TIP3   OH265137   0.966   5.174   6.192  0.0073  0.4677  0.2216
14549TIP3    H165138   1.003   5.260   6.172 -1.3582  1.4121  1.5159
14549TIP3    H265139   0.872   5.189   6.197 -0.4883 -1.5897 -1.6727
14550TIP3   OH265140   5.869   0.225   5.468 -0.5393 -0.2634 -0.3789
14550TIP3    H165141   5.919   0.242   5.547 -1.2487 -0.6874  0.1748
14550TIP3    H265142   5.923   0.260   5.397  0.8204 -1.2367  0.1207
14551TIP3   OH265143   1.172   1.197  17.007  0.3524 -0.0085 -0.0275
14551TIP3    H165144   1.198   1.129  16.945  1.2652 -1.5174  1.9190
14551TIP3    H265145   1.096   1.238  16.966 -1.5223 -3.4940 -0.4905
14552TIP3   OH265146   3.263   1.202  11.349 -0.0798 -0.2668  0.2764
14552TIP3    H165147   3.257   1.297  11.338 -0.5802 -0.3150  0.0852
14552TIP3    H265148   3.222   1.167  11.270 -0.6095 -0.6382  0.7100
14553TIP3   OH265149   1.948   4.263   3.756  0.1322  0.2190  0.4371
14553TIP3    H165150   1.911   4.285   3.670 -0.1456 -1.0897  0.1984
14553TIP3    H265151   2.042   4.270   3.744  0.3856 -3.4785 -1.1241
14554TIP3   OH265152   0.133   3.331  14.293  0.6073  0.9033 -0.8526
14554TIP3    H165153   0.074   3.393  14.335 -1.1983 -0.7256 -0.8942
14554TIP3    H265154   0.077   3.278  14.237  1.8233 -1.7666  0.3147
14555TIP3   OH265155   0.160   5.393  16.930 -0.1704  0.1241 -0.5680
14555TIP3    H165156   0.107   5.447  16.872 -0.1151  0.0485 -0.6913
14555TIP3    H265157   0.205   5.455  16.987 -0.4605  0.1819 -0.4036
14556TIP3   OH265158   2.039   0.197   6.263 -0.3599  0.0595 -0.0726
14556TIP3    H165159   2.031   0.206   6.358  1.3703  0.2539  0.0932
14556TIP3    H265160   2.073   0.108   6.250  2.4539  1.0721 -0.2367
14557TIP3   OH265161   5.007   0.123   0.868 -0.4282 -0.1879  0.1680
14557TIP3    H165162   5.063   0.179   0.814 -0.7614  0.4612  0.4809
14557TIP3    H265163   5.066   0.058   0.904  0.4500  1.3786  1.7265
14558TIP3   OH265164   0.071   6.240   4.267 -0.8030  0.0745 -0.5595
14558TIP3    H165165   0.052   6.210   4.356  1.7271 -1.5767 -0.4817
14558TIP3    H265166   0.097   6.331   4.277 -2.3295  0.4809  0.0872
14559TIP3   OH265167   0.361   3.326   3.486  0.1366  0.0437  0.0010
14559TIP3    H165168   0.285   3.284   3.526  0.7585 -1.2276 -0.0786
14559TIP3    H265169   0.398   3.381   3.556  0.1277 -0.6869  0.5967
14560TIP3   OH265170   6.623   6.371  13.255 -0.4266 -0.1675 -0.0501
14560TIP3    H165171   6.561   6.330  13.194 -0.0162 -0.3577 -0.3445
14560TIP3    H265172   6.641   6.303  13.320 -1.7119  0.3893  0.9307
14561TIP3   OH265173   2.784   0.568   5.392 -0.0721 -0.3301  0.0856
14561TIP3    H165174   2.733   0.499   5.350  0.2388 -1.0755  0.8948
14561TIP3    H265175   2.874   0.551   5.363  0.2066 -1.0865  1.3064
14562TIP3   OH265176   2.285   0.215   3.448 -0.0829  0.1275 -0.0195
14562TIP3    H165177   2.269   0.197   3.355 -1.3190  1.0781 -0.0223
14562TIP3    H265178   2.380   0.208   3.458  0.3572  2.1693 -1.8830
14563TIP3   OH265179   5.412   1.433   3.277  0.0669 -0.0851  0.2508
14563TIP3    H165180   5.394   1.474   3.361 -1.4031  0.5565 -0.3584
14563TIP3    H265181   5.406   1.339   3.295  1.0059  0.0007  1.1100
14564TIP3   OH265182   2.512   5.444  12.074  0.0091 -0.4330  0.6829
14564TIP3    H165183   2.586   5.464  12.016  0.5656 -1.1289  1.1388
14564TIP3    H265184   2.440   5.424  12.015 -0.1563  1.3300  0.2075
14565TIP3   OH265185   1.974   3.974   5.127 -0.6701 -0.0767  0.3241
14565TIP3    H165186   2.065   3.962   5.154 -0.9538 -0.0566  1.3590
14565TIP3    H265187   1.934   3.888   5.141 -1.1259  0.2718  1.2073
14566TIP3   OH265188   0.335   5.603   4.459  0.3595  0.1880 -0.1374
14566TIP3    H165189   0.330   5.560   4.373 -1.5979 -1.4521  0.6992
14566TIP3    H265190   0.428   5.624   4.470  1.2047 -2.4514 -1.3326
14567TIP3   OH265191   4.496   3.383   5.334  0.0040 -0.0590 -0.2343
14567TIP3    H165192   4.566   3.351   5.277 -1.6926 -1.6281 -1.5573
14567TIP3    H265193   4.469   3.307   5.385 -3.0372 -0.5408 -2.2805
14568TIP3   OH265194   0.043   0.312  12.087 -0.2436  0.5677 -0.4707
14568TIP3    H165195   0.081   0.398  12.103 -0.2100  0.5794 -0.6161
14568TIP3    H265196  -0.016   0.324  12.013 -0.8344  0.6368 -0.0002
14569TIP3   OH265197   1.804   2.331   2.736 -0.7056  0.2487  0.7002
14569TIP3    H165198   1.733   2.379   2.694  0.4771  0.1939 -1.5277
14569TIP3    H265199   1.822   2.380   2.816 -1.5009  1.7877 -0.0139
14570TIP3   OH265200   1.154   4.211   3.324  0.1328  0.2559 -0.1772
14570TIP3    H165201   1.239   4.240   3.291 -0.1142  1.3473  0.0991
14570TIP3    H265202   1.093   4.279   3.295 -0.4774  0.0073  0.4954
14571TIP3   OH265203   5.250   0.908  15.420 -0.5098  0.0489  0.7621
14571TIP3    H165204   5.197   0.877  15.347 -1.0413  0.5314  0.9365
14571TIP3    H265205   5.301   0.832  15.447  0.2308  0.0431 -0.5647
14572TIP3   OH265206   0.361   6.450  11.231 -0.5075 -0.1591 -0.5620
14572TIP3    H165207   0.311   6.479  11.154  0.3036  1.4275 -0.5391
14572TIP3    H265208   0.330   6.507  11.302 -0.3186 -0.7334 -0.0070
14573TIP3   OH265209   3.648   6.546   5.568 -0.1554 -0.2124 -0.4434
14573TIP3    H165210   3.640   6.641   5.577 -1.8095 -0.3484 -0.2477
14573TIP3    H265211   3.563   6.512   5.596  0.1729 -1.7061 -1.1809
14574TIP3   OH265212   4.262   2.607   0.069 -0.2920 -0.4120  0.1570
14574TIP3    H165213   4.304   2.680   0.114 -0.5108 -0.3280  0.2257
14574TIP3    H265214   4.256   2.635  -0.022 -2.8198  0.8099  0.6215
14575TIP3   OH265215   5.007   0.970   2.393  0.4918  0.1898  0.0313
14575TIP3    H165216   5.005   0.953   2.299 -1.1120 -0.5955  0.1718
14575TIP3    H265217   5.082   0.921   2.425  0.1287 -0.8146 -0.6305
14576TIP3   OH265218   1.870   2.065  15.303 -0.2652 -0.1428 -0.1925
14576TIP3    H165219   1.909   2.030  15.383 -0.6421 -1.1600 -0.4402
14576TIP3    H265220   1.929   2.037  15.234 -0.1065  0.4691 -0.3105
14577TIP3   OH265221   0.586   5.484   5.389  0.1576  0.3946 -0.0717
14577TIP3    H165222   0.587   5.537   5.309  0.1136  1.6477  0.7307
14577TIP3    H265223   0.671   5.501   5.430  0.5229 -0.8907 -0.2439
14578TIP3   OH265224   4.783   5.723   1.257  0.5463 -0.2906 -0.0387
14578TIP3    H165225   4.874   5.712   1.229  0.5571  0.8616 -0.4830
14578TIP3    H265226   4.789   5.752   1.347  0.5857 -0.9525  0.1815
14579TIP3   OH265227   1.802   5.471  14.156 -0.0290 -0.0341  0.2278
14579TIP3    H165228   1.827   5.381  14.177  0.2124  0.2014  0.9841
14579TIP3    H265229   1.817   5.479  14.062 -0.7127 -0.9930  0.0245
14580TIP3   OH265230   1.297   4.631   4.377 -1.0195 -0.1069 -0.5453
14580TIP3    H165231   1.319   4.538   4.373  1.4235  0.4399 -2.2535
14580TIP3    H265232   1.304   4.662   4.287 -0.1981  2.0189  0.1755
14581TIP3   OH265233   5.943   0.181  15.325  0.7474  0.4875  0.5644
14581TIP3    H165234   5.877   0.117  15.352 -0.5008  1.9001  0.9934
14581TIP3    H265235   5.938   0.182  15.229 -1.8842  2.5218  0.6192
14582TIP3   OH265236   2.351   0.958  16.689  0.2978  0.4245  0.2369
14582TIP3    H165237   2.316   1.047  16.682  1.2988  0.9208  1.2490
14582TIP3    H265238   2.443   0.970  16.709  0.9457 -0.8537 -1.7202
14583TIP3   OH265239   2.615   5.469  15.998 -0.4989 -0.3751  0.5757
14583TIP3    H165240   2.525   5.453  15.972 -0.1672  0.2479 -1.1144
14583TIP3    H265241   2.636   5.399  16.059 -1.2077 -2.2909 -1.2725
14584TIP3   OH265242   1.970   1.656   4.956 -0.2122  0.3723  0.0144
14584TIP3    H165243   1.942   1.610   5.034  1.4980  1.1671  1.1520
14584TIP3    H265244   2.055   1.695   4.979  0.3846  0.5799 -2.2419
14585TIP3   OH265245   0.980   2.558  13.453 -0.1245  0.6662  0.4600
14585TIP3    H165246   0.919   2.496  13.494  0.4952  0.2923  0.8332
14585TIP3    H265247   1.010   2.613  13.526 -0.6179  1.3680  0.1424
14586TIP3   OH265248   2.432   4.904   0.962  0.4198 -0.4277 -0.1817
14586TIP3    H165249   2.492   4.943   1.027  1.1202 -2.4559  0.4742
14586TIP3    H265250   2.486   4.842   0.914 -0.9478 -1.6667 -0.1869
14587TIP3   OH265251   5.506   2.101  12.703  0.1753  0.2046 -0.3312
14587TIP3    H165252   5.441   2.166  12.679  0.6977  0.6232 -0.6343
14587TIP3    H265253   5.486   2.025  12.647 -0.1535  0.2637 -0.2964
14588TIP3   OH265254   0.121   2.299  15.797  0.3168  0.0252  0.2605
14588TIP3    H165255   0.181   2.351  15.851  0.1274 -0.1384  0.6281
14588TIP3    H265256   0.073   2.245  15.859  0.2041 -0.2753 -0.0840
14589TIP3   OH265257   5.883   6.472  12.393  0.2231 -0.3073 -0.2273
14589TIP3    H165258   5.959   6.422  12.422  0.4255 -0.7796 -1.5308
14589TIP3    H265259   5.808   6.428  12.433  0.6422  0.5185  1.5641
14590TIP3   OH265260   1.649   6.027  16.221  0.2181  0.1854 -0.1180
14590TIP3    H165261   1.655   6.089  16.149  0.5083 -1.5484 -1.6647
14590TIP3    H265262   1.616   5.946  16.181 -0.1480 -0.6766  1.8006
14591TIP3   OH265263   5.080   6.132   1.744 -0.0380 -0.7646  0.0129
14591TIP3    H165264   5.060   6.102   1.655 -0.6558 -1.3059  0.3209
14591TIP3    H265265   5.038   6.217   1.751  0.3498 -0.5418 -0.3418
14592TIP3   OH265266   0.187   6.625   1.522  0.3962 -0.2213 -0.1665
14592TIP3    H165267   0.282   6.638   1.522  0.2490  1.4103 -2.7184
14592TIP3    H265268   0.153   6.698   1.574  0.4668 -0.0670 -0.3370
14593TIP3   OH265269   4.480   1.060   6.240 -0.2997 -0.9191  0.0961
14593TIP3    H165270   4.455   1.129   6.301 -0.2677 -0.9836  0.1827
14593TIP3    H265271   4.517   0.992   6.296 -0.1018 -0.9008 -0.0135
14594TIP3   OH265272   2.986   6.474   5.465 -0.0164  0.2949 -0.6100
14594TIP3    H165273   2.905   6.432   5.494  0.1721  0.1451 -0.2893
14594TIP3    H265274   3.001   6.439   5.377 -0.5939  0.7508 -0.9003
14595TIP3   OH265275   1.973   0.269  14.549  0.1996 -0.4682 -0.4254
14595TIP3    H165276   2.035   0.218  14.601  1.6667  0.0399 -1.6028
14595TIP3    H265277   2.001   0.360  14.562 -0.3872 -0.2208 -0.8694
14596TIP3   OH265278   6.637   1.720  13.533 -0.5573  0.4291  0.1029
14596TIP3    H165279   6.711   1.762  13.490 -0.1247  0.0735  0.4874
14596TIP3    H265280   6.666   1.705  13.623 -0.6923 -0.6847 -0.0235
14597TIP3   OH265281   4.835   5.312  10.525 -0.2582 -0.1888 -0.3730
14597TIP3    H165282   4.746   5.278  10.529 -0.5357  0.3408 -1.6664
14597TIP3    H265283   4.832   5.383  10.461  1.0656 -0.0982 -0.3786
14598TIP3   OH265284   1.450   0.521   1.172  0.4305 -0.5829 -0.7183
14598TIP3    H165285   1.531   0.558   1.137 -0.2515  0.2568 -1.4273
14598TIP3    H265286   1.470   0.504   1.265  1.4566 -0.5347 -0.9178
14599TIP3   OH265287   4.005   4.775  12.075  0.0625  0.2013  0.3887
14599TIP3    H165288   3.937   4.773  12.142  0.2793  0.9796  0.6486
14599TIP3    H265289   4.086   4.756  12.123 -0.0648 -1.6749 -0.0777
14600TIP3   OH265290   2.739   1.374  11.333  0.3545  0.4699  0.3709
14600TIP3    H165291   2.731   1.461  11.292 -3.4522  0.1938  0.1780
14600TIP3    H265292   2.760   1.393  11.424 -0.0600  1.6025  0.2553
14601TIP3   OH265293   4.806   6.213   3.520 -0.3918 -0.2988  0.3128
14601TIP3    H165294   4.851   6.137   3.555 -0.5196 -1.4679 -1.8910
14601TIP3    H265295   4.743   6.237   3.588  1.8565 -0.0820  2.4279
14602TIP3   OH265296   5.301   3.624  14.317 -0.1543  0.5167  0.3405
14602TIP3    H165297   5.210   3.625  14.348 -0.3228  1.4952 -0.1652
14602TIP3    H265298   5.352   3.651  14.393 -0.4647  1.8020  0.1081
14603TIP3   OH265299   2.383   2.853  13.187 -0.0779 -0.2416 -0.0508
14603TIP3    H165300   2.360   2.813  13.103 -0.2787 -0.2793  0.0221
14603TIP3    H265301   2.301   2.856  13.235 -0.1234  0.4952 -0.1544
14604TIP3   OH265302   5.747   5.189   0.379  0.0369 -0.0672 -0.0908
14604TIP3    H165303   5.676   5.254   0.381  0.6520  0.7811 -2.5432
14604TIP3    H265304   5.713   5.118   0.325  1.0694  0.4322 -1.4450
14605TIP3   OH265305   6.145   4.055  11.111 -0.3417 -0.1682  0.1981
14605TIP3    H165306   6.137   4.140  11.068 -2.2257 -0.5351 -0.2795
14605TIP3    H265307   6.140   4.074  11.204  0.3877  0.3406  0.1369
14606TIP3   OH265308   3.797   0.538  16.870  0.3465 -0.1432 -0.1927
14606TIP3    H165309   3.830   0.555  16.782  0.5208 -0.1006 -0.1210
14606TIP3    H265310   3.718   0.486  16.857  0.6163 -0.5158 -0.3563
14607TIP3   OH265311   2.505   0.495   4.451 -0.4677 -0.3110  0.0820
14607TIP3    H165312   2.466   0.568   4.402  0.4644  1.0047  1.2356
14607TIP3    H265313   2.494   0.518   4.543  0.3283 -1.3780  0.4707
14608TIP3   OH265314   6.738   6.792   0.109  0.2986 -0.0161 -0.1561
14608TIP3    H165315   6.689   6.710   0.100  0.6775 -0.2162 -0.4487
14608TIP3    H265316   6.672   6.861   0.106  0.0286 -0.2852 -0.4564
14609TIP3   OH265317   6.356   6.595   3.506 -0.1407 -0.4444 -0.5532
14609TIP3    H165318   6.275   6.624   3.548  0.8047  0.8599  0.4984
14609TIP3    H265319   6.371   6.659   3.437  2.3719  2.3990  2.2781
14610TIP3   OH265320   4.506   6.504  12.494 -0.1071  0.3544 -0.3012
14610TIP3    H165321   4.453   6.529  12.570 -0.4239 -0.3434 -0.2831
14610TIP3    H265322   4.470   6.419  12.467 -0.8999  1.1956 -2.0537
14611TIP3   OH265323   6.445   1.790  16.309 -0.6530 -0.5806  0.0308
14611TIP3    H165324   6.404   1.752  16.386 -0.9725 -0.7673 -0.2274
14611TIP3    H265325   6.515   1.845  16.343 -0.4959 -1.0216  0.4321
14612TIP3   OH265326   4.520   4.480  16.975  0.4327  0.5039  0.2820
14612TIP3    H165327   4.515   4.495  17.070 -2.1236  0.2327  0.2830
14612TIP3    H265328   4.530   4.568  16.938 -3.6522  1.3722  0.7168
14613TIP3   OH265329   2.817   1.345   3.868 -0.0996  0.1380  0.3618
14613TIP3    H165330   2.766   1.425   3.877  0.1523  0.6403 -2.1397
14613TIP3    H265331   2.808   1.320   3.776  2.5733 -0.7949  0.2461
14614TIP3   OH265332   1.455   2.001  13.786  0.0261 -0.3086  0.0806
14614TIP3    H165333   1.517   1.946  13.834  0.4900 -0.4001 -0.6082
14614TIP3    H265334   1.424   1.946  13.715 -0.1289  0.0517 -0.1361
14615TIP3   OH265335   3.432   5.346  14.036  0.5073 -0.1171 -0.4508
14615TIP3    H165336   3.373   5.369  14.107  0.4410 -0.9322 -0.2309
14615TIP3    H265337   3.375   5.336  13.959  0.3883 -0.6123 -0.3031
14616TIP3   OH265338   0.669   0.808   1.223 -0.4183 -0.3852  0.1049
14616TIP3    H165339   0.761   0.828   1.204 -0.3899  0.3368  0.9452
14616TIP3    H265340   0.629   0.893   1.240 -1.3797 -0.6408 -0.7795
14617TIP3   OH265341   5.055   2.385  16.219 -0.2131  0.1872 -0.3583
14617TIP3    H165342   4.990   2.340  16.273 -0.4416  0.1085 -0.6993
14617TIP3    H265343   5.126   2.404  16.280 -0.3833 -0.0787 -0.0681
14618TIP3   OH265344   0.077   1.877   4.860  0.1222  0.4486 -0.0288
14618TIP3    H165345   0.083   1.965   4.824  1.5331  1.0474  1.5537
14618TIP3    H265346   0.016   1.884   4.933  1.0917  0.4193  0.8197
14619TIP3   OH265347   5.798   6.235  11.977 -0.3382 -0.0853 -0.7620
14619TIP3    H165348   5.855   6.170  12.019  0.1694 -0.5820 -2.1707
14619TIP3    H265349   5.726   6.183  11.942 -1.9238  0.5704  1.2998
14620TIP3   OH265350   6.195   3.924  12.761  0.2114 -0.1013 -0.4893
14620TIP3    H165351   6.135   3.992  12.731  0.4578  0.9941  1.3918
14620TIP3    H265352   6.222   3.879  12.681 -1.4325  0.7687 -1.5845
14621TIP3   OH265353   3.425   6.657   4.093 -0.1576  0.2716 -0.0914
14621TIP3    H165354   3.370   6.716   4.041 -0.5227  0.4065  0.4437
14621TIP3    H265355   3.370   6.630   4.166  0.4860  0.4207  0.4652
14622TIP3   OH265356   3.318   2.713   2.291  0.1763  0.5486 -0.7470
14622TIP3    H165357   3.239   2.665   2.265 -0.5771  2.0045 -1.2551
14622TIP3    H265358   3.288   2.803   2.305  1.5711  0.9275  0.0394
14623TIP3   OH265359   1.173   6.626  14.831  0.0275 -0.4463 -0.2787
14623TIP3    H165360   1.119   6.698  14.796  0.8959 -0.3906 -1.5924
14623TIP3    H265361   1.110   6.566  14.870 -0.7167  1.0545  0.9252
14624TIP3   OH265362   5.625   2.066  15.761 -0.2949 -0.0627 -0.4870
14624TIP3    H165363   5.677   2.077  15.682 -1.0116 -0.2087 -0.9885
14624TIP3    H265364   5.566   1.994  15.741 -2.0735  1.3733 -0.6815
14625TIP3   OH265365   4.521   2.175  16.008  0.1914  0.7360 -0.3263
14625TIP3    H165366   4.454   2.107  16.019  1.4498 -0.5112 -0.0623
14625TIP3    H265367   4.544   2.171  15.915  0.3031  0.7584 -0.2994
14626TIP3   OH265368   5.482   3.633   2.980 -0.0630  0.0954 -0.4577
14626TIP3    H165369   5.577   3.624   2.978  0.0874  1.0520  0.7504
14626TIP3    H265370   5.466   3.698   3.049 -1.6684 -1.3205  0.5991
14627TIP3   OH265371   2.671   3.051   5.857  0.1232 -0.4078 -0.0888
14627TIP3    H165372   2.627   3.135   5.871  0.1564 -0.2086 -1.0950
14627TIP3    H265373   2.606   2.998   5.810 -0.2033 -1.2531  1.2626
14628TIP3   OH265374   5.761   2.317   1.605 -0.0435 -0.5125  0.1858
14628TIP3    H165375   5.782   2.286   1.518 -0.1254 -4.2716  1.3543
14628TIP3    H265376   5.845   2.347   1.641 -0.3042  2.9634 -1.6730
14629TIP3   OH265377   5.481   2.823  16.578 -0.1619 -0.6688 -0.3610
14629TIP3    H165378   5.425   2.781  16.512 -1.1453 -0.7337  0.4945
14629TIP3    H265379   5.457   2.780  16.660 -0.8615  1.2341  0.4695
14630TIP3   OH265380   6.816   6.506  10.449  0.7110 -0.4833 -0.1757
14630TIP3    H165381   6.730   6.536  10.421  0.9863 -1.1881 -1.8820
14630TIP3    H265382   6.799   6.460  10.531 -0.1874  1.2706  0.6896
14631TIP3   OH265383   5.261   2.327  15.693 -0.4236  0.2882 -0.1489
14631TIP3    H165384   5.239   2.420  15.682 -0.8456  0.1393 -0.5757
14631TIP3    H265385   5.202   2.296  15.761 -0.7579  0.1664 -0.4918
14632TIP3   OH265386   5.649   4.943  14.575  0.3869 -0.2205  0.3239
14632TIP3    H165387   5.726   4.898  14.542  0.7135  0.6098 -0.0886
14632TIP3    H265388   5.599   4.876  14.620  2.0388 -0.5219  1.8237
14633TIP3   OH265389   0.635   4.789   2.612  0.0538 -0.2405  0.5796
14633TIP3    H165390   0.633   4.759   2.703 -1.2519 -0.8101  0.3778
14633TIP3    H265391   0.577   4.865   2.611 -0.7745 -0.8627  0.0249
14634TIP3   OH265392   3.483   2.895   5.532  0.0273 -0.4682 -0.4364
14634TIP3    H165393   3.495   2.957   5.604  1.9928 -0.8962 -0.3364
14634TIP3    H265394   3.439   2.947   5.464  1.8958  1.1854 -0.4789
14635TIP3   OH265395   5.815   6.564  13.435 -0.2600 -0.1975 -0.4736
14635TIP3    H165396   5.793   6.586  13.525 -1.5458  1.0250 -1.0418
14635TIP3    H265397   5.796   6.470  13.427 -2.1731  0.0988 -0.0036
14636TIP3   OH265398   5.883   4.205   2.126  0.2685 -0.3501  0.0883
14636TIP3    H165399   5.873   4.182   2.218 -0.7229 -2.0321 -0.3806
14636TIP3    H265400   5.829   4.140   2.080  0.7334  0.4565 -1.6671
14637TIP3   OH265401   2.861   2.241  11.988  0.7333 -0.5310  0.0922
14637TIP3    H165402   2.882   2.153  11.956 -0.6823 -1.2843  1.1432
14637TIP3    H265403   2.936   2.294  11.961  0.3632 -1.4248 -3.0597
14638TIP3   OH265404   2.514   6.432  15.659 -0.5726  0.4104  0.6739
14638TIP3    H165405   2.423   6.405  15.674 -0.9129  0.2453 -1.3785
14638TIP3    H265406   2.509   6.493  15.585  0.9898  0.4803  0.5915
14639TIP3   OH265407   3.676   1.239   2.984 -0.6831 -0.3786  0.4504
14639TIP3    H165408   3.756   1.291   2.997 -0.5154 -0.5298  0.0277
14639TIP3    H265409   3.625   1.254   3.064 -0.4193  0.0494  0.5421
14640TIP3   OH265410   1.163   6.286   2.762  0.0029  0.5370  0.0340
14640TIP3    H165411   1.203   6.268   2.677  0.0735  1.2406 -0.0827
14640TIP3    H265412   1.140   6.379   2.759 -1.6311  0.1719  0.1103
14641TIP3   OH265413   2.664   6.720  14.851  0.0247  0.0858  0.3890
14641TIP3    H165414   2.644   6.814  14.850 -0.0746  0.0661 -0.7442
14641TIP3    H265415   2.726   6.708  14.780  1.1153 -0.5021  1.4052
14642TIP3   OH265416   0.235   2.673   3.268  0.5495  0.6839 -0.3684
14642TIP3    H165417   0.223   2.629   3.184 -0.4195  0.2329 -0.0078
14642TIP3    H265418   0.299   2.620   3.314 -1.0722 -0.7749  0.3138
14643TIP3   OH265419   1.380   4.898  16.272 -0.2580  0.2524  0.1676
14643TIP3    H165420   1.407   4.850  16.351  2.5335  1.1918 -0.1033
14643TIP3    H265421   1.402   4.989  16.291  1.2473  0.3972 -1.9464
14644TIP3   OH265422   0.873   1.912  11.939  0.1850 -0.0354  0.5165
14644TIP3    H165423   0.859   2.000  11.905 -1.5503  0.1725  1.5783
14644TIP3    H265424   0.939   1.923  12.008 -0.8668  0.6982  1.4558
14645TIP3   OH265425   4.971   1.258   6.228  0.0931  0.2283  0.2451
14645TIP3    H165426   4.966   1.278   6.321 -0.8880  1.0228  0.0484
14645TIP3    H265427   4.910   1.184   6.216 -1.5885  1.5940 -0.0943
14646TIP3   OH265428   1.025   3.981  13.693  0.5562 -0.3315  1.0242
14646TIP3    H165429   1.070   3.967  13.776  0.2135 -1.7380  1.0075
14646TIP3    H265430   0.935   3.953  13.709  0.2589  0.2412  0.4231
14647TIP3   OH265431   4.017   2.789  12.983 -0.2392  0.0142 -0.2726
14647TIP3    H165432   4.105   2.753  12.973  0.0020  0.2712  0.7915
14647TIP3    H265433   4.022   2.876  12.944  0.0707  0.1535  0.0698
14648TIP3   OH265434   4.592   4.111   5.550 -0.4669 -0.0044 -0.2956
14648TIP3    H165435   4.543   4.032   5.571  1.4937 -0.5407  2.9173
14648TIP3    H265436   4.532   4.183   5.571 -0.7955 -0.6489  1.0748
14649TIP3   OH265437   4.820   0.735   1.192 -0.0060  0.4281  0.4870
14649TIP3    H165438   4.827   0.794   1.267  0.3685  0.5404  0.3634
14649TIP3    H265439   4.910   0.716   1.167 -0.1239  0.8477 -0.2950
14650TIP3   OH265440   5.740   0.329   5.057 -0.3614 -0.4379  0.1039
14650TIP3    H165441   5.709   0.284   5.136 -0.8818 -1.0248 -0.4290
14650TIP3    H265442   5.672   0.393   5.037 -2.1213 -2.7572 -1.9524
14651TIP3   OH265443   5.968   6.288   4.672  0.5870  0.9513 -0.0563
14651TIP3    H165444   5.995   6.373   4.638 -1.8797  2.1557  0.7189
14651TIP3    H265445   5.920   6.248   4.600 -0.6992  1.5234  0.4345
14652TIP3   OH265446   1.365   0.608   1.480  0.3049 -0.1411  0.1737
14652TIP3    H165447   1.299   0.643   1.419 -0.1632 -2.2441 -0.6424
14652TIP3    H265448   1.314   0.555   1.542  1.1885 -2.2325 -0.7822
14653TIP3   OH265449   6.152   6.153   2.112 -0.1435  0.5101  0.4979
14653TIP3    H165450   6.061   6.125   2.108  0.2740 -0.8148 -0.7567
14653TIP3    H265451   6.196   6.086   2.165  0.6696 -0.7444 -1.6399
14654TIP3   OH265452   4.226   5.163  15.473  0.3373  0.0331  0.3076
14654TIP3    H165453   4.285   5.225  15.431 -1.9022  1.6233 -0.6813
14654TIP3    H265454   4.239   5.176  15.567  1.0383  0.8514  0.0984
14655TIP3   OH265455   5.299   5.102  14.173  0.0485  0.2589 -0.2239
14655TIP3    H165456   5.386   5.134  14.195 -0.0288  0.4551 -0.2065
14655TIP3    H265457   5.244   5.129  14.246 -0.1795  0.7952 -0.5875
14656TIP3   OH265458   0.290   5.592  15.281  0.0962 -0.3669  0.3250
14656TIP3    H165459   0.273   5.549  15.366 -0.1086  1.0674  1.0338
14656TIP3    H265460   0.220   5.657  15.273  2.0630  1.8983  0.7066
14657TIP3   OH265461   5.910   6.226  13.778 -0.2958 -0.2924 -0.0892
14657TIP3    H165462   5.958   6.174  13.714 -0.9029 -0.6168 -0.2897
14657TIP3    H265463   5.972   6.241  13.848  0.5247  0.4458 -0.9487
14658TIP3   OH265464   0.240   0.827   6.004  0.0099 -0.6034 -0.4226
14658TIP3    H165465   0.250   0.774   6.083 -0.5272 -1.1321 -0.7002
14658TIP3    H265466   0.321   0.878   5.999  0.3722 -1.1229  0.0490
14659TIP3   OH265467   0.800   4.385   5.956  0.8842 -0.0251 -0.7745
14659TIP3    H165468   0.761   4.426   6.034 -1.6589 -3.5864  0.0985
14659TIP3    H265469   0.824   4.297   5.985  3.7828 -0.1257 -3.0697
14660TIP3   OH265470   4.114   5.046   5.759 -0.0350  0.2291  0.1816
14660TIP3    H165471   4.142   4.987   5.830  0.7408 -0.4974 -0.7077
14660TIP3    H265472   4.032   5.085   5.792 -0.7570 -1.5922  0.6638
14661TIP3   OH265473   1.894   4.919  15.374  0.4302  0.1788 -0.0528
14661TIP3    H165474   1.861   4.837  15.411  1.3226  1.2909  3.7042
14661TIP3    H265475   1.815   4.970  15.357 -0.0820 -0.0199  1.5065
14662TIP3   OH265476   2.102   1.987   4.145 -0.0400  0.3122  0.5906
14662TIP3    H165477   2.163   2.016   4.078 -1.3000 -0.4612 -0.9663
14662TIP3    H265478   2.021   2.034   4.126 -0.9169 -1.1589  0.4833
14663TIP3   OH265479   6.164   6.619  16.503 -0.0933 -0.4205  0.1468
14663TIP3    H165480   6.087   6.568  16.528  0.3417 -1.4169 -0.4405
14663TIP3    H265481   6.170   6.608  16.408  0.0639  0.6793  0.0247
14664TIP3   OH265482   1.311   0.545  15.745 -0.6803  0.0275  0.4626
14664TIP3    H165483   1.323   0.467  15.799  0.9038  0.4367  0.7440
14664TIP3    H265484   1.299   0.616  15.807  2.3560  0.7082  0.4536
14665TIP3   OH265485   0.431   0.861   4.306 -0.1285  0.3875  0.3138
14665TIP3    H165486   0.427   0.778   4.258  0.1258  1.4321 -1.5867
14665TIP3    H265487   0.385   0.843   4.389  0.2523 -1.7315  0.1075
14666TIP3   OH265488   3.817   2.741   1.437 -0.3247  0.3311 -0.1022
14666TIP3    H165489   3.780   2.804   1.375  0.2563 -1.0881 -1.9966
14666TIP3    H265490   3.910   2.764   1.440 -0.4888  0.8997  0.9099
14667TIP3   OH265491   4.879   2.753   4.775  0.0359 -0.3526  0.4875
14667TIP3    H165492   4.791   2.720   4.790 -0.9102  1.5215 -0.5588
14667TIP3    H265493   4.872   2.804   4.694  1.6494  1.3566  1.3446
14668TIP3   OH265494   5.930   1.629   2.979  0.5613  0.1721  0.1111
14668TIP3    H165495   5.922   1.551   2.925 -0.7651 -1.2990  2.2766
14668TIP3    H265496   5.908   1.701   2.921 -0.2883 -1.2646 -1.4254
14669TIP3   OH265497   5.659   5.401   1.432  0.0950 -0.2518 -0.3775
14669TIP3    H165498   5.721   5.348   1.382 -0.1391 -0.1800 -0.7436
14669TIP3    H265499   5.648   5.353   1.514  1.7364  0.4560  0.3057
14670TIP3   OH265500   2.570   5.071   0.191  0.2306 -0.1543  0.6756
14670TIP3    H165501   2.475   5.059   0.185  0.2910 -0.7010  0.8146
14670TIP3    H265502   2.596   5.098   0.103  0.1047 -1.1536  0.3203
14671TIP3   OH265503   4.850   5.570  14.781  0.1766  0.1762  0.3082
14671TIP3    H165504   4.784   5.592  14.847 -0.2403  1.4270 -0.4912
14671TIP3    H265505   4.931   5.562  14.831 -0.5326 -1.2738  1.2851
14672TIP3   OH265506   3.131   4.749   3.753 -0.0397  0.5426  0.2360
14672TIP3    H165507   3.125   4.787   3.841  0.7427 -0.4844  0.7616
14672TIP3    H265508   3.215   4.780   3.719 -0.8088  1.7942 -0.5982
14673TIP3   OH265509   5.914   0.085  13.688  0.1643  0.4922  0.1778
14673TIP3    H165510   6.002   0.053  13.707  0.4122  1.2987  0.3985
14673TIP3    H265511   5.911   0.093  13.593  0.4225  0.7284  0.1896
14674TIP3   OH265512   6.313   2.875  12.680  0.1078 -0.0333 -0.6079
14674TIP3    H165513   6.252   2.861  12.607 -0.1037 -0.1537 -0.4071
14674TIP3    H265514   6.259   2.868  12.758  0.5953 -1.4393 -0.3666
14675TIP3   OH265515   5.579   1.009   2.751 -0.4794 -0.4246  0.0101
14675TIP3    H165516   5.487   0.981   2.757 -0.5338 -0.3393 -0.4166
14675TIP3    H265517   5.587   1.078   2.818 -0.4440 -1.1742  0.7927
14676TIP3   OH265518   5.035   3.233   0.647  0.8407 -0.1805  0.3214
14676TIP3    H165519   5.082   3.218   0.565 -0.2460  2.1369 -0.8146
14676TIP3    H265520   5.101   3.268   0.707  1.6436 -1.9030  0.4906
14677TIP3   OH265521   0.200   2.297   2.216  0.3237 -0.7655 -0.5945
14677TIP3    H165522   0.195   2.380   2.263 -0.2856 -0.5709 -0.9843
14677TIP3    H265523   0.294   2.277   2.213  0.3647 -0.9363  0.9365
14678TIP3   OH265524   5.245   5.196   1.202 -0.3651 -1.1173  0.3389
14678TIP3    H165525   5.248   5.110   1.246  0.4096 -0.9500  0.6216
14678TIP3    H265526   5.283   5.256   1.266 -0.9914 -0.5411  0.1744
14679TIP3   OH265527   4.470   5.842   0.100  0.1912 -0.3438  0.2858
14679TIP3    H165528   4.385   5.858   0.139 -0.3435 -0.5076 -0.7782
14679TIP3    H265529   4.453   5.834   0.006  1.2120 -1.5616  0.1738
14680TIP3   OH265530   1.285   3.913   6.563 -0.1893 -0.4762  0.9463
14680TIP3    H165531   1.380   3.911   6.569 -0.0448 -2.3264 -0.7741
14680TIP3    H265532   1.265   3.999   6.526  0.8727 -0.3642  0.6002
14681TIP3   OH265533   6.494   4.851   3.711 -0.0655  0.8430  0.0653
14681TIP3    H165534   6.548   4.779   3.677 -0.4687  0.8836 -0.6829
14681TIP3    H265535   6.504   4.846   3.806  0.9389  0.6039 -0.0460
14682TIP3   OH265536   3.525   4.056   3.768  0.4036 -0.5821 -0.0489
14682TIP3    H165537   3.522   4.060   3.672  0.8201  0.8030 -0.0303
14682TIP3    H265538   3.616   4.033   3.788  0.9532  1.4900  0.0221
14683TIP3   OH265539   1.686   1.450   3.672 -0.1249  0.0050 -0.7706
14683TIP3    H165540   1.716   1.364   3.643 -0.2378 -0.1406 -0.4667
14683TIP3    H265541   1.599   1.434   3.709  1.3260 -0.5059  2.8645
14684TIP3   OH265542   2.330   0.765  15.880 -0.1632 -0.2171  0.4156
14684TIP3    H165543   2.310   0.708  15.954  0.2060  0.0927  0.7578
14684TIP3    H265544   2.260   0.747  15.817 -0.4549 -0.5182  0.8162
14685TIP3   OH265545   6.708   4.757  16.252 -0.0257 -0.1231  0.1038
14685TIP3    H165546   6.715   4.714  16.166  2.7847  0.3405  0.0173
14685TIP3    H265547   6.627   4.809  16.245 -0.1766 -0.5185 -2.0608
14686TIP3   OH265548   6.666   2.367   5.186 -0.4596  0.1523 -0.2345
14686TIP3    H165549   6.681   2.273   5.190  0.4855  0.3504  1.4368
14686TIP3    H265550   6.626   2.390   5.270  0.8153  1.4717  0.0647
14687TIP3   OH265551   3.973   6.763   0.388  0.0411  0.0283 -0.1712
14687TIP3    H165552   3.971   6.779   0.294  0.2047 -1.5013 -0.4600
14687TIP3    H265553   3.881   6.768   0.415  0.0634  1.1663 -0.2680
14688TIP3   OH265554   4.004   3.492   4.536 -0.0989  0.4991  0.1970
14688TIP3    H165555   3.970   3.406   4.510  2.3655 -0.8867  1.3091
14688TIP3    H265556   3.975   3.503   4.627 -0.1448  0.7253  0.1566
14689TIP3   OH265557   6.308   4.673  16.784 -0.4284 -0.6493 -0.7189
14689TIP3    H165558   6.308   4.761  16.748 -1.6773  0.1550  1.1008
14689TIP3    H265559   6.221   4.663  16.823 -0.0549 -2.4152 -0.2624
14690TIP3   OH265560   0.292   4.046  12.693  0.0363  0.4418 -0.3772
14690TIP3    H165561   0.198   4.057  12.706 -0.0870 -0.2322 -0.6665
14690TIP3    H265562   0.329   4.132  12.714 -0.6369  0.7060 -0.2402
14691TIP3   OH265563   4.680   3.418   1.783 -0.0529  0.2262 -0.4846
14691TIP3    H165564   4.758   3.460   1.747 -0.1297  1.3278  0.5643
14691TIP3    H265565   4.615   3.488   1.786 -0.7247 -0.3916 -0.2770
14692TIP3   OH265566   6.435   3.425  12.212  0.1548  0.2842  0.1317
14692TIP3    H165567   6.505   3.448  12.151  1.9168 -0.6575  1.6911
14692TIP3    H265568   6.476   3.429  12.298 -2.3020  1.8276  1.3609
14693TIP3   OH265569   1.134   2.213  12.058  0.2190  0.0502 -0.2031
14693TIP3    H165570   1.130   2.244  11.968 -0.5939  0.1468 -0.1477
14693TIP3    H265571   1.065   2.262  12.103 -0.3242 -0.9974  0.1409
14694TIP3   OH265572   1.266   6.385   1.407  0.0726  0.3893 -0.5501
14694TIP3    H165573   1.344   6.339   1.376 -0.1139 -0.5301  0.2797
14694TIP3    H265574   1.293   6.477   1.414  0.0970  0.6728 -3.4173
14695TIP3   OH265575   2.607   1.355   5.081  1.0847  0.1426 -0.2996
14695TIP3    H165576   2.673   1.421   5.060  1.4713 -0.4278 -0.9359
14695TIP3    H265577   2.547   1.355   5.006  1.4049 -0.6084 -0.5680
14696TIP3   OH265578   4.071   1.206   0.114 -0.3192  0.0301 -0.7864
14696TIP3    H165579   4.032   1.290   0.138 -1.7143 -0.6056 -0.7368
14696TIP3    H265580   4.163   1.227   0.097 -0.6972  1.6161 -1.0731
14697TIP3   OH265581   6.310   6.015  16.229 -0.0948  0.2027 -0.6707
14697TIP3    H165582   6.306   6.077  16.302  0.3923 -2.2152  1.5488
14697TIP3    H265583   6.400   6.024  16.195  0.4232 -0.2063  0.5338
14698TIP3   OH265584   6.096   0.761   6.064 -0.1555  0.2275 -0.0560
14698TIP3    H165585   6.160   0.802   6.121 -1.9514 -0.0130  2.2798
14698TIP3    H265586   6.106   0.805   5.980  1.9967  1.2203  0.6609
14699TIP3   OH265587   1.841   1.817  16.968  0.1040  0.5894  0.2613
14699TIP3    H165588   1.786   1.764  16.911  0.1366  0.7736  0.0541
14699TIP3    H265589   1.893   1.871  16.908  1.5319 -0.5693  0.3951
14700TIP3   OH265590   6.141   0.714  16.563  0.1472  0.6024 -0.2796
14700TIP3    H165591   6.167   0.638  16.511  0.8533  0.3859  0.3745
14700TIP3    H265592   6.046   0.712  16.562  0.1297  0.7994 -1.8414
14701TIP3   OH265593   5.108   6.425  12.419  0.3355 -0.7686 -1.1131
14701TIP3    H165594   5.096   6.516  12.389  2.3542 -0.3672 -0.8607
14701TIP3    H265595   5.047   6.374  12.367 -2.1659  0.9245 -0.0219
14702TIP3   OH265596   2.192   3.112  14.918  0.5594 -0.3198 -0.4629
14702TIP3    H165597   2.267   3.172  14.918  0.1929  0.1787  1.1611
14702TIP3    H265598   2.140   3.139  14.842  0.3273  1.5501  0.3004
14703TIP3   OH265599   6.535   2.008  11.003  0.8169 -0.4606 -0.2310
14703TIP3    H165600   6.523   2.100  11.025  1.3079  0.1614 -2.2902
14703TIP3    H265601   6.515   2.003  10.909 -0.9829 -2.8140  0.1813
14704TIP3   OH265602   3.087   3.719   5.368  0.2348  0.0705 -0.4959
14704TIP3    H165603   3.098   3.676   5.284 -0.2088  0.1464 -0.5942
14704TIP3    H265604   3.040   3.655   5.422  2.2171 -0.7554  0.3274
14705TIP3   OH265605   1.213   0.163   1.754  0.1913 -0.1926 -0.4494
14705TIP3    H165606   1.287   0.219   1.779  0.9925 -0.3302 -2.3232
14705TIP3    H265607   1.137   0.219   1.762  0.9252  1.0543 -1.7987
14706TIP3   OH265608   0.613   1.037   6.215  0.2649 -0.1981 -0.8131
14706TIP3    H165609   0.529   1.071   6.246  0.8559  1.3162 -0.7842
14706TIP3    H265610   0.672   1.046   6.291  0.5049 -1.0938 -0.8797
14707TIP3   OH265611   0.388   2.603  10.784  0.1946  0.3221  0.3901
14707TIP3    H165612   0.326   2.650  10.729 -1.0101  0.7747  2.0292
14707TIP3    H265613   0.458   2.665  10.801  0.6845  0.1023 -0.7777
14708TIP3   OH265614   5.210   3.113   6.333 -0.5819 -0.7213 -0.2383
14708TIP3    H165615   5.133   3.063   6.307  0.0055 -0.6333 -2.3812
14708TIP3    H265616   5.277   3.047   6.352 -0.6981 -0.7879 -0.0692
14709TIP3   OH265617   4.893   6.335   5.454  0.0240  0.1395 -0.3827
14709TIP3    H165618   4.892   6.333   5.549  2.7126 -0.5941 -0.2839
14709TIP3    H265619   4.927   6.421   5.431 -1.8436  0.8213 -0.7801
14710TIP3   OH265620   5.878   5.673   3.679 -0.1630 -0.1962 -0.1406
14710TIP3    H165621   5.824   5.730   3.623 -0.4778  0.1138  0.4609
14710TIP3    H265622   5.931   5.622   3.618  0.7187  1.3084 -0.6921
14711TIP3   OH265623   2.180   4.384   5.440 -0.5589 -0.4667 -0.1949
14711TIP3    H165624   2.167   4.300   5.484 -0.4731 -0.6401 -0.4989
14711TIP3    H265625   2.258   4.371   5.387 -0.9736 -0.4293 -0.8210
14712TIP3   OH265626   3.387   6.342  11.162 -0.0555 -0.3681  0.4673
14712TIP3    H165627   3.440   6.330  11.082 -2.4124 -1.3740 -1.0764
14712TIP3    H265628   3.380   6.254  11.198 -0.1716 -0.1432  0.9909
14713TIP3   OH265629   4.688   4.380  14.243  0.4730 -0.4148 -0.3470
14713TIP3    H165630   4.659   4.290  14.232  0.5057 -0.4453 -0.1808
14713TIP3    H265631   4.608   4.429  14.262  0.5472 -0.5226  0.2576
14714TIP3   OH265632   1.917   2.204  16.541 -0.7508 -0.5506 -0.3612
14714TIP3    H165633   1.822   2.196  16.533 -0.5957 -1.8911 -1.3236
14714TIP3    H265634   1.939   2.281  16.488 -1.2129 -0.8015 -0.9260
14715TIP3   OH265635   3.999   2.685   3.046  0.0619  0.5786  0.5742
14715TIP3    H165636   3.907   2.679   3.020  0.2660 -0.8325  0.0674
14715TIP3    H265637   3.999   2.661   3.139  0.2511 -3.2662 -0.2449
14716TIP3   OH265638   6.576   5.059  12.540 -0.5810  0.1785 -0.3420
14716TIP3    H165639   6.569   4.991  12.606 -0.8817  0.2620 -0.2885
14716TIP3    H265640   6.564   5.014  12.456 -0.8190  0.1736 -0.3045
14717TIP3   OH265641   2.642   4.760   1.615 -0.0157 -0.2101  0.3977
14717TIP3    H165642   2.606   4.786   1.700  1.6437  0.2610  1.0032
14717TIP3    H265643   2.700   4.833   1.591  1.5965 -1.5197  0.1656
14718TIP3   OH265644   4.903   4.716   1.323  0.3942 -0.4808  0.6402
14718TIP3    H165645   4.933   4.669   1.246 -0.9965  0.9691 -0.8527
14718TIP3    H265646   4.925   4.807   1.306 -1.5640  0.1208  1.1037
14719TIP3   OH265647   0.117   3.500  10.503 -0.1572  0.4674  0.0026
14719TIP3    H165648   0.181   3.555  10.456 -0.9349  1.4606  0.0618
14719TIP3    H265649   0.038   3.504  10.449 -0.3357 -0.3294  0.1960
14720TIP3   OH265650   3.246   1.510  12.769  0.1489  0.2793  0.1648
14720TIP3    H165651   3.172   1.523  12.709  0.4128 -0.3926 -0.3253
14720TIP3    H265652   3.259   1.416  12.770 -0.1140  0.2385  1.6363
14721TIP3   OH265653   4.287   1.207   5.537  0.2273  0.1625  0.3681
14721TIP3    H165654   4.302   1.272   5.606 -0.5462  1.1938 -0.4147
14721TIP3    H265655   4.239   1.254   5.469 -0.0639 -1.1496 -0.3669
14722TIP3   OH265656   3.339   1.338  13.369  0.4062  0.3229 -0.3145
14722TIP3    H165657   3.263   1.283  13.349  1.2275 -0.8933 -0.2064
14722TIP3    H265658   3.306   1.427  13.365 -0.9947 -0.1778 -0.4120
14723TIP3   OH265659   5.432   5.007   0.233  0.0691  0.0355  0.3921
14723TIP3    H165660   5.380   4.971   0.162 -0.8288 -1.0489  1.5527
14723TIP3    H265661   5.381   5.082   0.265 -0.1324 -0.2103  0.6563
14724TIP3   OH265662   0.431   0.486  16.984 -0.3372 -0.7583  0.4459
14724TIP3    H165663   0.436   0.573  17.025 -0.4104 -0.7057  0.3464
14724TIP3    H265664   0.344   0.484  16.944 -0.5620 -1.1048  0.9478
14725TIP3   OH265665   0.567   6.096  15.799 -0.1940 -0.5556 -0.0202
14725TIP3    H165666   0.635   6.135  15.854 -0.9764  0.8012  0.0360
14725TIP3    H265667   0.542   6.166  15.739  0.3148 -1.8469 -1.8453
14726TIP3   OH265668   3.409   1.490   2.627 -0.3119 -0.1112  0.3482
14726TIP3    H165669   3.451   1.433   2.691  2.1136  1.3222  0.1420
14726TIP3    H265670   3.390   1.432   2.553  0.4816 -1.0068  0.8264
14727TIP3   OH265671   2.483   2.694   2.108 -0.7533 -0.3366 -0.6628
14727TIP3    H165672   2.531   2.658   2.034 -1.9125 -1.1847 -1.0347
14727TIP3    H265673   2.545   2.753   2.151  1.6955 -3.5091  0.5936
14728TIP3   OH265674   4.946   3.238   3.584 -0.2624  0.1502  0.2265
14728TIP3    H165675   5.017   3.302   3.585 -0.1213 -0.0010  1.3646
14728TIP3    H265676   4.887   3.267   3.514 -0.2731  1.5857  0.8203
14729TIP3   OH265677   2.913   2.982   0.089 -0.7693  0.5321 -0.1119
14729TIP3    H165678   2.876   2.938   0.166 -0.2002  1.4989  0.7333
14729TIP3    H265679   2.954   2.912   0.039  1.8414  0.2428  2.1700
14730TIP3   OH265680   2.247   1.732   1.425  0.1964 -0.4742  0.1015
14730TIP3    H165681   2.270   1.645   1.458  1.2229  0.4572  1.9848
14730TIP3    H265682   2.220   1.781   1.503  1.2363  1.3887 -0.6458
14731TIP3   OH265683   1.697   0.415   6.271  0.3104 -0.2643  0.3579
14731TIP3    H165684   1.788   0.446   6.268  0.4855 -0.6608 -3.3840
14731TIP3    H265685   1.705   0.322   6.292  1.2013 -1.0391 -2.8451
14732TIP3   OH265686   6.180   6.304   0.714 -0.2721 -0.0697  0.2497
14732TIP3    H165687   6.135   6.321   0.631 -1.4934  0.9856  1.0959
14732TIP3    H265688   6.250   6.369   0.717 -0.0380 -0.2986 -0.0645
14733TIP3   OH265689   4.086   3.034  15.745  0.9341  0.5360  0.1730
14733TIP3    H165690   3.997   3.024  15.779  0.9832  0.4437  0.2773
14733TIP3    H265691   4.127   3.099  15.802 -0.0887  3.1021 -1.8666
14734TIP3   OH265692   3.476   4.565   4.872 -0.1539 -0.2625 -0.1272
14734TIP3    H165693   3.469   4.626   4.799 -1.0914 -0.0050  0.1613
14734TIP3    H265694   3.538   4.607   4.932 -0.4476  0.2043 -0.1406
14735TIP3   OH265695   1.652   5.454  15.663  0.0659  0.3825  0.4847
14735TIP3    H165696   1.700   5.375  15.640 -0.8547 -0.3288  0.9283
14735TIP3    H265697   1.566   5.422  15.692  0.2070  1.4162  2.1949
14736TIP3   OH265698   0.193   1.472  11.422  0.1385  0.2162  0.3691
14736TIP3    H165699   0.102   1.492  11.398  0.8433  1.6605 -1.2707
14736TIP3    H265700   0.210   1.386  11.384 -0.3321  0.2185  0.1452
14737TIP3   OH265701   3.121   3.761   4.077 -0.3212 -0.0415 -0.7693
14737TIP3    H165702   3.149   3.836   4.130  1.7707 -0.1205 -1.6323
14737TIP3    H265703   3.040   3.731   4.117  0.8739  0.2170  2.0804
14738TIP3   OH265704   2.542   0.054   0.764  0.0202  0.5528  0.1389
14738TIP3    H165705   2.492   0.043   0.845 -1.2905  0.7257 -0.6080
14738TIP3    H265706   2.632   0.065   0.792 -0.6529  2.5571  1.7154
14739TIP3   OH265707   1.590   4.472  16.511  0.2355  0.5401 -0.3999
14739TIP3    H165708   1.626   4.502  16.427 -1.0892 -2.1692 -2.0764
14739TIP3    H265709   1.503   4.510  16.515  0.6211  1.4040  0.2581
14740TIP3   OH265710   4.047   5.075   2.168 -0.1202 -0.1110 -0.1162
14740TIP3    H165711   3.955   5.100   2.162  0.4385  1.9150 -1.3081
14740TIP3    H265712   4.094   5.158   2.170  1.7490 -1.0950 -0.6505
14741TIP3   OH265713   3.049   0.106   2.624 -0.8314  0.8524 -0.1991
14741TIP3    H165714   3.037   0.013   2.646  1.3770  0.7375  0.7038
14741TIP3    H265715   2.997   0.118   2.545 -1.9553 -0.9017  0.2055
14742TIP3   OH265716   5.363   5.869   6.636 -0.2036 -0.2539 -0.7847
14742TIP3    H165717   5.333   5.894   6.723  1.1020 -0.4418 -0.2598
14742TIP3    H265718   5.405   5.947   6.601 -0.0011 -0.4165 -0.9115
14743TIP3   OH265719   0.680   2.341  13.305 -0.3299 -0.1934 -0.7318
14743TIP3    H165720   0.755   2.323  13.249  1.5714  0.1759  1.5182
14743TIP3    H265721   0.667   2.436  13.298  0.1654 -0.0852 -0.3027
14744TIP3   OH265722   4.242   5.580   3.293  0.4392  0.0153 -0.4190
14744TIP3    H165723   4.231   5.574   3.388 -0.2047 -0.1099 -0.4926
14744TIP3    H265724   4.335   5.595   3.280  1.0271 -2.6593  0.0979
14745TIP3   OH265725   6.518   3.647  14.476 -0.2786 -0.1816  0.0826
14745TIP3    H165726   6.470   3.721  14.515  0.4824 -0.4123  1.5286
14745TIP3    H265727   6.559   3.684  14.398 -0.6822  0.6876  0.2687
14746TIP3   OH265728   0.488   3.118  15.083 -0.0199  0.0530 -0.1713
14746TIP3    H165729   0.436   3.108  15.004 -0.8840 -1.2902  0.5348
14746TIP3    H265730   0.457   3.049  15.142  1.0326  0.6155  1.1069
14747TIP3   OH265731   3.002   2.753  17.106 -0.4767 -0.0370 -0.7266
14747TIP3    H165732   3.020   2.728  17.016  1.1571  2.2092 -1.0950
14747TIP3    H265733   3.050   2.689  17.159  3.3867  1.8207 -1.6251
14748TIP3   OH265734   1.268   2.416  11.839  0.1606 -0.4353 -0.1699
14748TIP3    H165735   1.202   2.367  11.789 -1.0499  0.5380  0.4085
14748TIP3    H265736   1.336   2.436  11.775 -0.6701 -0.4417 -1.0856
14749TIP3   OH265737   1.295   3.732  12.342  0.1060 -0.3747  0.2318
14749TIP3    H165738   1.376   3.766  12.304 -0.4120  0.3242 -0.2756
14749TIP3    H265739   1.303   3.637  12.337  0.6583 -0.3032 -0.3218
14750TIP3   OH265740   0.518   1.826  13.381 -0.1367  0.1875 -0.1312
14750TIP3    H165741   0.542   1.906  13.334  1.1776  0.2856  0.6290
14750TIP3    H265742   0.423   1.831  13.390 -0.1090  1.5506 -0.3104
14751TIP3   OH265743   6.738   6.399  15.030  0.2721 -0.1808 -0.7050
14751TIP3    H165744   6.784   6.474  14.993 -0.5095 -0.3719 -2.1098
14751TIP3    H265745   6.805   6.331  15.038  0.6440  0.1618 -0.9147
14752TIP3   OH265746   4.258   6.375   1.410 -0.2253  0.1608 -0.2056
14752TIP3    H165747   4.169   6.374   1.374 -0.1931  0.0740 -0.2809
14752TIP3    H265748   4.311   6.328   1.346 -0.5691 -1.9863  0.9848
14753TIP3   OH265749   6.466   2.144   2.284 -0.2481  0.2339 -0.0467
14753TIP3    H165750   6.410   2.177   2.214  2.0124  2.3089 -1.0552
14753TIP3    H265751   6.512   2.070   2.244  0.0736  0.5815 -0.3317
14754TIP3   OH265752   3.263   1.404  16.776  0.5754 -0.4458 -0.3037
14754TIP3    H165753   3.283   1.394  16.869  0.4840 -0.4799 -0.2881
14754TIP3    H265754   3.196   1.472  16.773  0.5639 -0.4585 -0.3429
14755TIP3   OH265755   0.233   0.180  11.954 -0.5105  0.0107 -0.3214
14755TIP3    H165756   0.230   0.264  11.908 -1.3827  0.0548 -0.1993
14755TIP3    H265757   0.160   0.184  12.015 -0.9226 -1.0638 -0.7251
14756TIP3   OH265758   0.469   5.609  14.325  0.3966  0.4648 -0.0397
14756TIP3    H165759   0.499   5.609  14.416 -1.0136 -2.2331  0.5510
14756TIP3    H265760   0.405   5.680  14.321  2.9799  2.9836 -0.0040
14757TIP3   OH265761   0.299   3.652  13.030  0.0509 -0.0679  0.5092
14757TIP3    H165762   0.389   3.626  13.049 -0.0361 -2.8893 -2.2511
14757TIP3    H265763   0.245   3.591  13.081 -0.2149 -0.7534 -0.5526
14758TIP3   OH265764   1.798   0.422   2.697  0.1403 -0.1411 -0.5740
14758TIP3    H165765   1.779   0.417   2.790 -0.5776 -0.9533 -0.7551
14758TIP3    H265766   1.746   0.496   2.666 -1.1158 -1.0448 -0.6702
14759TIP3   OH265767   2.907   0.058  13.081 -0.5164 -0.2997 -0.0243
14759TIP3    H165768   2.859   0.110  13.146 -1.8051 -2.0814  0.5208
14759TIP3    H265769   2.907   0.112  13.002  1.6057  2.2046  1.5087
14760TIP3   OH265770   3.588   6.645   2.453  0.0643 -0.3797  0.0131
14760TIP3    H165771   3.662   6.700   2.480 -0.0169  0.2656 -1.0391
14760TIP3    H265772   3.595   6.641   2.358 -0.1421 -1.9091  0.0461
14761TIP3   OH265773   0.401   3.546   2.407  0.1425  0.1722 -0.2227
14761TIP3    H165774   0.460   3.621   2.407 -0.5934  0.7692  0.5326
14761TIP3    H265775   0.428   3.494   2.483  0.5865 -0.2831 -0.6870
14762TIP3   OH265776   2.079   5.681   2.101  0.1059  0.1677 -0.2047
14762TIP3    H165777   2.106   5.717   2.017  0.5635  2.1020  0.7077
14762TIP3    H265778   2.113   5.591   2.101  0.1346  0.1464 -2.0355
14763TIP3   OH265779   5.969   1.729   4.302 -0.1453 -0.1437  0.0196
14763TIP3    H165780   5.902   1.752   4.366 -0.0872  0.4128 -0.1108
14763TIP3    H265781   6.007   1.648   4.335  0.3764  0.5113  1.0746
14764TIP3   OH265782   1.842   5.879  15.750  0.0964  0.2724 -1.0283
14764TIP3    H165783   1.805   5.800  15.790 -1.5715  1.5446  0.1165
14764TIP3    H265784   1.785   5.897  15.675  0.1108  0.6933 -0.9412
14765TIP3   OH265785   3.137   0.576  11.439  0.2441 -0.0583  0.0633
14765TIP3    H165786   3.145   0.495  11.389  0.5843 -1.2917  2.0130
14765TIP3    H265787   3.200   0.566  11.510 -0.7542  1.2756  1.1767
14766TIP3   OH265788   5.831   4.694   5.447  0.0435 -0.0659 -0.1015
14766TIP3    H165789   5.907   4.711   5.391  2.3898 -1.6932  2.3230
14766TIP3    H265790   5.800   4.781   5.472  0.6776  0.6485 -1.6775
14767TIP3   OH265791   4.792   1.708   4.480 -0.2450  0.1835 -0.0299
14767TIP3    H165792   4.772   1.635   4.420 -0.7949 -0.5396  1.0083
14767TIP3    H265793   4.872   1.746   4.445 -0.1052 -0.7430 -0.7540
14768TIP3   OH265794   1.023   1.778  14.667 -0.0823 -0.5460  0.2412
14768TIP3    H165795   0.967   1.802  14.741  1.6252 -1.9100  2.0945
14768TIP3    H265796   0.966   1.730  14.607 -1.1906 -0.6876  1.3827
14769TIP3   OH265797   1.961   4.076  14.755  0.0090  0.3992 -0.1031
14769TIP3    H165798   1.943   4.099  14.664 -2.2176  1.6492  0.5846
14769TIP3    H265799   1.885   4.025  14.783  1.9981 -2.6351  0.2618
14770TIP3   OH265800   5.946   6.668  14.000 -0.5344  0.6525  0.0188
14770TIP3    H165801   5.948   6.739  14.064 -0.1718 -0.1073  0.8754
14770TIP3    H265802   5.975   6.709  13.918  0.6217  1.2930  0.7116
14771TIP3   OH265803   5.737   3.510  13.168  0.0705  0.1526 -0.0540
14771TIP3    H165804   5.745   3.440  13.233  0.1584 -0.3361 -0.5911
14771TIP3    H265805   5.820   3.508  13.120  0.0676  0.6148 -0.0849
14772TIP3   OH265806   4.308   3.754   3.280 -0.1153 -0.2311  0.2081
14772TIP3    H165807   4.277   3.663   3.283 -1.8150  0.2238 -1.2670
14772TIP3    H265808   4.273   3.794   3.360  0.3262 -0.7816  0.6815
14773TIP3   OH265809   1.125   3.692  17.113 -0.1937 -0.1113 -0.4506
14773TIP3    H165810   1.051   3.752  17.103  1.1435  1.5207 -0.9390
14773TIP3    H265811   1.182   3.734  17.178  1.0629 -0.5002 -1.2522
14774TIP3   OH265812   0.251   1.117  11.568  0.6427  0.3420 -0.0167
14774TIP3    H165813   0.259   1.130  11.662 -0.3774  0.2599  0.0905
14774TIP3    H265814   0.190   1.043  11.559  2.0352 -0.7825 -0.7150
14775TIP3   OH265815   5.955   6.035  12.636 -0.6459 -0.1521 -0.0366
14775TIP3    H165816   6.034   6.013  12.587 -1.5772 -0.4691 -1.4586
14775TIP3    H265817   5.981   6.109  12.691  0.7619 -0.5875 -0.0770
14776TIP3   OH265818   6.485   1.509   0.468 -0.1387  0.0028 -0.1809
14776TIP3    H165819   6.441   1.507   0.553 -2.7305 -2.0503 -1.4014
14776TIP3    H265820   6.423   1.554   0.410  0.6140 -0.4799 -1.3983
14777TIP3   OH265821   0.971   4.352   4.232 -0.4317  0.1455  0.3318
14777TIP3    H165822   0.974   4.438   4.190 -0.3964  0.2512  0.5514
14777TIP3    H265823   0.945   4.292   4.162  0.3833  0.2015 -0.0236
14778TIP3   OH265824   0.779   3.737  13.306  0.2781 -0.0828  0.1130
14778TIP3    H165825   0.717   3.805  13.280  1.1033  0.6115 -0.1057
14778TIP3    H265826   0.822   3.772  13.384 -0.2978 -0.9910  0.8462
14779TIP3   OH265827   2.224   2.807  17.012  0.0434 -0.4495 -0.0723
14779TIP3    H165828   2.189   2.820  17.100 -0.2661  2.4722 -0.5464
14779TIP3    H265829   2.314   2.779  17.026 -0.4285 -1.4899  1.1197
14780TIP3   OH265830   0.170   6.113  15.475  0.1065  0.5310 -0.1839
14780TIP3    H165831   0.176   6.151  15.563 -0.9756  0.8827 -0.2420
14780TIP3    H265832   0.077   6.092  15.464 -0.0010  1.5927 -1.6787
14781TIP3   OH265833   5.683   5.466   1.798 -0.0591 -0.3232  0.2931
14781TIP3    H165834   5.675   5.541   1.857 -0.7737  0.0653 -0.2732
14781TIP3    H265835   5.756   5.488   1.741 -0.9122  0.4458 -0.5445
14782TIP3   OH265836   1.152   1.668   2.097  0.0932  0.1788 -0.3994
14782TIP3    H165837   1.220   1.724   2.058  1.3159 -0.7960  0.2396
14782TIP3    H265838   1.155   1.588   2.046 -0.5734  0.1190 -0.3480
14783TIP3   OH265839   0.472   1.372  10.842  0.4481  0.5233  0.1405
14783TIP3    H165840   0.526   1.353  10.918  0.0501  1.3254  0.6462
14783TIP3    H265841   0.402   1.427  10.876  0.6054  1.4207 -0.9238
14784TIP3   OH265842   6.102   1.912   4.721 -0.3077  1.1364  0.0688
14784TIP3    H165843   6.080   1.819   4.719  1.1990  0.7559  0.1079
14784TIP3    H265844   6.037   1.953   4.664 -0.7594  0.0143 -0.2552
14785TIP3   OH265845   6.099   1.907   3.907 -0.4813 -0.1776 -0.3594
14785TIP3    H165846   6.025   1.893   3.966  1.4166  0.5338  2.3614
14785TIP3    H265847   6.083   1.993   3.869 -1.4695 -0.4036 -0.4701
14786TIP3   OH265848   3.719   4.250  12.528 -0.0903 -0.5593  0.5742
14786TIP3    H165849   3.710   4.169  12.578 -0.1211 -1.6691 -1.1482
14786TIP3    H265850   3.809   4.248  12.495 -0.1818 -0.0334  0.2756
14787TIP3   OH265851   5.724   2.214   0.228 -0.2811  0.5502 -0.9700
14787TIP3    H165852   5.754   2.271   0.157 -0.9438  1.8531 -0.2320
14787TIP3    H265853   5.794   2.218   0.293  0.4129 -0.7918 -1.5779
14788TIP3   OH265854   6.824   5.074   0.671 -0.0820 -0.1940  0.2675
14788TIP3    H165855   6.844   5.058   0.763  3.9870  0.5742 -0.2818
14788TIP3    H265856   6.855   4.995   0.626  1.8184  1.0184 -0.6938
14789TIP3   OH265857   4.692   6.485  15.542 -0.3944  0.5319 -0.3796
14789TIP3    H165858   4.675   6.394  15.517 -0.1767  1.0710 -2.6471
14789TIP3    H265859   4.635   6.537  15.486 -1.1553  1.8147  1.4851
14790TIP3   OH265860   3.765   0.848  17.174 -0.3334  0.0827  0.0481
14790TIP3    H165861   3.844   0.884  17.135  0.1809 -1.8851 -0.8888
14790TIP3    H265862   3.693   0.889  17.126  0.1272  1.3320  0.4068
14791TIP3   OH265863   2.721   6.268  12.235  0.2208 -0.2471 -0.7991
14791TIP3    H165864   2.799   6.222  12.266 -0.3684 -1.0982 -0.5234
14791TIP3    H265865   2.660   6.198  12.211 -0.3390  0.4040 -1.3110
14792TIP3   OH265866   6.157   4.358  13.306  0.1234  0.5772  0.0496
14792TIP3    H165867   6.145   4.304  13.384 -2.6586  0.3249 -0.4705
14792TIP3    H265868   6.237   4.409  13.324 -1.2735  1.7611  3.7800
14793TIP3   OH265869   4.815   1.995  16.224 -0.1507 -0.3188  0.1222
14793TIP3    H165870   4.733   1.972  16.266  0.6035 -2.8478  0.3755
14793TIP3    H265871   4.883   1.962  16.283  1.0017 -0.3858 -1.1788
14794TIP3   OH265872   2.946   3.795   3.353  0.5703 -0.5952 -0.0153
14794TIP3    H165873   2.993   3.865   3.308 -0.5930  1.1075  1.2797
14794TIP3    H265874   2.864   3.836   3.382  0.2533 -2.2274  1.5901
14795TIP3   OH265875   3.112   2.921   4.205  0.5587 -0.4743 -0.5841
14795TIP3    H165876   3.119   2.849   4.268  1.9183 -2.3453 -2.7108
14795TIP3    H265877   3.064   2.883   4.131  0.2094  1.2205 -1.2669
14796TIP3   OH265878   5.585   2.845   4.309 -0.7313  0.1653  0.0470
14796TIP3    H165879   5.525   2.788   4.356 -1.5747  1.5367  0.6951
14796TIP3    H265880   5.645   2.785   4.264 -1.7912 -1.2111  0.4070
14797TIP3   OH265881   2.522   1.177  10.460 -0.1110  0.0223  0.1344
14797TIP3    H165882   2.557   1.166  10.372  0.6289 -1.0722  0.5401
14797TIP3    H265883   2.505   1.088  10.490  1.1092  0.2727  1.6680
14798TIP3   OH265884   1.054   3.125  16.108 -0.5942  0.1919  0.2867
14798TIP3    H165885   1.122   3.163  16.053 -0.6174 -1.0943 -0.6899
14798TIP3    H265886   1.060   3.172  16.191  0.9958  0.5947 -0.0273
14799TIP3   OH265887   5.360   2.874  16.273 -0.2311 -0.1997  0.3544
14799TIP3    H165888   5.347   2.871  16.179  0.6464  0.5137  0.1967
14799TIP3    H265889   5.316   2.954  16.301  0.4254  0.1590  0.3832
14800TIP3   OH265890   2.584   3.463  13.983 -0.0045  0.0632  0.9095
14800TIP3    H165891   2.511   3.446  13.924  0.9089 -1.5633  0.1594
14800TIP3    H265892   2.651   3.504  13.927  0.8937 -1.5580  0.7345
14801TIP3   OH265893   5.302   4.745   2.600 -0.0058 -0.8630 -0.2144
14801TIP3    H165894   5.272   4.832   2.572 -0.9055 -1.2828 -0.5808
14801TIP3    H265895   5.230   4.686   2.577 -0.3601 -1.3918  2.0222
14802TIP3   OH265896   1.709   2.677   4.811 -0.2908 -0.4849 -0.2156
14802TIP3    H165897   1.697   2.771   4.800 -0.7456 -0.2244  1.9266
14802TIP3    H265898   1.798   2.660   4.783  0.1687  0.8088  0.3711
14803TIP3   OH265899   1.895   0.970  15.105  0.5218 -0.3864 -0.0261
14803TIP3    H165900   1.950   1.005  15.035 -0.3597 -0.0157 -0.5545
14803TIP3    H265901   1.948   0.977  15.184  1.4162 -0.5108 -0.5983
14804TIP3   OH265902   1.188   0.408   3.207  0.0839 -0.0353 -0.7715
14804TIP3    H165903   1.284   0.413   3.209  0.0946 -0.1907  1.2989
14804TIP3    H265904   1.166   0.337   3.267 -1.3396 -0.4343 -1.7092
14805TIP3   OH265905   6.089   6.666   0.358  0.2944  0.0214 -0.2028
14805TIP3    H165906   6.062   6.718   0.283  0.0894 -0.1082 -0.2199
14805TIP3    H265907   6.183   6.680   0.364  0.3253 -0.0252 -0.5292
14806TIP3   OH265908   5.232   4.215   1.529 -0.5365  0.0373 -0.0784
14806TIP3    H165909   5.160   4.176   1.578  0.0086  0.1771  0.8383
14806TIP3    H265910   5.191   4.285   1.478 -1.0350  0.1595  0.4865
14807TIP3   OH265911   0.022   5.506  15.011 -0.0035 -0.5220 -0.1316
14807TIP3    H165912   0.012   5.433  15.071 -1.3663  0.1263  0.4718
14807TIP3    H265913  -0.059   5.557  15.021  1.4331  1.7870  0.4501
14808TIP3   OH265914   0.590   5.811   2.004 -0.4166 -0.3900  0.1977
14808TIP3    H165915   0.535   5.778   1.933 -0.7962  0.0656  0.2756
14808TIP3    H265916   0.677   5.821   1.965 -0.5137 -0.6028 -0.0716
14809TIP3   OH265917   1.550   4.713   3.308  0.0204 -0.2521 -0.0784
14809TIP3    H165918   1.563   4.718   3.402  0.7867 -0.1274 -0.1805
14809TIP3    H265919   1.639   4.708   3.272 -0.2939 -1.5572 -0.7220
14810TIP3   OH265920   5.476   5.899   4.126 -0.5453 -0.1573 -0.5039
14810TIP3    H165921   5.449   5.883   4.036 -4.1168 -1.1336  0.5526
14810TIP3    H265922   5.421   5.972   4.155  1.8274  1.3609  0.4132
14811TIP3   OH265923   3.536   3.430  10.618  0.1239 -0.4183 -0.6098
14811TIP3    H165924   3.525   3.348  10.570 -1.2929 -0.6798  0.1225
14811TIP3    H265925   3.501   3.497  10.559  0.9634 -0.3527 -1.0626
14812TIP3   OH265926   6.669   0.449  12.550  0.8202 -0.0057 -0.1796
14812TIP3    H165927   6.732   0.467  12.620  0.3205 -2.0509  0.8708
14812TIP3    H265928   6.587   0.429  12.596  0.0166  0.2756 -1.4307
14813TIP3   OH265929   2.407   3.769   5.862 -0.1852 -0.0406  0.2750
14813TIP3    H165930   2.412   3.676   5.840  1.4172  0.2288 -0.7079
14813TIP3    H265931   2.441   3.775   5.951 -0.4374 -0.4093  0.3965
14814TIP3   OH265932   3.159   0.353  12.512 -0.2474 -0.6288  0.1755
14814TIP3    H165933   3.087   0.291  12.497 -0.8825  0.0874  0.2088
14814TIP3    H265934   3.125   0.437  12.483  0.7086 -0.3331 -0.1233
14815TIP3   OH265935   3.712   6.468   6.121 -0.0367  0.0705 -0.7605
14815TIP3    H165936   3.621   6.496   6.128  0.0232 -0.1341  1.5368
14815TIP3    H265937   3.722   6.399   6.187  2.1302  1.0980  0.0998
14816TIP3   OH265938   4.110   3.011   5.822  0.7800 -0.0406 -0.3681
14816TIP3    H165939   4.057   2.973   5.752  0.8502  0.3496 -0.6379
14816TIP3    H265940   4.065   2.986   5.903 -1.0836  2.1267 -0.6560
14817TIP3   OH265941   0.566   6.757  13.375 -0.2856 -0.2809 -0.7209
14817TIP3    H165942   0.630   6.762  13.304 -0.3735 -1.6778 -0.9201
14817TIP3    H265943   0.561   6.664  13.397 -1.4446 -0.0633  0.0392
14818TIP3   OH265944   6.091   6.343   1.011  0.5989 -0.4251  0.2660
14818TIP3    H165945   6.059   6.278   1.073 -2.4439 -2.0346 -2.6759
14818TIP3    H265946   6.128   6.291   0.939 -0.4752  1.0771 -1.4665
14819TIP3   OH265947   2.137   0.283   4.523  0.0846 -0.4963 -0.4254
14819TIP3    H165948   2.113   0.206   4.473  0.4087 -0.6390 -0.3617
14819TIP3    H265949   2.203   0.328   4.469  0.5068 -0.7023 -0.0876
14820TIP3   OH265950   4.483   4.799  13.533 -0.1941 -0.3499 -0.4471
14820TIP3    H165951   4.497   4.774  13.441 -0.0619  0.1961 -0.5789
14820TIP3    H265952   4.437   4.725  13.571  1.2635 -1.3505 -0.5210
14821TIP3   OH265953   3.963   3.079   2.183  0.0415 -0.4131 -0.5321
14821TIP3    H165954   4.056   3.100   2.171  0.2841 -0.6811  0.6730
14821TIP3    H265955   3.916   3.148   2.135  0.8579  0.7463  0.2721
14822TIP3   OH265956   3.563   0.829   3.380  0.1121  0.2600  0.0140
14822TIP3    H165957   3.609   0.822   3.463 -0.4858 -0.6506  0.2821
14822TIP3    H265958   3.555   0.739   3.349 -0.8565  0.4580 -0.3584
14823TIP3   OH265959   0.034   1.128  13.961  0.2451 -0.3159 -0.0185
14823TIP3    H165960   0.078   1.047  13.935  0.4864 -0.4260  0.7165
14823TIP3    H265961   0.099   1.176  14.012  0.5442  0.9464 -1.4936
14824TIP3   OH265962   3.269   2.363   5.058 -0.1824 -0.2690 -0.3848
14824TIP3    H165963   3.232   2.277   5.077 -0.3233 -0.4043 -1.2385
14824TIP3    H265964   3.364   2.348   5.055 -0.1709 -0.2846 -0.0082
14825TIP3   OH265965   5.000   4.495  15.117 -0.1030  0.4489 -0.8652
14825TIP3    H165966   5.088   4.466  15.094 -0.7999 -3.1249  0.2600
14825TIP3    H265967   5.009   4.534  15.203  0.2793 -1.1412 -0.1414
14826TIP3   OH265968   0.277   1.753  13.932  0.0210 -0.8232  0.4334
14826TIP3    H165969   0.339   1.682  13.948 -0.5960 -1.4198  0.2085
14826TIP3    H265970   0.300   1.820  13.997  1.5243 -0.6064 -0.2605
14827TIP3   OH265971   6.209   4.321  14.534 -0.2343 -0.2733  0.2284
14827TIP3    H165972   6.228   4.319  14.440  1.6241 -0.7212  0.5680
14827TIP3    H265973   6.276   4.379  14.571 -0.4067 -0.7717  1.3667
14828TIP3   OH265974   5.636   2.103  16.580 -0.0156 -0.4629  0.2354
14828TIP3    H165975   5.553   2.059  16.565  0.3430 -1.5678  1.3618
14828TIP3    H265976   5.633   2.130  16.671 -0.4211  2.3735 -0.5045
14829TIP3   OH265977   0.726   0.159   2.408 -0.0625  0.6344  0.1166
14829TIP3    H165978   0.693   0.072   2.385  0.6513  0.2600  0.4700
14829TIP3    H265979   0.819   0.146   2.425  0.3565  1.7276 -1.1576
14830TIP3   OH265980   0.460   6.829  10.198  0.5473 -0.6084  0.0599
14830TIP3    H165981   0.447   6.885  10.122 -2.1334  0.4615  1.1602
14830TIP3    H265982   0.421   6.878  10.270 -0.6340 -3.2482  1.3580
14831TIP3   OH265983   1.150   3.827  15.450 -0.1680  0.2827 -0.5155
14831TIP3    H165984   1.096   3.749  15.439 -0.5402  0.5792 -0.8003
14831TIP3    H265985   1.235   3.793  15.479 -1.5499  0.0507  3.9041
14832TIP3   OH265986   4.175   0.653  12.873 -0.3647 -0.1598 -0.2607
14832TIP3    H165987   4.137   0.566  12.864 -1.7078  0.5167 -1.3559
14832TIP3    H265988   4.134   0.705  12.804  2.0445  0.8038 -1.0802
14833TIP3   OH265989   0.987   6.352   1.375  0.4858 -0.0490 -0.1730
14833TIP3    H165990   1.037   6.380   1.298  0.5818  2.1004  0.5977
14833TIP3    H265991   1.051   6.303   1.428  1.1970  0.8024 -0.2140
14834TIP3   OH265992   2.568   2.104   3.256 -0.0060  0.8433  0.5576
14834TIP3    H165993   2.474   2.096   3.274  0.4330  0.0377  2.8315
14834TIP3    H265994   2.588   2.195   3.277 -0.3086  1.0847 -0.1714
14835TIP3   OH265995   2.338   3.195  13.959  0.2929  0.1788  0.4388
14835TIP3    H165996   2.356   3.137  13.885 -1.2561 -1.6685  1.3944
14835TIP3    H265997   2.400   3.167  14.027  0.2122  0.3132  0.5680
14836TIP3   OH265998   1.250   3.779   3.933  0.0041  0.6619  0.1352
14836TIP3    H165999   1.317   3.837   3.898 -0.1687  0.5070 -0.4683
14836TIP3    H266000   1.186   3.838   3.974  0.0960  0.8616 -0.0093
14837TIP3   OH266001   1.847   0.233  14.873 -0.0481 -0.0502 -0.2256
14837TIP3    H166002   1.931   0.203  14.838 -0.8176 -2.7533  0.0069
14837TIP3    H266003   1.815   0.296  14.809  2.5007  1.7256  0.1220
14838TIP3   OH266004   0.790   6.211  14.269 -0.5430 -0.2075 -0.3837
14838TIP3    H166005   0.846   6.139  14.243 -1.9276 -1.2446 -0.6458
14838TIP3    H266006   0.742   6.234  14.190  0.1859  1.3199 -0.4075
14839TIP3   OH266007   2.144   5.641  11.206 -0.4773  0.0998  0.6011
14839TIP3    H166008   2.143   5.647  11.110 -2.5774  0.7969  0.6193
14839TIP3    H266009   2.237   5.644  11.229  0.0663  0.0421 -1.3997
14840TIP3   OH266010   3.529   3.863   0.590  0.8386 -0.4572  0.2524
14840TIP3    H166011   3.569   3.800   0.530 -2.0705 -1.7623 -0.5134
14840TIP3    H266012   3.462   3.906   0.537 -0.1561  0.1378  1.9490
14841TIP3   OH266013   2.066   0.786   6.314 -0.3528 -0.1349  0.0038
14841TIP3    H166014   2.060   0.696   6.349  0.7996 -1.0820 -2.0964
14841TIP3    H266015   1.979   0.802   6.276 -1.1317  0.3526  1.8564
14842TIP3   OH266016   1.185   5.022  13.893 -0.1296  0.7271  0.3365
14842TIP3    H166017   1.225   5.068  13.966  2.1877  1.7060 -1.4330
14842TIP3    H266018   1.226   4.936  13.893 -0.1966  0.6949  0.2382
14843TIP3   OH266019   0.941   1.295   4.632 -0.5224 -0.3554  0.1651
14843TIP3    H166020   0.867   1.324   4.686 -0.6917 -2.1669  0.9478
14843TIP3    H266021   1.017   1.342   4.667 -0.7896 -0.8089  1.3749
14844TIP3   OH266022   3.845   3.161   0.215  0.3633  0.2345  0.4834
14844TIP3    H166023   3.907   3.112   0.268  1.0242  0.4545 -0.0745
14844TIP3    H266024   3.876   3.149   0.125 -1.1927 -0.8092  0.0427
14845TIP3   OH266025   4.176   4.558  15.089 -0.0503 -0.7072  0.1766
14845TIP3    H166026   4.184   4.617  15.014  0.4249  0.5603  1.1759
14845TIP3    H266027   4.266   4.532  15.109 -0.2183 -1.4453  0.0134
14846TIP3   OH266028   1.905   4.646  15.715  0.3377  0.1153 -0.4892
14846TIP3    H166029   1.882   4.568  15.766 -1.0723  0.6974 -0.1997
14846TIP3    H266030   1.821   4.679  15.682  0.8080  1.9000 -0.0241
14847TIP3   OH266031   0.747   5.924   2.932 -0.1488  0.3255 -0.1188
14847TIP3    H166032   0.796   5.893   2.856 -0.4778  1.1420 -0.6829
14847TIP3    H266033   0.787   5.880   3.007 -0.4115 -1.2094 -0.8444
14848TIP3   OH266034   2.639   3.754   3.174 -0.0049 -0.2598  0.0115
14848TIP3    H166035   2.680   3.689   3.231 -3.1627  1.5357  5.0394
14848TIP3    H266036   2.550   3.722   3.162 -0.3973  1.1274 -0.9743
14849TIP3   OH266037   1.961   5.622   1.630 -0.4774 -0.4388 -0.2520
14849TIP3    H166038   1.971   5.557   1.700  0.6702  1.2562  1.2350
14849TIP3    H266039   2.050   5.634   1.597 -0.5470  0.9434  0.0357
14850TIP3   OH266040   1.484   6.743  14.201 -0.4374  1.1128 -0.2906
14850TIP3    H166041   1.421   6.697  14.146  1.3544  0.6142 -2.0654
14850TIP3    H266042   1.484   6.696  14.284 -0.6095 -0.4245 -1.1358
14851TIP3   OH266043   0.373   4.714   0.513  0.8926  0.5314  0.5334
14851TIP3    H166044   0.335   4.626   0.510 -0.5570  1.1460 -1.1092
14851TIP3    H266045   0.467   4.700   0.498  0.5233 -0.6947 -1.0161
14852TIP3   OH266046   1.957   2.019   0.942 -0.5593  0.1619  0.3560
14852TIP3    H166047   1.916   2.059   0.865  0.9740  0.3496 -0.4147
14852TIP3    H266048   2.048   2.004   0.915  0.0946  0.4817  2.2278
14853TIP3   OH266049   2.306   1.296  12.971  0.2157 -0.4711  0.5356
14853TIP3    H166050   2.213   1.273  12.972  0.2063 -0.8057 -2.1302
14853TIP3    H266051   2.350   1.219  13.007 -0.4034 -1.1148 -0.0715
14854TIP3   OH266052   1.904   0.817  10.578 -0.5935  0.4929 -0.2615
14854TIP3    H166053   1.908   0.836  10.672 -1.3029 -1.4075  0.2022
14854TIP3    H266054   1.851   0.888  10.542  0.1386  1.5499  0.6667
14855TIP3   OH266055   2.337   2.215  15.453 -1.0455 -0.0058  0.3268
14855TIP3    H166056   2.415   2.244  15.501 -0.8909  0.5465 -0.2421
14855TIP3    H266057   2.270   2.203  15.520 -0.1276 -1.7336  1.0004
14856TIP3   OH266058   6.686   3.762  13.025  0.1324 -0.1710  0.2679
14856TIP3    H166059   6.645   3.677  13.013  1.1114 -0.6812  0.4449
14856TIP3    H266060   6.746   3.770  12.951  0.8862 -0.1491  0.8663
14857TIP3   OH266061   4.873   4.614  16.364 -0.0535  0.1243  0.2993
14857TIP3    H166062   4.915   4.697  16.342 -1.0852  0.4824 -0.4071
14857TIP3    H266063   4.936   4.568  16.419  2.7103 -0.7283 -3.1966
14858TIP3   OH266064   2.446   0.065  16.519 -0.6988  0.2316  0.0955
14858TIP3    H166065   2.474   0.038  16.607  0.6287 -2.6318 -1.0774
14858TIP3    H266066   2.398  -0.010  16.485  1.4897 -0.0750 -2.7144
14859TIP3   OH266067   1.395   4.510   1.689  0.3243 -0.0562  0.1055
14859TIP3    H166068   1.318   4.458   1.666  0.9843 -0.2740 -1.7172
14859TIP3    H266069   1.469   4.452   1.674  0.9530  0.7421  0.0575
14860TIP3   OH266070   2.305   2.978   2.668  0.1580  0.0808 -0.3324
14860TIP3    H166071   2.307   2.882   2.668 -0.5399  0.0429  0.8522
14860TIP3    H266072   2.215   3.001   2.648 -0.0369  0.4385  0.8478
14861TIP3   OH266073   2.092   3.387   1.863  0.0319  0.4463 -0.0039
14861TIP3    H166074   2.004   3.412   1.836 -0.8193  0.7419  2.7474
14861TIP3    H266075   2.103   3.298   1.829 -2.1775 -0.4087  1.2982
14862TIP3   OH266076   2.566   1.042  16.930 -0.7239  0.5070 -0.0464
14862TIP3    H166077   2.573   1.064  16.837  1.1157 -1.6164 -0.4965
14862TIP3    H266078   2.643   1.083  16.970 -0.0303 -0.8083  0.0128
14863TIP3   OH266079   6.300   3.948  15.070 -0.5032  0.0083  0.4277
14863TIP3    H166080   6.259   3.870  15.107  0.5583  0.1946  2.1367
14863TIP3    H266081   6.283   4.017  15.135  0.2887  0.6997 -0.0787
14864TIP3   OH266082   0.998   5.009   3.785 -0.3791 -0.1172 -0.1871
14864TIP3    H166083   0.909   5.044   3.781 -0.3709 -0.0588  0.1093
14864TIP3    H266084   0.997   4.951   3.861  0.4714  1.7325  1.3394
14865TIP3   OH266085   2.735   1.090   3.628 -0.1900  0.5021  0.1837
14865TIP3    H166086   2.791   1.167   3.619 -1.4559  1.4360  0.0367
14865TIP3    H266087   2.783   1.033   3.689  0.9910  1.1727 -0.0716
14866TIP3   OH266088   2.183   6.490  15.056  0.0367  0.5917 -0.5158
14866TIP3    H166089   2.219   6.554  14.995 -0.9037  1.5194 -0.1229
14866TIP3    H266090   2.259   6.440  15.086  0.7881  1.5165 -0.8277
14867TIP3   OH266091   2.103   1.561  13.897  0.2433 -0.1420 -0.0827
14867TIP3    H166092   2.155   1.616  13.955 -0.3778 -0.4954  0.8355
14867TIP3    H266093   2.146   1.476  13.899  0.2551 -0.1375 -0.1729
14868TIP3   OH266094   6.789   2.628   5.007 -0.2602  0.2001 -1.0201
14868TIP3    H166095   6.813   2.693   5.072 -0.8562  0.9018 -1.4766
14868TIP3    H266096   6.719   2.577   5.049  3.2577 -3.3401  1.2051
14869TIP3   OH266097   0.563   0.838  12.709  0.0317 -0.0045 -0.1092
14869TIP3    H166098   0.582   0.880  12.793  1.0840 -1.6773  0.5409
14869TIP3    H266099   0.612   0.890  12.645  0.6807  0.2231  0.5554
14870TIP3   OH266100   1.834   5.457  12.067 -0.6072 -0.2070 -0.4089
14870TIP3    H166101   1.789   5.422  11.990 -0.1800 -0.8753 -0.3582
14870TIP3    H266102   1.905   5.395  12.085  0.5601  0.9970 -0.6873
14871TIP3   OH266103   0.152   2.681  16.796  0.1946 -0.1413  0.4620
14871TIP3    H166104   0.191   2.596  16.812 -0.5925 -0.7738 -0.7889
14871TIP3    H266105   0.107   2.703  16.878  1.6727 -0.1954  1.3148
14872TIP3   OH266106   0.972   0.377   2.681 -0.1013 -0.5898  0.6765
14872TIP3    H166107   1.011   0.363   2.595 -0.2684  0.8847  0.3318
14872TIP3    H266108   1.013   0.312   2.737  1.7296 -0.0928 -0.0106
14873TIP3   OH266109   5.995   2.390  12.016 -0.0550  0.5278 -1.0160
14873TIP3    H166110   6.055   2.333  11.968 -1.7075 -1.3922 -0.9213
14873TIP3    H266111   5.946   2.436  11.947 -0.0512  0.3655 -1.1278
14874TIP3   OH266112   2.997   2.668  16.056 -0.1905  0.1053 -0.6006
14874TIP3    H166113   2.920   2.633  16.101  0.0871 -1.0419 -0.9827
14874TIP3    H266114   3.023   2.598  15.996  0.9508  0.6061 -0.7141
14875TIP3   OH266115   2.904   6.599  11.909 -0.1028 -0.5238  0.0172
14875TIP3    H166116   2.809   6.601  11.899 -0.1188 -1.1767 -0.0015
14875TIP3    H266117   2.937   6.571  11.823  0.1222 -0.0871 -0.0441
14876TIP3   OH266118   4.304   3.902  14.419  0.0243  0.1707 -0.2708
14876TIP3    H166119   4.278   3.940  14.336 -1.7695 -1.1048 -0.3571
14876TIP3    H266120   4.344   3.818  14.396 -2.4733 -1.2370  0.1534
14877TIP3   OH266121   3.150   4.136  15.655  0.2356  0.2349 -0.2401
14877TIP3    H166122   3.125   4.070  15.720  0.6113 -0.0518 -0.3813
14877TIP3    H266123   3.081   4.202  15.661  0.4632  0.4069  0.7282
14878TIP3   OH266124   4.700   5.881  13.746 -0.1241 -0.0382 -0.1242
14878TIP3    H166125   4.670   5.793  13.770 -0.0798 -0.9350 -2.9405
14878TIP3    H266126   4.791   5.884  13.775  0.3883 -1.6206 -1.3709
14879TIP3   OH266127   4.899   2.541   1.593 -0.6289 -0.0597  0.1814
14879TIP3    H166128   4.843   2.601   1.641 -0.6642 -0.7588  1.0469
14879TIP3    H266129   4.885   2.563   1.501 -3.9015 -1.4936  0.1960
14880TIP3   OH266130   6.100   4.989   5.533  0.5707  0.1907  0.4248
14880TIP3    H166131   6.159   5.063   5.521  1.5285 -0.7923 -1.3747
14880TIP3    H266132   6.147   4.930   5.591  2.7575 -1.7875 -2.9679
14881TIP3   OH266133   5.133   4.537   6.371 -0.6828  0.0943  0.3110
14881TIP3    H166134   5.116   4.618   6.418  0.2191  0.7192 -0.4110
14881TIP3    H266135   5.103   4.555   6.282  1.6858  0.5120 -0.4767
14882TIP3   OH266136   1.388   1.928  16.594  0.6182 -0.2883  0.0423
14882TIP3    H166137   1.372   1.863  16.525 -0.4658  0.1634 -0.1459
14882TIP3    H266138   1.302   1.947  16.630  1.1369 -0.2841  1.3273
14883TIP3   OH266139   5.443   4.456  17.107  0.8915 -0.0252 -0.5646
14883TIP3    H166140   5.389   4.535  17.118  1.1625  0.1765 -0.6829
14883TIP3    H266141   5.503   4.478  17.037  1.8322  0.1342  0.2683
14884TIP3   OH266142   6.816   1.466  11.829 -0.1502 -0.3435  0.0167
14884TIP3    H166143   6.748   1.533  11.828 -0.4706 -0.6619  0.2292
14884TIP3    H266144   6.768   1.383  11.825  0.3026 -0.5653 -2.5833
14885TIP3   OH266145   1.029   4.551  14.418 -0.6774 -0.4104 -0.2836
14885TIP3    H166146   1.041   4.513  14.331  0.6146 -2.3720  0.6801
14885TIP3    H266147   1.016   4.476  14.475 -2.1875  0.8753  1.1573
14886TIP3   OH266148   1.926   2.281   3.956  0.4521 -0.2326 -0.0189
14886TIP3    H166149   1.923   2.185   3.952  1.2258 -0.3766  1.8762
14886TIP3    H266150   1.904   2.309   3.867 -0.8834 -2.1312 -0.3619
14887TIP3   OH266151   3.692   0.702   3.885 -0.0764  0.8587 -0.0046
14887TIP3    H166152   3.752   0.633   3.859  0.2345  0.8203  0.8057
14887TIP3    H266153   3.725   0.734   3.968  0.2819  2.5745 -0.7498
14888TIP3   OH266154   1.832   2.275  10.816  0.2175 -0.3284  0.3120
14888TIP3    H166155   1.762   2.247  10.756  1.2013 -0.7387 -0.6903
14888TIP3    H266156   1.828   2.213  10.888  0.9688 -1.7729 -0.8375
14889TIP3   OH266157   4.326   6.297  12.831 -0.1092  0.0140 -0.0025
14889TIP3    H166158   4.404   6.323  12.881  1.6530 -0.6401 -2.2311
14889TIP3    H266159   4.332   6.347  12.750 -2.3118  0.2824 -0.0627
14890TIP3   OH266160   4.405   1.310  12.662 -0.0290  0.5809  0.0944
14890TIP3    H166161   4.483   1.312  12.607  0.7841 -0.5255  1.1662
14890TIP3    H266162   4.430   1.354  12.743 -0.4062 -0.0642  0.5744
14891TIP3   OH266163   4.584   4.952   2.880  0.1562 -0.3040  0.0317
14891TIP3    H166164   4.516   4.906   2.831  0.1825  0.2362 -0.5118
14891TIP3    H266165   4.638   4.881   2.918 -0.2517 -0.7246 -0.1660
14892TIP3   OH266166   3.197   3.405   6.112 -0.2587  0.3881  0.4451
14892TIP3    H166167   3.212   3.482   6.167  2.2667 -0.3774  0.9584
14892TIP3    H266168   3.283   3.364   6.105 -0.8751 -0.6451 -2.4610
14893TIP3   OH266169   2.199   4.447  14.640 -0.0979 -0.0932  0.0208
14893TIP3    H166170   2.117   4.487  14.669 -0.8001 -1.6083  0.2260
14893TIP3    H266171   2.253   4.445  14.719  0.4087  1.4708 -0.2521
14894TIP3   OH266172   0.801   2.327   5.489 -0.1358 -0.2426  0.4517
14894TIP3    H166173   0.838   2.303   5.404 -0.7808 -0.6824  0.2859
14894TIP3    H266174   0.865   2.386   5.528 -0.5239  1.1657 -0.9765
14895TIP3   OH266175   4.524   0.103  11.163  0.1532  0.2627 -0.0768
14895TIP3    H166176   4.497   0.103  11.070 -2.4600 -0.6553  0.5754
14895TIP3    H266177   4.530   0.195  11.186 -0.7943  0.5231 -0.7832
14896TIP3   OH266178   5.618   6.675   5.351 -0.4885 -0.2467 -1.1125
14896TIP3    H166179   5.682   6.745   5.365  0.7477 -1.2966 -1.3210
14896TIP3    H266180   5.619   6.624   5.432 -0.8171 -0.4749 -1.2464
14897TIP3   OH266181   5.284   0.721  15.964  0.2463 -0.3372 -0.1438
14897TIP3    H166182   5.341   0.674  16.024  2.0439  1.1326 -0.5755
14897TIP3    H266183   5.297   0.677  15.880  0.3074 -0.3667 -0.1199
14898TIP3   OH266184   4.920   1.281  14.130 -0.1200 -0.0429 -0.3454
14898TIP3    H166185   4.921   1.348  14.198  0.0811  0.7151 -1.0737
14898TIP3    H266186   4.997   1.226  14.149 -0.3871 -0.1847  0.3569
14899TIP3   OH266187   4.226   1.446  16.512 -0.1188  0.1033 -0.7211
14899TIP3    H166188   4.239   1.486  16.598 -2.4307  1.2573 -0.8267
14899TIP3    H266189   4.182   1.514  16.461  1.0558 -0.6179 -2.8004
14900TIP3   OH266190   1.560   5.170   0.660  0.1756  0.1389  0.5331
14900TIP3    H166191   1.553   5.226   0.738  0.6661  1.0721 -0.0630
14900TIP3    H266192   1.470   5.161   0.629  0.0324  0.1792  0.9325
14901TIP3   OH266193   3.066   2.401  11.924 -0.1607  0.5218  0.4563
14901TIP3    H166194   3.074   2.424  11.831 -0.6882  1.5659  0.6620
14901TIP3    H266195   3.156   2.404  11.957  0.0168  0.2507  0.0088
14902TIP3   OH266196   1.109   2.104  13.147  0.1912 -0.1324  0.3043
14902TIP3    H166197   1.121   2.063  13.062 -1.0747  0.4826 -0.2056
14902TIP3    H266198   1.190   2.153  13.162  1.0004 -1.3695  0.1267
14903TIP3   OH266199   1.183   5.630  16.274  0.4830 -0.0126 -0.0089
14903TIP3    H166200   1.164   5.613  16.182  0.0664  0.3140  0.0099
14903TIP3    H266201   1.156   5.721  16.288 -2.7287 -1.0062  1.2252
14904TIP3   OH266202   0.494   2.808  11.296  0.0365 -0.3269  0.2935
14904TIP3    H166203   0.525   2.898  11.307 -1.5249  0.0547  2.1141
14904TIP3    H266204   0.454   2.807  11.209  0.0151  0.7556  0.2812
14905TIP3   OH266205   5.928   0.668   1.278  0.1767  0.6330 -0.0452
14905TIP3    H166206   5.903   0.581   1.308  1.4895  0.0287 -0.6436
14905TIP3    H266207   6.023   0.664   1.268  0.1572  1.8571 -0.9607
14906TIP3   OH266208   2.828   5.963  12.819 -0.1332 -0.2017  0.3119
14906TIP3    H166209   2.797   5.976  12.729 -0.8927  0.5934  0.6814
14906TIP3    H266210   2.782   5.885  12.849  0.2446 -0.5661 -0.0361
14907TIP3   OH266211   3.527   1.209   0.927 -0.0680 -0.0518  0.4447
14907TIP3    H166212   3.465   1.273   0.894  0.3877  0.1804  0.0189
14907TIP3    H266213   3.519   1.134   0.868 -0.3175 -0.2294  0.7036
14908TIP3   OH266214   3.694   6.210  16.489 -0.1389  0.0474 -0.0013
14908TIP3    H166215   3.728   6.295  16.464  0.1330  0.1398  0.6531
14908TIP3    H266216   3.619   6.195  16.431  1.0019 -0.1607 -1.4623
14909TIP3   OH266217   5.673   6.742  11.081 -0.3032 -0.5869 -0.0775
14909TIP3    H166218   5.669   6.833  11.052 -1.6196 -0.2591  1.0102
14909TIP3    H266219   5.592   6.703  11.050  0.5222 -1.5840 -1.0609
14910TIP3   OH266220   3.102   0.475   3.403  0.0736  0.4517 -0.0943
14910TIP3    H166221   3.051   0.416   3.347 -0.5050  0.2445  0.6390
14910TIP3    H266222   3.065   0.562   3.386  0.6936  0.5726 -0.9108
14911TIP3   OH266223   1.289   2.603  10.414 -0.1073 -0.5070 -0.0260
14911TIP3    H166224   1.215   2.638  10.363 -1.7806 -1.3700  1.6686
14911TIP3    H266225   1.334   2.544  10.354  1.6259  2.8047 -2.3509
14912TIP3   OH266226   0.122   2.316   1.943  1.0279  0.1645 -0.4327
14912TIP3    H166227   0.130   2.308   2.038 -0.1404  1.1756 -0.2260
14912TIP3    H266228   0.176   2.391   1.921 -1.9175  2.5858  0.0421
14913TIP3   OH266229   5.863   0.894   0.972  0.1601 -0.3739  0.0677
14913TIP3    H166230   5.870   0.798   0.971  1.8217 -0.2984  1.0460
14913TIP3    H266231   5.938   0.924   0.920 -0.4560  0.4212 -0.3979
14914TIP3   OH266232   6.119   6.595   5.366 -1.1407 -0.1053  0.0985
14914TIP3    H166233   6.078   6.610   5.281 -1.0762 -2.1183 -0.3382
14914TIP3    H266234   6.212   6.586   5.347 -1.2477 -1.7144  0.1665
14915TIP3   OH266235   4.017   6.304  15.672 -0.3092 -0.6921 -0.1309
14915TIP3    H166236   3.926   6.330  15.659  0.4165  2.2633 -0.0295
14915TIP3    H266237   4.052   6.295  15.583  0.1767  1.9294 -0.2789
14916TIP3   OH266238   0.870   4.757  15.854  0.2339 -0.3546 -0.0277
14916TIP3    H166239   0.792   4.812  15.847  0.2248 -0.3451  0.1483
14916TIP3    H266240   0.941   4.811  15.819  0.0928 -0.5111 -0.5693
14917TIP3   OH266241   4.955   6.372  15.626 -0.1915  0.3156  0.0294
14917TIP3    H166242   4.951   6.448  15.568 -0.3316 -0.1899 -0.6435
14917TIP3    H266243   5.048   6.366  15.651  0.1946 -0.3922 -1.4490
14918TIP3   OH266244   2.422   3.118  13.524  0.5448  0.4218  0.1619
14918TIP3    H166245   2.423   3.192  13.585 -2.4483 -0.7330  1.8774
14918TIP3    H266246   2.458   3.045  13.574 -0.6175 -0.2237  0.0970
14919TIP3   OH266247   1.453   2.359  15.448 -0.1088 -0.0371 -0.2751
14919TIP3    H166248   1.410   2.444  15.434  0.6377  0.4520  0.3181
14919TIP3    H266249   1.526   2.379  15.505 -0.6184 -1.2855  0.8523
14920TIP3   OH266250   0.187   3.128  11.192 -0.1921 -0.6759  0.1738
14920TIP3    H166251   0.204   3.076  11.270 -0.0418  2.0093  2.0545
14920TIP3    H266252   0.273   3.145  11.154  0.2513  1.5832  1.9746
14921TIP3   OH266253   0.102   4.608   0.727  0.1653  0.0620 -0.1847
14921TIP3    H166254   0.145   4.692   0.707 -1.1910  0.9832  0.5753
14921TIP3    H266255   0.066   4.579   0.643  0.3252  0.4362 -0.3843
14922TIP3   OH266256   2.238   0.515   1.609 -0.1251  0.0791  0.0527
14922TIP3    H166257   2.282   0.445   1.657 -1.5524 -0.5917  0.4466
14922TIP3    H266258   2.265   0.501   1.518 -0.1521 -0.8208  0.1680
14923TIP3   OH266259   3.413   5.411  14.906  0.4725  0.5425 -0.0715
14923TIP3    H166260   3.468   5.366  14.842  0.2131 -0.2519  0.2423
14923TIP3    H266261   3.340   5.351  14.920 -0.6945  1.7534 -0.7798
14924TIP3   OH266262   5.549   0.817   2.128 -0.4572 -0.3539 -0.8808
14924TIP3    H166263   5.620   0.781   2.181 -2.3169  0.3025  2.3724
14924TIP3    H266264   5.562   0.912   2.133 -1.1631 -0.2545 -0.7695
14925TIP3   OH266265   2.093   3.353   4.716  0.4037 -0.1572 -0.0970
14925TIP3    H166266   2.013   3.359   4.769  0.3806  3.1655 -0.3183
14925TIP3    H266267   2.062   3.327   4.630 -0.3135  0.0269  0.0931
14926TIP3   OH266268   2.541   4.179  13.064 -0.1538  0.2636  0.1581
14926TIP3    H166269   2.468   4.119  13.052  0.5960 -0.6639  0.0668
14926TIP3    H266270   2.605   4.129  13.114  0.4406  1.0342  0.1920
14927TIP3   OH266271   2.020   2.270   5.146 -0.9382 -0.2870  1.2329
14927TIP3    H166272   2.058   2.191   5.184  1.3392 -0.2083 -0.6495
14927TIP3    H266273   2.083   2.339   5.167  0.2469 -0.1636 -2.0635
14928TIP3   OH266274   5.214   5.497   2.331 -0.5476 -0.3022 -0.4884
14928TIP3    H166275   5.203   5.592   2.319  0.4650 -0.0705  0.3110
14928TIP3    H266276   5.206   5.461   2.243 -2.5333  0.3349 -0.6241
14929TIP3   OH266277   4.452   5.555  12.716 -0.1102 -0.1627  0.5941
14929TIP3    H166278   4.415   5.551  12.805  2.0946  0.1261  1.5723
14929TIP3    H266279   4.535   5.508  12.722  0.1316 -0.0710 -1.3307
14930TIP3   OH266280   4.385   6.087  14.910 -0.2311 -0.2452 -0.9604
14930TIP3    H166281   4.377   6.076  15.005 -0.8354  1.9562 -0.6864
14930TIP3    H266282   4.367   6.001  14.874 -0.2530 -1.0805  0.9153
14931TIP3   OH266283   5.147   6.555   1.886 -0.1180 -0.3055  0.1407
14931TIP3    H166284   5.206   6.510   1.947 -1.5498 -0.1842  1.6955
14931TIP3    H266285   5.083   6.488   1.861 -1.6105  0.4926  1.6022
14932TIP3   OH266286   6.593   2.809  15.064 -1.0275 -0.0088  0.2259
14932TIP3    H166287   6.628   2.859  15.137  0.4833  0.2975 -0.6858
14932TIP3    H266288   6.545   2.737  15.106 -2.5604  1.6857  1.5328
14933TIP3   OH266289   0.205   0.162  12.568 -0.4822 -0.6282  0.0525
14933TIP3    H166290   0.187   0.255  12.580  0.3813 -0.4524  0.0342
14933TIP3    H266291   0.247   0.135  12.649 -0.2439 -0.8821 -0.1541
14934TIP3   OH266292   0.230   2.521  12.319 -0.0053 -0.2072 -0.4003
14934TIP3    H166293   0.231   2.517  12.224 -0.7175 -1.5933 -0.3669
14934TIP3    H266294   0.150   2.476  12.345 -0.4439  1.1677  0.8309
14935TIP3   OH266295   4.304   5.727  13.267 -0.3044  0.1170 -0.6928
14935TIP3    H166296   4.342   5.698  13.350 -0.5834 -0.6531 -0.8179
14935TIP3    H266297   4.376   5.724  13.205 -0.4700 -1.0296 -0.8590
14936TIP3   OH266298   1.744   0.048  12.282  0.5002  0.2847 -0.8270
14936TIP3    H166299   1.840   0.039  12.282  0.3826 -1.2040 -0.4764
14936TIP3    H266300   1.724   0.085  12.368  0.5385 -2.7274  0.5734
14937TIP3   OH266301   6.341   2.612  16.876  0.3265  0.2117  0.1853
14937TIP3    H166302   6.396   2.684  16.845  1.3175 -1.4082 -2.1482
14937TIP3    H266303   6.317   2.564  16.797 -4.2488  0.5468  1.1033
14938TIP3   OH266304   5.990   1.711   4.940 -0.3778  0.3947 -0.3138
14938TIP3    H166305   6.011   1.674   4.854  1.2520  0.9801 -0.1954
14938TIP3    H266306   5.895   1.699   4.948 -0.4263 -0.5292 -1.7778
14939TIP3   OH266307   1.437   2.199  12.116 -0.4961  0.3053  0.3356
14939TIP3    H166308   1.365   2.176  12.058 -0.7653 -0.4419  0.9510
14939TIP3    H266309   1.499   2.246  12.060 -1.4493  0.9527 -0.1947
14940TIP3   OH266310   1.554   5.406   4.402 -0.4567  0.3557 -0.1854
14940TIP3    H166311   1.539   5.332   4.460  1.7711 -0.7461 -0.8768
14940TIP3    H266312   1.510   5.382   4.320  0.9583 -0.6834 -0.6906
14941TIP3   OH266313   3.425   6.468   4.354 -0.3847 -0.1954 -0.2453
14941TIP3    H166314   3.418   6.380   4.390 -0.5488  0.3059  0.9979
14941TIP3    H266315   3.431   6.455   4.259 -1.2755 -1.4925 -0.1499
14942TIP3   OH266316   0.144   5.746   0.208  0.2701  0.3443  0.1699
14942TIP3    H166317   0.207   5.809   0.174 -0.7270  0.5789 -1.3409
14942TIP3    H266318   0.197   5.684   0.259  1.6821  0.6665 -0.8495
14943TIP3   OH266319   2.908   4.510   0.320  0.3377 -0.2201 -0.8202
14943TIP3    H166320   2.974   4.451   0.284  2.8659  1.1359  1.2089
14943TIP3    H266321   2.917   4.500   0.415 -0.6286  1.8449 -0.4572
14944TIP3   OH266322   5.946   1.035  14.012  0.3308 -0.0040  0.2259
14944TIP3    H166323   5.937   0.984  14.093 -0.1604  1.9307  1.4501
14944TIP3    H266324   6.040   1.040  13.998  0.4194 -3.0857 -1.2297
14945TIP3   OH266325   0.729   3.986  13.725 -0.4300  0.3592 -0.1226
14945TIP3    H166326   0.748   4.058  13.785 -2.2016  0.9956 -0.2881
14945TIP3    H266327   0.699   4.029  13.645  0.8011 -0.5152 -1.1085
14946TIP3   OH266328   0.673   4.833   3.587  0.0828 -0.2804 -0.1401
14946TIP3    H166329   0.579   4.844   3.578 -0.1814 -1.6010  0.7860
14946TIP3    H266330   0.685   4.796   3.674  1.4406 -0.4509 -0.3762
14947TIP3   OH266331   5.786   0.620   0.644 -0.2314 -0.1020 -0.1301
14947TIP3    H166332   5.761   0.682   0.576 -1.0431 -1.4981 -1.1556
14947TIP3    H266333   5.823   0.545   0.597  1.1557 -0.2346  1.0926
14948TIP3   OH266334   4.846   5.412  15.476  0.8334  0.2134 -0.3427
14948TIP3    H166335   4.816   5.499  15.504 -0.6437  0.0300 -1.2251
14948TIP3    H266336   4.927   5.398  15.524  1.0484  2.0358 -0.0946
14949TIP3   OH266337   2.945   6.796   4.518 -0.8715 -0.2274 -0.3701
14949TIP3    H166338   2.854   6.823   4.504 -0.8581 -0.4441 -0.8936
14949TIP3    H266339   2.939   6.724   4.581 -0.9169  0.8654  0.9308
14950TIP3   OH266340   1.300   3.235  16.036  0.0814  0.1448  0.5490
14950TIP3    H166341   1.375   3.260  16.091  0.9461  0.0471 -0.5633
14950TIP3    H266342   1.233   3.300  16.057  0.9611  1.0817  0.5522
14951TIP3   OH266343   2.926   3.556  15.962  0.0324  0.3763 -0.1193
14951TIP3    H166344   3.010   3.600  15.979  0.2170 -0.0662  0.1457
14951TIP3    H266345   2.865   3.627  15.943  0.4480  0.7105 -0.2336
14952TIP3   OH266346   2.782   4.741   0.523 -0.6394  0.2509  0.2129
14952TIP3    H166347   2.739   4.744   0.437  0.4121 -1.7252 -0.4513
14952TIP3    H266348   2.876   4.741   0.503 -0.3656  0.6770  1.4187
14953TIP3   OH266349   4.705   0.050   3.723 -0.4476 -0.4021  0.0051
14953TIP3    H166350   4.644   0.104   3.672  0.7807 -0.7024 -1.8573
14953TIP3    H266351   4.782   0.105   3.735 -0.2519 -0.7732  0.5327
14954TIP3   OH266352   3.078   4.448  13.453 -0.1685 -0.0638  0.2141
14954TIP3    H166353   3.014   4.485  13.514 -0.7413  1.0926 -1.0267
14954TIP3    H266354   3.155   4.504  13.463  0.7343 -1.4804  1.7391
14955TIP3   OH266355   0.384   4.530  11.825 -0.4492  0.5714 -0.2480
14955TIP3    H166356   0.296   4.516  11.791  0.8052 -2.9828 -2.6046
14955TIP3    H266357   0.395   4.462  11.892  1.2444 -0.8686 -1.8656
14956TIP3   OH266358   5.566   4.179  14.428 -0.2534  0.0554 -0.1389
14956TIP3    H166359   5.627   4.191  14.501 -0.2528  1.4686 -0.3570
14956TIP3    H266360   5.598   4.100  14.383 -0.4916 -1.0879  1.5921
14957TIP3   OH266361   6.270   1.186  13.550 -0.5086 -0.0266  0.0447
14957TIP3    H166362   6.342   1.208  13.491  1.4169 -1.0755  1.8841
14957TIP3    H266363   6.245   1.270  13.588 -0.1319  0.3217 -0.4540
14958TIP3   OH266364   5.284   2.021  16.544  0.1953 -0.2506  0.3215
14958TIP3    H166365   5.210   2.014  16.603  0.6692  0.8220  1.0804
14958TIP3    H266366   5.341   1.948  16.567  0.8757  0.7333  1.9660
14959TIP3   OH266367   3.384   2.030  14.121 -0.0440 -0.0700  0.7127
14959TIP3    H166368   3.449   2.089  14.159 -0.0037 -0.5065  1.3479
14959TIP3    H266369   3.405   2.028  14.028  0.0701  0.7642  0.7144
14960TIP3   OH266370   2.809   3.477   6.261 -0.2822  0.1796 -0.3353
14960TIP3    H166371   2.719   3.504   6.280  0.2481  2.2092 -0.4697
14960TIP3    H266372   2.799   3.398   6.208 -1.9638  0.0333  0.1207
14961TIP3   OH266373   6.014   0.473  12.824 -0.0760  0.0080 -0.4596
14961TIP3    H166374   6.016   0.535  12.897 -2.1149 -0.1030 -0.2469
14961TIP3    H266375   6.099   0.430  12.826  1.4363  2.7856 -0.6260
14962TIP3   OH266376   6.661   5.914   6.317 -0.3982 -0.0972  0.3487
14962TIP3    H166377   6.727   5.872   6.372 -0.1004 -1.0281 -0.6833
14962TIP3    H266378   6.581   5.911   6.370  0.3360  0.9914  1.5812
14963TIP3   OH266379   4.581   6.056  12.641  0.2701  0.0585  0.4920
14963TIP3    H166380   4.538   5.971  12.631 -1.5636  0.8347  1.2489
14963TIP3    H266381   4.668   6.043  12.605 -0.5454 -1.6419 -1.0491
14964TIP3   OH266382   1.784   5.398   5.690 -0.2814  0.9636 -0.6009
14964TIP3    H166383   1.701   5.368   5.726  0.7533  0.6840  1.7123
14964TIP3    H266384   1.822   5.321   5.649  0.6499 -0.0987  2.0136
14965TIP3   OH266385   4.785   3.323   3.346  0.4245  0.2032 -0.2293
14965TIP3    H166386   4.764   3.412   3.374  0.1945  0.5328 -1.3824
14965TIP3    H266387   4.705   3.273   3.363  0.0064  0.5819 -1.0077
14966TIP3   OH266388   0.090   1.431  16.604 -0.0944 -0.8911  0.0432
14966TIP3    H166389   0.116   1.519  16.577 -1.5746 -0.4063  0.0606
14966TIP3    H266390   0.145   1.411  16.680  0.2024  0.0636  0.0889
14967TIP3   OH266391   3.243   2.683   0.090  0.1312  0.0291 -0.6671
14967TIP3    H166392   3.272   2.592   0.088  3.3899  0.9305 -0.4669
14967TIP3    H266393   3.214   2.697   0.181 -1.3356 -0.9934 -0.9443
14968TIP3   OH266394   4.670   0.398   6.353  0.0943 -0.4175  0.2493
14968TIP3    H166395   4.754   0.442   6.360  0.9844 -1.8968 -0.7290
14968TIP3    H266396   4.641   0.388   6.444 -0.1395  2.0628  0.5141
14969TIP3   OH266397   1.394   3.412   4.113 -0.3731  0.4659  0.6869
14969TIP3    H166398   1.408   3.505   4.132  0.6092  0.4939 -0.0677
14969TIP3    H266399   1.392   3.370   4.199 -1.6897  1.2705  1.0898
14970TIP3   OH266400   2.449   4.425   4.606  0.3142  0.5728 -0.4505
14970TIP3    H166401   2.452   4.476   4.686 -0.3637  0.8346 -0.5878
14970TIP3    H266402   2.534   4.441   4.564  0.1596  1.5019 -0.4327
14971TIP3   OH266403   6.709   4.168   1.572  0.1406  0.5692  0.6736
14971TIP3    H166404   6.696   4.143   1.481 -0.1446  0.6923  0.6795
14971TIP3    H266405   6.737   4.087   1.615 -1.5292  0.0332  0.8554
14972TIP3   OH266406   4.397   0.702  14.680  0.6996  0.6686 -0.1580
14972TIP3    H166407   4.458   0.705  14.754 -0.6229  2.9782  0.9315
14972TIP3    H266408   4.447   0.738  14.607  1.1516  1.0487  0.3286
14973TIP3   OH266409   0.369   4.394   2.460 -0.1569  0.3557  0.2095
14973TIP3    H166410   0.320   4.459   2.410  1.1564  0.5575 -0.8756
14973TIP3    H266411   0.422   4.446   2.521 -0.6457  0.1839  0.7863
14974TIP3   OH266412   0.165   2.641   3.853 -0.5097 -0.0360 -0.1288
14974TIP3    H166413   0.175   2.721   3.906  0.2066  0.4686 -0.9969
14974TIP3    H266414   0.193   2.571   3.912  2.6080  0.7468 -0.4782
14975TIP3   OH266415   0.855   4.917   6.558 -0.4214  0.5864  0.1203
14975TIP3    H166416   0.855   4.827   6.524  0.4802 -0.0509  1.7144
14975TIP3    H266417   0.767   4.950   6.538 -1.7820 -1.6513  1.9761
14976TIP3   OH266418   0.733   0.936  16.605  0.5420 -0.2783  0.1110
14976TIP3    H166419   0.828   0.923  16.601  1.1228  3.1740  0.2243
14976TIP3    H266420   0.705   0.935  16.513  1.0334  0.5922 -0.0605
14977TIP3   OH266421   1.131   2.426  13.266  0.5826  1.3056  0.3764
14977TIP3    H166422   1.087   2.467  13.191  1.2712  3.0940  0.9094
14977TIP3    H266423   1.079   2.451  13.342 -0.6844 -1.3060  0.5005
14978TIP3   OH266424   2.364   1.727  13.975  0.1319  0.2824 -0.2768
14978TIP3    H166425   2.436   1.675  14.010  0.7742  2.2956  1.5440
14978TIP3    H266426   2.391   1.748  13.886  0.4012 -1.4112 -0.6351
14979TIP3   OH266427   5.286   1.095   4.110  0.1816  0.7998  0.0065
14979TIP3    H166428   5.381   1.096   4.119  0.0436  1.6458  1.9625
14979TIP3    H266429   5.270   1.094   4.016  2.1129 -1.4667 -0.3880
14980TIP3   OH266430   6.346   3.559   3.813 -0.3214 -0.4170 -0.5402
14980TIP3    H166431   6.265   3.541   3.861 -0.4996  0.3906 -0.5254
14980TIP3    H266432   6.414   3.515   3.864 -0.3467  1.3124  1.0905
14981TIP3   OH266433   0.519   4.797  10.380  0.1626  0.0728  0.3267
14981TIP3    H166434   0.435   4.752  10.366  0.5677 -0.0917 -1.8350
14981TIP3    H266435   0.496   4.890  10.377 -0.3326  0.1050  2.6619
14982TIP3   OH266436   2.067   1.041   3.734  0.2294 -0.2594 -0.4760
14982TIP3    H166437   1.975   1.032   3.758 -0.1108  1.0344 -1.2168
14982TIP3    H266438   2.070   1.015   3.642  0.3515  0.9300 -0.8263
14983TIP3   OH266439   1.659   3.193  11.318 -0.0145  0.1667  0.8612
14983TIP3    H166440   1.595   3.224  11.382 -1.1261  0.1131 -0.1901
14983TIP3    H266441   1.615   3.121  11.273  0.7768  0.1440  0.0964
14984TIP3   OH266442   4.204   1.934   2.116  0.2032  0.0911  0.3025
14984TIP3    H166443   4.214   2.027   2.095  2.8296  0.2081  1.6631
14984TIP3    H266444   4.118   1.928   2.157 -0.3258  1.7825 -0.4760
14985TIP3   OH266445   2.112   0.006   3.046 -0.2728 -0.5368  0.1603
14985TIP3    H166446   2.075   0.044   3.125  0.3881 -0.7625  0.5926
14985TIP3    H266447   2.153   0.080   3.001  0.7707 -0.6608  0.8611
14986TIP3   OH266448   2.815   4.996  13.675  0.3855  0.2289 -0.9072
14986TIP3    H166449   2.888   5.058  13.674  0.9401 -0.4098 -1.4981
14986TIP3    H266450   2.830   4.942  13.752 -1.1971  2.0468  0.7896
14987TIP3   OH266451   1.107   6.523  11.774 -0.1811 -0.0444 -0.7545
14987TIP3    H166452   1.108   6.606  11.727 -1.0356  1.4621  1.7166
14987TIP3    H266453   1.187   6.524  11.826 -0.5218 -0.4602 -0.2141
14988TIP3   OH266454   3.782   4.831  12.219 -0.6282 -0.5380 -0.7272
14988TIP3    H166455   3.697   4.837  12.174 -0.4509 -0.5634 -1.0700
14988TIP3    H266456   3.775   4.894  12.291 -0.4934  0.3712 -1.4895
14989TIP3   OH266457   5.861   3.440  15.292 -0.0747  0.5612 -0.3157
14989TIP3    H166458   5.878   3.520  15.341  0.0007  1.2610 -1.4372
14989TIP3    H266459   5.803   3.389  15.348  0.9621  0.7763  1.0022
14990TIP3   OH266460   1.440   0.179  13.514  0.1024  0.6267 -0.1678
14990TIP3    H166461   1.433   0.111  13.447  2.0140  0.0209  0.1735
14990TIP3    H266462   1.438   0.130  13.597  0.2338  1.1130  0.1243
14991TIP3   OH266463   2.071   4.578   5.622  0.4102 -0.4160 -0.1270
14991TIP3    H166464   2.126   4.532   5.559  1.6642 -3.2550  2.7451
14991TIP3    H266465   2.016   4.509   5.660 -2.1786  1.6287  0.0990
14992TIP3   OH266466   5.656   5.752   3.949  0.3434 -0.1941  0.0096
14992TIP3    H166467   5.731   5.773   4.004 -0.2222 -0.5052  0.9181
14992TIP3    H266468   5.581   5.792   3.993 -0.1396 -0.5478 -0.4678
14993TIP3   OH266469   6.425   6.299   0.376 -0.3725  0.3717 -0.1481
14993TIP3    H166470   6.458   6.387   0.392  0.9176 -0.2078  0.5155
14993TIP3    H266471   6.342   6.295   0.424  0.1379  0.8514  0.8096
14994TIP3   OH266472   2.692   0.224  12.334  0.4011 -0.6199  0.0765
14994TIP3    H166473   2.632   0.233  12.408  0.7106 -0.3634  0.2976
14994TIP3    H266474   2.635   0.235  12.257  0.4584  1.7718  0.3000
14995TIP3   OH266475   3.487   3.490  12.279 -0.8362  0.2973  0.1441
14995TIP3    H166476   3.483   3.440  12.361  1.0191  1.0433  0.7617
14995TIP3    H266477   3.423   3.560  12.290 -1.7888 -0.5811  0.2535
14996TIP3   OH266478   0.015   0.924  12.321  0.0852  0.4981 -0.4117
14996TIP3    H166479  -0.077   0.900  12.314  0.4425 -1.0305 -0.1265
14996TIP3    H266480   0.018   0.987  12.393 -0.8304  1.1861 -0.9549
14997TIP3   OH266481   4.234   2.987   0.572  0.2969 -0.1837 -0.0311
14997TIP3    H166482   4.279   2.969   0.655  0.0493  3.1922  0.9822
14997TIP3    H266483   4.143   2.966   0.589  0.3349 -0.0106  0.4211
14998TIP3   OH266484   3.269   3.868  15.477 -0.1670  0.2834 -0.2347
14998TIP3    H166485   3.238   3.855  15.567  0.6963 -0.9253 -0.0867
14998TIP3    H266486   3.199   3.833  15.422 -0.3185  0.2392 -0.0160
14999TIP3   OH266487   6.054   6.709  11.893 -0.2814 -0.0801  0.5880
14999TIP3    H166488   6.085   6.721  11.983 -1.0117  0.2299  0.8010
14999TIP3    H266489   6.062   6.615  11.877  2.2603  0.1446  0.0911
15000TIP3   OH266490   4.166   6.201   2.535  0.4402 -0.4452 -0.7431
15000TIP3    H166491   4.141   6.122   2.488 -1.0580 -0.8115  0.5492
15000TIP3    H266492   4.109   6.269   2.500 -0.9594 -0.8024  0.6998
15001TIP3   OH266493   0.575   6.246  14.089 -0.2375  0.1857  0.3030
15001TIP3    H166494   0.511   6.317  14.082 -1.1369 -0.6026  0.3052
15001TIP3    H266495   0.569   6.200  14.005  0.3354  0.1049  0.3031
15002TIP3   OH266496   4.028   3.589  11.540 -0.6553 -0.3522  0.3405
15002TIP3    H166497   4.009   3.551  11.454 -3.1606  0.4387  0.4719
15002TIP3    H266498   4.122   3.608  11.537 -0.2502 -2.2397 -1.4174
15003TIP3   OH266499   4.946   5.635  13.784 -0.2035 -0.7669 -0.2629
15003TIP3    H166500   4.967   5.666  13.872 -1.1041  0.4668 -0.4409
15003TIP3    H266501   4.981   5.703  13.726 -1.4699 -0.4714 -0.7224
15004TIP3   OH266502   1.545   5.066   2.876  0.1710  0.4115  0.4181
15004TIP3    H166503   1.462   5.052   2.831  0.2684  1.0573  0.0191
15004TIP3    H266504   1.532   5.027   2.963 -0.2883 -0.1417  0.1048
15005TIP3   OH266505   6.295   3.495  16.479  0.3749 -0.4749 -0.1612
15005TIP3    H166506   6.334   3.408  16.465  1.2776 -0.6357  2.6626
15005TIP3    H266507   6.293   3.505  16.574 -2.8041  1.2680 -0.2702
15006TIP3   OH266508   4.996   3.121   4.395 -0.3661 -0.1069 -0.3197
15006TIP3    H166509   5.074   3.065   4.399  0.6043  1.2540  0.3532
15006TIP3    H266510   5.023   3.196   4.343 -1.5906 -0.1163 -1.0141
15007TIP3   OH266511   3.699   2.795  13.018 -0.1499  0.3766 -0.4208
15007TIP3    H166512   3.631   2.766  12.959  0.4445 -1.2212 -0.3766
15007TIP3    H266513   3.674   2.760  13.104  0.8940 -0.5989 -0.4807
15008TIP3   OH266514   5.079   3.813   1.757 -0.3499 -0.3043 -0.4087
15008TIP3    H166515   5.021   3.737   1.767 -2.7530  1.3810 -0.6197
15008TIP3    H266516   5.087   3.825   1.662  1.2925 -1.1386 -0.4097
15009TIP3   OH266517   1.834   1.611  13.912  0.2385 -0.1210  0.4446
15009TIP3    H166518   1.819   1.595  13.819  1.4185 -0.4775  0.3018
15009TIP3    H266519   1.929   1.604  13.923  0.1152 -0.1006  1.6801
15010TIP3   OH266520   5.901   3.141  14.733  0.3598 -0.2703  0.4706
15010TIP3    H166521   5.886   3.061  14.782 -0.1511 -0.7958 -0.5163
15010TIP3    H266522   5.980   3.124  14.681 -0.3930 -0.5928 -0.6140
15011TIP3   OH266523   1.104   6.193   3.853  0.4950  0.0070  0.1915
15011TIP3    H166524   1.083   6.281   3.883 -0.8490 -0.2921  0.1864
15011TIP3    H266525   1.048   6.135   3.905 -0.7285 -0.6258 -1.7140
15012TIP3   OH266526   1.690   0.974  17.100  0.0227 -0.1336 -0.2447
15012TIP3    H166527   1.636   1.053  17.106 -0.2195 -0.3592  0.7213
15012TIP3    H266528   1.758   0.996  17.037  0.1233  0.9544  0.2234
15013TIP3   OH266529   5.293   6.003   4.722 -0.6294 -0.3689  0.3815
15013TIP3    H166530   5.263   5.917   4.753 -1.5924  0.0757  0.6953
15013TIP3    H266531   5.318   6.050   4.802  0.3798 -0.5131  0.1742
15014TIP3   OH266532   5.402   0.048   3.449  0.2982 -0.5456  0.0961
15014TIP3    H166533   5.414  -0.038   3.490  3.9380  0.2096  0.9572
15014TIP3    H266534   5.425   0.110   3.518  0.5242  1.0150 -1.3307
15015TIP3   OH266535   3.925   0.678  14.179 -0.3666  0.6682  0.0070
15015TIP3    H166536   3.842   0.697  14.222 -1.0239 -0.9093 -0.5109
15015TIP3    H266537   3.905   0.608  14.117  1.2221  0.6913 -0.5780
15016TIP3   OH266538   5.765   4.339  16.722  0.1000  0.2775 -0.7176
15016TIP3    H166539   5.788   4.255  16.682 -0.4708  0.0630 -0.6130
15016TIP3    H266540   5.825   4.349  16.795 -0.3974 -0.4588 -0.2037
15017TIP3   OH266541   0.759   4.562  11.956  0.2463 -0.4711  0.1796
15017TIP3    H166542   0.840   4.550  12.005 -0.0413 -0.4487  0.6746
15017TIP3    H266543   0.784   4.556  11.864  1.3237  2.3505  0.1806
15018TIP3   OH266544   4.948   4.751   5.567 -0.1520  0.3161 -0.2520
15018TIP3    H166545   4.864   4.710   5.588 -0.6438  1.0193 -0.7899
15018TIP3    H266546   4.939   4.777   5.475  0.7626  0.1492 -0.3965
15019TIP3   OH266547   3.410   5.399  11.377  0.2316 -0.3740  0.2256
15019TIP3    H166548   3.495   5.358  11.359  0.9448  0.9788  0.4117
15019TIP3    H266549   3.399   5.463  11.307  0.5092  1.1489  1.5164
15020TIP3   OH266550   4.914   1.475  12.320  0.1219 -0.5508  0.5392
15020TIP3    H166551   4.911   1.539  12.250 -1.2191  0.1575  1.2179
15020TIP3    H266552   4.869   1.398  12.285 -1.0231 -0.0078  0.7998
15021TIP3   OH266553   2.353   5.277  14.317  0.5553  0.2800 -0.9450
15021TIP3    H166554   2.316   5.289  14.404  0.1978 -0.0712 -1.0489
15021TIP3    H266555   2.416   5.349  14.307  0.2127  0.6244 -0.6054
15022TIP3   OH266556   0.253   6.438  11.935 -0.1231  0.0516  0.2476
15022TIP3    H166557   0.218   6.376  11.998 -0.7027 -0.7043 -0.7878
15022TIP3    H266558   0.303   6.385  11.873  2.2758  1.0134  1.2332
15023TIP3   OH266559   2.513   3.232  15.927  0.0197  0.2264 -0.5155
15023TIP3    H166560   2.540   3.323  15.914 -0.6293  0.3706 -0.9351
15023TIP3    H266561   2.561   3.203  16.004  1.4237  0.4343 -1.2743
15024TIP3   OH266562   6.524   2.565  16.448  0.5076 -0.1163  0.2521
15024TIP3    H166563   6.595   2.597  16.502  1.5539 -2.4896  0.3921
15024TIP3    H266564   6.544   2.597  16.360  1.3789 -0.1885  0.4212
15025TIP3   OH266565   0.068   5.057   4.153 -0.2885 -0.1683 -0.0607
15025TIP3    H166566   0.012   5.134   4.136 -1.5202 -0.6278  1.6684
15025TIP3    H266567   0.128   5.086   4.221  0.5870 -0.1654 -0.8141
15026TIP3   OH266568   1.256   5.953  12.041 -0.0432  0.4932  0.5303
15026TIP3    H166569   1.226   5.921  11.956 -0.9088  0.8112  0.7084
15026TIP3    H266570   1.348   5.927  12.045  0.2158  1.0928 -0.8109
15027TIP3   OH266571   2.373   2.906   0.248  0.1042 -0.2399 -0.0931
15027TIP3    H166572   2.445   2.874   0.303 -0.6878  0.9216  1.7332
15027TIP3    H266573   2.303   2.841   0.260 -0.5934  0.7386  1.5603
15028TIP3   OH266574   1.958   0.570  15.730  0.7911 -0.1679  0.0823
15028TIP3    H166575   1.994   0.481  15.731  0.4831 -0.2862  0.9762
15028TIP3    H266576   1.937   0.589  15.821  0.9247  0.8560 -0.0850
15029TIP3   OH266577   2.570   4.667   3.721 -0.6247  0.3784  0.2157
15029TIP3    H166578   2.652   4.638   3.680  0.2915 -0.5886  2.5276
15029TIP3    H266579   2.538   4.737   3.664  1.9284  0.9284 -0.6837
15030TIP3   OH266580   0.029   5.663  14.771  0.2966  0.0488  0.5708
15030TIP3    H166581   0.096   5.730  14.779  1.0009 -0.5466 -0.1333
15030TIP3    H266582   0.041   5.608  14.849  1.0526 -0.4117  0.1465
15031TIP3   OH266583   2.557   2.504   0.415  0.5200  0.3044 -0.9916
15031TIP3    H166584   2.488   2.491   0.480  2.1428 -3.0954  0.2801
15031TIP3    H266585   2.620   2.561   0.458 -1.2324  3.3722 -2.1341
15032TIP3   OH266586   0.105   2.534   4.792 -0.4334 -0.4045  0.1578
15032TIP3    H166587   0.062   2.587   4.860 -2.7947 -1.2371 -0.5760
15032TIP3    H266588   0.033   2.509   4.733  1.1882 -1.5353 -1.4299
15033TIP3   OH266589   5.358   1.528   1.280 -0.3449 -0.4939 -0.6564
15033TIP3    H166590   5.281   1.554   1.230 -1.4079 -1.1499  0.5957
15033TIP3    H266591   5.350   1.575   1.363  0.3751 -0.9047 -0.3421
15034TIP3   OH266592   4.935   1.280  16.936  0.0690 -0.7869 -0.3559
15034TIP3    H166593   4.845   1.308  16.920 -0.0130 -1.4217 -1.0560
15034TIP3    H266594   4.980   1.295  16.854  0.6533 -0.3095  0.0468
15035TIP3   OH266595   0.512   4.876  16.204 -0.3788 -0.6368  0.1537
15035TIP3    H166596   0.470   4.904  16.286  0.2424  0.9432 -0.0122
15035TIP3    H266597   0.441   4.866  16.142 -0.7625 -0.8346  0.6196
15036TIP3   OH266598   2.122   5.882  12.318 -0.0390  0.1801 -0.3326
15036TIP3    H166599   2.086   5.880  12.229  0.0938  0.9989 -0.4167
15036TIP3    H266600   2.049   5.858  12.375 -0.4736  0.9127 -0.5740
15037TIP3   OH266601   3.057   5.803  15.710 -0.4836 -0.0663  0.6995
15037TIP3    H166602   2.994   5.875  15.721 -0.1421  0.4506 -0.6007
15037TIP3    H266603   3.002   5.726  15.699 -0.9089  0.3095  0.0707
15038TIP3   OH266604   2.049   1.377  13.267  0.1631 -0.0335 -0.2588
15038TIP3    H166605   2.140   1.369  13.293 -0.0816  1.4412  1.2010
15038TIP3    H266606   2.051   1.376  13.171  1.6509 -0.3417 -0.2460
15039TIP3   OH266607   4.035   2.225  16.398 -0.0345  0.0202 -0.0781
15039TIP3    H166608   3.980   2.276  16.458  1.1370 -0.1629  1.2079
15039TIP3    H266609   4.119   2.271  16.398  0.6047 -1.1050  0.0061
15040TIP3   OH266610   5.642   3.211  14.211  0.1332  0.1523 -0.0963
15040TIP3    H166611   5.617   3.127  14.250  0.5256  0.4936  0.9295
15040TIP3    H266612   5.563   3.265  14.217  0.2739  0.3025  0.5411
15041TIP3   OH266613   0.371   2.014  12.217 -0.2131  0.2171 -0.5606
15041TIP3    H166614   0.332   2.101  12.214 -1.0929 -0.0935  0.7776
15041TIP3    H266615   0.401   1.998  12.128 -0.7323  1.5736 -1.0081
15042TIP3   OH266616   0.949   3.208   3.810  0.3413  0.2841 -0.0477
15042TIP3    H166617   0.939   3.261   3.731  1.1257 -0.8811 -0.9611
15042TIP3    H266618   0.895   3.131   3.794 -0.2439  0.4617  0.9779
15043TIP3   OH266619   2.812   6.420  14.114  0.0570 -0.2968  0.5809
15043TIP3    H166620   2.799   6.506  14.074  0.0892 -0.3009  0.5621
15043TIP3    H266621   2.889   6.431  14.170  0.3622 -0.4488  0.1937
15044TIP3   OH266622   5.811   4.780  11.900  0.2614 -0.5196  0.2771
15044TIP3    H166623   5.753   4.855  11.912  0.4080 -0.2567 -0.6434
15044TIP3    H266624   5.843   4.761  11.989  2.1740  2.0790  0.2796
15045TIP3   OH266625   6.595   3.641  16.545 -0.4932 -0.0092  0.2331
15045TIP3    H166626   6.532   3.705  16.512 -0.3127  0.1935  0.2813
15045TIP3    H266627   6.666   3.642  16.481  0.4697  1.3296  1.2686
15046TIP3   OH266628   6.738   5.016  15.441 -0.0719  0.1640  0.3155
15046TIP3    H166629   6.751   4.922  15.457  0.2663  0.6014  3.1680
15046TIP3    H266630   6.822   5.045  15.404 -0.8370 -0.9242 -2.5240
15047TIP3   OH266631   0.988   5.298  13.756  0.3931  0.3497 -0.2339
15047TIP3    H166632   1.048   5.373  13.757 -0.2873  0.9142  0.9700
15047TIP3    H266633   1.007   5.251  13.837 -0.1763  0.0405 -0.2759
15048TIP3   OH266634   1.386   2.169  15.624  0.0718  0.1399  0.0794
15048TIP3    H166635   1.388   2.223  15.545 -1.3208 -0.5035 -0.4342
15048TIP3    H266636   1.477   2.144  15.639  0.5656  1.5681 -0.4019
15049TIP3   OH266637   6.725   4.530   0.885  0.2956 -0.2150  0.2202
15049TIP3    H166638   6.655   4.510   0.822  0.8570  1.4090 -0.9792
15049TIP3    H266639   6.799   4.558   0.832  1.9566 -1.9510  1.4587
15050TIP3   OH266640   6.002   1.322  16.012  0.5324 -0.4652 -0.3643
15050TIP3    H166641   5.918   1.364  16.030  0.6642  1.3616 -3.3309
15050TIP3    H266642   5.980   1.229  15.997 -0.8842 -0.1191 -0.5582
15051TIP3   OH266643   3.382   0.586   2.677 -0.0659 -0.2108 -0.1154
15051TIP3    H166644   3.293   0.597   2.711  0.2798  1.2246  0.3985
15051TIP3    H266645   3.370   0.560   2.586 -1.0042 -1.2939  0.2954
15052TIP3   OH266646   6.484   2.274  12.508 -0.4043 -0.1324 -0.0933
15052TIP3    H166647   6.419   2.337  12.480  0.3448 -0.3098 -2.4858
15052TIP3    H266648   6.474   2.200  12.448  1.5213 -0.4500 -0.1085
15053TIP3   OH266649   4.747   0.493  11.946 -0.0684 -0.3346  0.2695
15053TIP3    H166650   4.820   0.518  11.890  0.1788 -0.1285  0.6748
15053TIP3    H266651   4.761   0.542  12.027  0.0195 -1.2206  0.8081
15054TIP3   OH266652   1.913   1.521   3.818 -0.6860  0.2544 -0.6964
15054TIP3    H166653   1.865   1.526   3.735 -0.2147 -1.8602 -1.1673
15054TIP3    H266654   1.894   1.433   3.851  1.4764 -0.0304 -0.0475
15055TIP3   OH266655   2.228   3.844  12.242 -0.3410  0.6216  0.5196
15055TIP3    H166656   2.266   3.907  12.304 -1.4167  1.4166  0.3996
15055TIP3    H266657   2.216   3.894  12.161 -1.2204  0.2738  0.4267
15056TIP3   OH266658   5.140   1.749   5.385 -0.0063 -0.8421 -0.2258
15056TIP3    H166659   5.173   1.695   5.313  0.8605 -0.7684  0.1078
15056TIP3    H266660   5.211   1.750   5.449  0.4699  1.6254 -0.7022
15057TIP3   OH266661   5.869   2.969  11.453 -0.6868  0.4351  0.0331
15057TIP3    H166662   5.873   2.973  11.357 -0.9820  1.6525  0.0593
15057TIP3    H266663   5.959   2.956  11.481 -0.5340  0.5564 -0.3997
15058TIP3   OH266664   6.772   5.211  15.053  1.0223  0.4564  0.0121
15058TIP3    H166665   6.845   5.166  15.096  0.2238 -0.1980  0.7117
15058TIP3    H266666   6.805   5.233  14.966  1.8554 -0.3737  0.1048
15059TIP3   OH266667   3.837   2.234   3.706 -0.6578 -0.1541 -0.3071
15059TIP3    H166668   3.856   2.150   3.664  3.1721  1.0883 -1.4250
15059TIP3    H266669   3.745   2.251   3.684 -1.5270 -3.8346 -0.2576
15060TIP3   OH266670   2.105   5.911   4.273 -0.0533  0.0086 -0.0315
15060TIP3    H166671   2.172   5.920   4.341  0.8492  0.1030 -0.9093
15060TIP3    H266672   2.119   5.985   4.215 -1.0207  0.1088 -0.1554
15061TIP3   OH266673   2.651   5.036   0.762  0.3804  0.0388  0.5487
15061TIP3    H166674   2.660   4.940   0.768  1.0265  0.0268 -0.4436
15061TIP3    H266675   2.558   5.050   0.743  0.2618 -0.3834  0.8008
15062TIP3   OH266676   4.641   2.449   0.744 -0.1383 -0.2866 -0.4163
15062TIP3    H166677   4.593   2.450   0.827  0.8101 -0.4331  0.1592
15062TIP3    H266678   4.589   2.503   0.685 -0.8891 -0.2708  0.2399
15063TIP3   OH266679   6.302   3.653   0.942 -0.4278  1.0674  0.1373
15063TIP3    H166680   6.337   3.572   0.905  0.5504  0.9968  1.1783
15063TIP3    H266681   6.366   3.720   0.917 -2.1355  1.9231 -2.3100
15064TIP3   OH266682   0.401   4.269  13.452  0.3153  0.3287 -0.1814
15064TIP3    H166683   0.427   4.321  13.376 -1.2530  0.7859 -0.4413
15064TIP3    H266684   0.415   4.326  13.527 -2.0266  1.4694 -0.5187
15065TIP3   OH266685   4.868   1.895   6.334  0.5926  0.3478 -0.1429
15065TIP3    H166686   4.852   1.987   6.357  0.9075  0.0054  1.5810
15065TIP3    H266687   4.846   1.847   6.414  1.2515 -0.9996 -0.7551
15066TIP3   OH266688   1.610   3.909   2.269 -0.1266 -0.0748  0.1004
15066TIP3    H166689   1.628   3.857   2.347 -3.3930 -1.3302  0.1607
15066TIP3    H266690   1.556   3.982   2.301  0.6063  0.8333 -0.6613
15067TIP3   OH266691   3.339   2.446   2.720 -0.2966 -0.2866  0.0519
15067TIP3    H166692   3.308   2.443   2.811 -2.9202 -1.1600 -0.7686
15067TIP3    H266693   3.288   2.518   2.681  0.4755 -0.2161 -0.8459
15068TIP3   OH266694   1.930   3.102   5.527  0.1396 -0.2699 -0.0836
15068TIP3    H166695   2.008   3.058   5.563  1.0597  1.0766 -0.3525
15068TIP3    H266696   1.935   3.085   5.433 -0.0959 -0.4782 -0.0589
15069TIP3   OH266697   0.739   1.126   3.932 -0.6244  0.0067  0.5544
15069TIP3    H166698   0.745   1.083   4.017 -1.9864 -0.6115  0.3587
15069TIP3    H266699   0.756   1.057   3.868  0.5220  0.4937  0.2949
15070TIP3   OH266700   1.509   1.203  13.916 -0.0285 -0.2852  0.0621
15070TIP3    H166701   1.471   1.283  13.953 -0.6903 -1.0637  1.1151
15070TIP3    H266702   1.578   1.234  13.858 -0.6732  1.0745 -0.0130
15071TIP3   OH266703   2.120   1.275   5.142  0.1336 -0.1350 -0.2072
15071TIP3    H166704   2.109   1.231   5.058  0.8890 -0.4671 -0.1320
15071TIP3    H266705   2.093   1.366   5.124 -0.3938 -0.3656 -0.6242
15072TIP3   OH266706   4.226   4.067  13.714 -0.6065 -0.4621 -0.2958
15072TIP3    H166707   4.251   3.990  13.663 -1.4998 -0.7970 -0.2418
15072TIP3    H266708   4.288   4.134  13.687  2.4710 -2.0709  2.1324
15073TIP3   OH266709   6.198   2.937  17.011 -0.5435 -0.2184 -0.0514
15073TIP3    H166710   6.180   2.930  16.917 -0.4066  0.1716 -0.1059
15073TIP3    H266711   6.151   2.863  17.050 -1.3864  0.1676 -0.3136
15074TIP3   OH266712   5.437   6.734  16.463  0.2230 -0.2784  0.1843
15074TIP3    H166713   5.372   6.799  16.492  2.6062  1.3284  2.3051
15074TIP3    H266714   5.412   6.715  16.372 -2.4978  1.0974  0.5290
15075TIP3   OH266715   3.479   1.698  14.011 -0.9196 -0.0174 -0.0360
15075TIP3    H166716   3.536   1.627  13.982 -0.9474 -0.5037  1.0718
15075TIP3    H266717   3.463   1.681  14.104 -1.1139  1.3176  0.1973
15076TIP3   OH266718   1.289   0.564   2.515  0.2829  0.4936 -0.4302
15076TIP3    H166719   1.297   0.542   2.607 -0.1790  0.7260 -0.3339
15076TIP3    H266720   1.324   0.653   2.508  0.8395  0.2686 -0.5788
15077TIP3   OH266721   6.043   3.648  16.074 -0.6165  0.1324 -0.1134
15077TIP3    H166722   6.036   3.738  16.042  0.9040  0.1580 -0.4285
15077TIP3    H266723   6.005   3.651  16.162  0.0156  1.2376  0.1486
15078TIP3   OH266724   4.663   5.627   3.852  0.2060 -0.1288 -0.5520
15078TIP3    H166725   4.698   5.709   3.888 -0.4884 -0.1689  0.2473
15078TIP3    H266726   4.726   5.560   3.882 -0.7200 -0.2547  1.2293
15079TIP3   OH266727   4.813   3.908   3.363  0.5098 -0.0856 -0.5214
15079TIP3    H166728   4.739   3.882   3.307  0.6949 -0.1608 -0.7361
15079TIP3    H266729   4.841   3.992   3.328  0.4826 -0.0250 -0.3967
15080TIP3   OH266730   1.648   5.461  15.256 -0.4221  0.0447  0.1248
15080TIP3    H166731   1.601   5.378  15.248 -0.4027 -0.0317  0.7426
15080TIP3    H266732   1.634   5.505  15.172 -0.8090 -0.3876 -0.0398
15081TIP3   OH266733   4.558   1.031  15.002  0.5688  0.4997  0.7912
15081TIP3    H166734   4.516   1.052  14.918  2.5713  0.4832 -0.2767
15081TIP3    H266735   4.516   1.089  15.065  2.0584  3.9219 -1.0751
15082TIP3   OH266736   3.417   1.178  10.886  0.4934  0.6366 -0.2172
15082TIP3    H166737   3.423   1.184  10.790 -0.2650  1.9251 -0.1942
15082TIP3    H266738   3.348   1.239  10.910 -1.3653 -1.7189  0.9220
15083TIP3   OH266739   3.929   4.589   5.106  0.2720 -0.0216  0.6344
15083TIP3    H166740   3.963   4.525   5.168  0.3369  0.1622  0.7905
15083TIP3    H266741   4.006   4.640   5.080 -0.1230  1.5957  2.3800
15084TIP3   OH266742   3.337   5.401  11.975  0.3667  0.2028  0.3041
15084TIP3    H166743   3.432   5.406  11.982  0.4713  0.6647 -1.1569
15084TIP3    H266744   3.320   5.391  11.881 -1.0456  0.5383  0.4999
15085TIP3   OH266745   5.348   2.253   2.274 -0.0726 -0.3598  0.4347
15085TIP3    H166746   5.389   2.282   2.193 -0.6696  0.9930  0.5808
15085TIP3    H266747   5.385   2.167   2.291  0.6302 -0.3331 -0.8674
15086TIP3   OH266748   3.344   3.313  14.001 -0.3094  0.2676  0.2682
15086TIP3    H166749   3.365   3.277  14.087 -0.4973 -1.0600 -0.2206
15086TIP3    H266750   3.429   3.341  13.965  0.0400 -0.8876  0.1496
15087TIP3   OH266751   4.772   5.827   4.001 -0.3374 -0.2083  0.1512
15087TIP3    H166752   4.764   5.864   4.089 -0.6637  2.1248 -0.8091
15087TIP3    H266753   4.866   5.829   3.983 -0.3973  0.6147 -0.0803
15088TIP3   OH266754   2.765   2.023   0.757 -0.4926  0.2782 -0.0149
15088TIP3    H166755   2.755   2.090   0.826 -0.4873  0.1218  0.1390
15088TIP3    H266756   2.675   2.004   0.730 -0.4567  0.9433 -0.6402
15089TIP3   OH266757   2.597   4.386  11.500 -0.1275 -0.2071 -0.4042
15089TIP3    H166758   2.594   4.482  11.508  1.6671 -0.1113 -0.5863
15089TIP3    H266759   2.681   4.368  11.458 -0.4997 -1.8668 -0.4903
15090TIP3   OH266760   6.722   2.023  13.622 -0.3711 -0.1301  0.2163
15090TIP3    H166761   6.748   2.115  13.615 -0.3026 -0.1594  0.0855
15090TIP3    H266762   6.778   1.977  13.559 -0.8082 -0.1792 -0.1420
15091TIP3   OH266763   1.494   2.168   0.889  0.1047 -0.0004 -0.6491
15091TIP3    H166764   1.503   2.262   0.869  0.8671 -0.2541 -1.6000
15091TIP3    H266765   1.414   2.162   0.941  1.5330  1.5367  1.9317
15092TIP3   OH266766   0.581   1.519  12.468 -0.5054 -0.4265  0.2878
15092TIP3    H166767   0.612   1.583  12.532 -0.5522  0.4316 -0.5314
15092TIP3    H266768   0.500   1.556  12.432  0.2478 -0.1852 -1.2757
15093TIP3   OH266769   4.811   6.040  15.084 -0.2666 -0.2449  0.4122
15093TIP3    H166770   4.772   5.953  15.088  0.3913 -0.6352 -1.1655
15093TIP3    H266771   4.867   6.045  15.162 -0.9551 -0.9010  0.9562
15094TIP3   OH266772   2.013   3.715  17.039 -0.2504 -0.1639 -0.1970
15094TIP3    H166773   1.929   3.671  17.027  0.3372 -1.8569  1.4271
15094TIP3    H266774   2.005   3.763  17.121 -0.1625  1.0425 -0.8763
15095TIP3   OH266775   1.515   0.420  12.416  0.5215 -0.1128  0.2791
15095TIP3    H166776   1.463   0.400  12.338  0.1110 -0.8513  0.7388
15095TIP3    H266777   1.452   0.452  12.480  0.1572 -3.3034  1.6952
15096TIP3   OH266778   0.924   3.656  15.139  0.3668 -0.2044 -0.1903
15096TIP3    H166779   0.977   3.654  15.218 -1.3716 -2.0941  1.0496
15096TIP3    H266780   0.886   3.744  15.137 -1.0178 -0.6455  2.2065
15097TIP3   OH266781   4.496   3.543  14.933 -0.9598  0.3549  0.6286
15097TIP3    H166782   4.443   3.609  14.978 -0.4025 -0.2889  2.3145
15097TIP3    H266783   4.557   3.512  14.999  0.9351  0.3989 -1.0095
15098TIP3   OH266784   1.698   2.645   2.098  0.3668 -1.0022  0.3653
15098TIP3    H166785   1.737   2.731   2.081 -0.0951 -0.8841 -0.1245
15098TIP3    H266786   1.742   2.586   2.037 -1.6357 -0.4894 -1.7166
15099TIP3   OH266787   0.637   1.374  13.006  0.1447  0.2383  0.2497
15099TIP3    H166788   0.687   1.401  12.929  0.1816  2.4497  1.0066
15099TIP3    H266789   0.682   1.294  13.035  1.0061  0.1544 -1.1767
15100TIP3   OH266790   4.313   6.562   2.601 -0.3212  0.9934  0.3529
15100TIP3    H166791   4.262   6.566   2.520 -0.5281  0.4053  0.4433
15100TIP3    H266792   4.399   6.596   2.577  0.5168 -1.6416 -0.8602
15101TIP3   OH266793   3.013   1.869  16.781  0.1852 -0.2513 -0.3320
15101TIP3    H166794   3.063   1.925  16.840 -1.8061 -1.8647  3.2416
15101TIP3    H266795   3.021   1.781  16.819 -1.2201 -1.4075 -2.5109
15102TIP3   OH266796   3.219   3.010  16.955  0.1472  0.3030  0.0877
15102TIP3    H166797   3.139   3.059  16.939 -0.7493 -1.1795 -0.1168
15102TIP3    H266798   3.270   3.021  16.875 -1.0124 -0.8612 -0.8590
15103TIP3   OH266799   1.704   4.085   3.196  0.4590 -0.6396  0.5963
15103TIP3    H166800   1.713   4.029   3.119 -0.5387  0.8407 -0.6173
15103TIP3    H266801   1.773   4.151   3.187 -1.1954  1.0369 -0.3761
15104TIP3   OH266802   1.918   4.015  15.767  0.5464  0.1132  0.2144
15104TIP3    H166803   1.891   4.055  15.850 -0.0043 -0.0713  0.1257
15104TIP3    H266804   1.865   4.060  15.701  1.2448  0.5203 -0.0832
15105TIP3   OH266805   3.075   1.744  12.120  0.0073  0.0873 -0.4966
15105TIP3    H166806   3.008   1.679  12.101  0.6358 -0.6938 -0.1151
15105TIP3    H266807   3.151   1.693  12.150 -0.1839  1.0722  1.9708
15106TIP3   OH266808   4.841   3.589   5.974 -0.1693  0.4406 -0.0137
15106TIP3    H166809   4.836   3.668   6.029 -0.4125  0.9220 -0.7140
15106TIP3    H266810   4.893   3.616   5.898  1.0518 -0.5078  0.4495
15107TIP3   OH266811   0.736   3.734   1.998 -0.1770  0.1434 -0.5311
15107TIP3    H166812   0.657   3.786   2.013 -1.0397 -1.1931 -0.2761
15107TIP3    H266813   0.711   3.673   1.928  0.9513  0.3479 -1.1257
15108TIP3   OH266814   4.420   2.126   5.340 -0.3558 -0.4256  0.5608
15108TIP3    H166815   4.421   2.058   5.407 -0.4790 -1.9916 -0.9683
15108TIP3    H266816   4.511   2.155   5.334 -0.2710 -0.5622  1.0918
15109TIP3   OH266817   4.828   1.792   3.681 -0.0204 -0.4420 -0.1102
15109TIP3    H166818   4.847   1.714   3.733 -1.9191 -1.2524 -0.5262
15109TIP3    H266819   4.740   1.817   3.708  0.4374  1.4022 -0.2202
15110TIP3   OH266820   6.583   1.471   3.684 -0.4386  0.1006 -0.2005
15110TIP3    H166821   6.568   1.442   3.774 -1.4534  2.7120  0.5368
15110TIP3    H266822   6.532   1.409   3.631  0.6214 -1.8191  0.9108
15111TIP3   OH266823   3.904   3.474  15.318  0.0447 -0.0342  0.0365
15111TIP3    H166824   3.831   3.468  15.256 -0.1184 -0.6719  0.2814
15111TIP3    H266825   3.919   3.568  15.328 -1.8076  0.1961  1.1980
15112TIP3   OH266826   3.654   6.326   0.960  0.7331 -0.3797  0.9242
15112TIP3    H166827   3.704   6.391   0.911 -1.0513 -0.7982 -1.6435
15112TIP3    H266828   3.588   6.377   1.006  0.9485 -0.1813  1.0172
15113TIP3   OH266829   3.662   1.041  16.171 -0.0245 -0.5230  0.6510
15113TIP3    H166830   3.650   0.952  16.204  1.8637 -1.5042 -1.0792
15113TIP3    H266831   3.729   1.079  16.229  0.4002 -0.8481  0.3828
15114TIP3   OH266832   1.581   5.898   4.757  0.4778 -0.2972  0.3818
15114TIP3    H166833   1.492   5.906   4.790  0.7674  0.5400  1.0024
15114TIP3    H266834   1.573   5.914   4.663 -0.1052 -0.8311  0.3368
15115TIP3   OH266835   3.082   6.782   6.042  0.1301  0.0607 -0.6330
15115TIP3    H166836   3.143   6.789   6.116  0.6224  1.1933 -1.1325
15115TIP3    H266837   3.133   6.740   5.973 -0.4651 -1.4190 -0.2112
15116TIP3   OH266838   1.208   4.999   3.370 -0.3682  0.2653  0.0803
15116TIP3    H166839   1.117   4.992   3.401 -0.4994  1.0140 -0.1350
15116TIP3    H266840   1.204   5.060   3.297  0.4167  0.8051  0.4827
15117TIP3   OH266841   4.225   2.295  15.587 -0.3404 -0.0688  0.1305
15117TIP3    H166842   4.131   2.287  15.606 -0.5853  1.2914 -0.3935
15117TIP3    H266843   4.242   2.225  15.523 -0.8266 -0.7800  0.7602
15118TIP3   OH266844   1.393   2.407   0.357 -0.0219  0.1413 -0.0951
15118TIP3    H166845   1.425   2.490   0.393  0.1278  0.0230  0.0508
15118TIP3    H266846   1.370   2.426   0.267  0.7999  0.1504 -0.3092
15119TIP3   OH266847   1.967   5.712  12.900 -0.0092 -0.1001  0.7499
15119TIP3    H166848   1.995   5.650  12.967  0.1896 -0.6240  0.1897
15119TIP3    H266849   1.890   5.670  12.861 -0.3721  0.3963  0.9273
15120TIP3   OH266850   0.787   5.339   4.977  0.0786  0.3166  0.7382
15120TIP3    H166851   0.773   5.245   4.964  1.6771  0.0852  0.4741
15120TIP3    H266852   0.825   5.345   5.065 -3.5315  1.1329  2.4206
15121TIP3   OH266853   2.451   3.450  13.734 -0.3098  0.4310  0.1178
15121TIP3    H166854   2.359   3.435  13.713 -0.6676  0.8131  1.3460
15121TIP3    H266855   2.480   3.515  13.669 -1.2590  1.2586  0.5101
15122TIP3   OH266856   0.466   1.433   2.684  0.0349  0.0493 -0.2189
15122TIP3    H166857   0.397   1.489   2.719 -1.5074 -1.2608 -1.0270
15122TIP3    H266858   0.459   1.442   2.589  1.0108 -0.0815 -0.3167
15123TIP3   OH266859   5.876   4.159   0.284 -0.0978  0.1803 -0.8352
15123TIP3    H166860   5.954   4.182   0.335  0.3069 -1.1034 -0.8250
15123TIP3    H266861   5.883   4.064   0.273 -2.7872 -0.3331  1.0392
15124TIP3   OH266862   1.038   5.574   2.993 -0.9548  0.2077  0.5837
15124TIP3    H166863   0.957   5.596   3.038 -1.0916 -1.1003  1.0080
15124TIP3    H266864   1.085   5.657   2.986 -1.3918  0.6152  2.2014
15125TIP3   OH266865   4.783   3.027  15.074  0.5079 -0.8140  0.3718
15125TIP3    H166866   4.823   3.029  15.161 -2.1057  0.5658  1.6519
15125TIP3    H266867   4.775   3.118  15.048  0.5297 -1.1696 -0.9926
15126TIP3   OH266868   6.604   4.884  13.921  0.2806  0.0662 -0.0282
15126TIP3    H166869   6.519   4.873  13.879 -0.0805 -0.1702  0.7574
15126TIP3    H266870   6.587   4.939  13.997  1.0100  0.8634 -0.4219
15127TIP3   OH266871   0.594   2.078   3.816 -0.1043  0.7693 -0.5886
15127TIP3    H166872   0.674   2.130   3.822 -0.2044  0.9179 -0.5307
15127TIP3    H266873   0.624   1.991   3.789  0.1854  0.5423  0.4440
15128TIP3   OH266874   3.826   0.193  15.680  0.1850 -0.1267 -0.3665
15128TIP3    H166875   3.737   0.192  15.715  0.7539 -1.9789  1.1912
15128TIP3    H266876   3.856   0.103  15.688  1.4980  0.0182 -2.8305
15129TIP3   OH266877   0.409   1.383  10.236 -0.7274  0.5034  0.3198
15129TIP3    H166878   0.316   1.399  10.222 -0.6518  0.4236 -0.3255
15129TIP3    H266879   0.437   1.453  10.294 -0.6968  1.9779 -1.3848
15130TIP3   OH266880   1.154   6.006  13.130  0.1751 -0.0101 -0.2077
15130TIP3    H166881   1.089   6.040  13.191  0.7596  1.2937 -0.2914
15130TIP3    H266882   1.112   6.012  13.044  0.5044  1.1030 -0.2967
15131TIP3   OH266883   5.631   1.545  12.716  0.1875  0.0778  0.4993
15131TIP3    H166884   5.575   1.487  12.768 -0.9892  0.1284 -0.6478
15131TIP3    H266885   5.595   1.632  12.731 -0.1211  0.1024 -0.3071
15132TIP3   OH266886   6.431   4.426   6.030  0.7596  0.0772  0.6056
15132TIP3    H166887   6.447   4.454   6.120 -0.6389  0.3924  0.7898
15132TIP3    H266888   6.371   4.492   5.995  0.9759 -0.2607 -0.4274
15133TIP3   OH266889   5.227   3.396  13.571  0.3308 -0.8272  0.1131
15133TIP3    H166890   5.175   3.468  13.534  0.5224 -0.5374  0.3951
15133TIP3    H266891   5.305   3.439  13.607  0.1881 -1.1146  0.7707
15134TIP3   OH266892   4.017   3.073  11.240 -0.1934 -0.1076 -0.0019
15134TIP3    H166893   4.008   2.980  11.262 -0.8495 -0.5352 -1.8305
15134TIP3    H266894   3.966   3.083  11.159  0.0160  1.8113  0.0588
15135TIP3   OH266895   3.143   2.955   2.246  0.1922  0.8128  0.1001
15135TIP3    H166896   3.132   3.027   2.183 -0.7999  0.3053 -0.3309
15135TIP3    H266897   3.124   2.995   2.331 -0.8293  0.9765 -0.1869
15136TIP3   OH266898   6.123   5.437  17.072 -0.3273 -0.2997  0.3484
15136TIP3    H166899   6.111   5.378  17.146 -0.9637 -0.0593  0.4439
15136TIP3    H266900   6.212   5.473  17.083 -0.8147  0.5804  1.6181
15137TIP3   OH266901   2.015   5.391  16.780  0.3028 -0.4845 -0.1457
15137TIP3    H166902   1.960   5.314  16.769  0.7306 -0.6311 -1.4689
15137TIP3    H266903   2.103   5.361  16.756  0.5896  0.2482 -0.0351
15138TIP3   OH266904   3.174   1.595  14.214 -0.0289 -0.4126  0.0631
15138TIP3    H166905   3.205   1.579  14.124  1.5687  1.4665  0.2126
15138TIP3    H266906   3.083   1.566  14.213  0.2594 -1.4575 -1.8628
15139TIP3   OH266907   1.200   4.135  10.042  0.0239 -0.3156 -0.4859
15139TIP3    H166908   1.160   4.052  10.068 -1.5511  0.1970 -1.1965
15139TIP3    H266909   1.137   4.201  10.069  0.7937  0.5958 -0.8758
15140TIP3   OH266910   6.224   1.999  12.557 -0.4285  0.0280  0.1958
15140TIP3    H166911   6.210   2.010  12.463 -0.2352 -3.9479 -0.4712
15140TIP3    H266912   6.138   2.019  12.595 -1.0563 -0.1307 -1.0556
15141TIP3   OH266913   6.096   4.040  11.629 -0.1648  0.0954 -0.3193
15141TIP3    H166914   6.129   3.993  11.705 -0.9657 -0.1736 -0.1256
15141TIP3    H266915   6.048   4.114  11.665 -2.1704 -1.0674 -0.4391
15142TIP3   OH266916   3.618   3.363   3.176  0.4998 -0.1665  0.2513
15142TIP3    H166917   3.561   3.329   3.107 -0.1298  0.3903  0.4946
15142TIP3    H266918   3.696   3.307   3.172 -0.2030 -1.1527  0.1472
15143TIP3   OH266919   1.534   3.850  12.323 -0.1010 -0.9180  0.2438
15143TIP3    H166920   1.628   3.866  12.327 -0.1241 -0.3199 -0.9388
15143TIP3    H266921   1.497   3.900  12.396  0.7150 -3.4523  2.5282
15144TIP3   OH266922   4.077   5.508  12.972  0.1373 -0.2017  0.2762
15144TIP3    H166923   4.108   5.473  13.055  4.1284 -1.6105 -1.5774
15144TIP3    H266924   4.090   5.603  12.980 -0.3930 -0.2139  1.5199
15145TIP3   OH266925   6.439   2.162  14.975  0.1220  0.1421  0.6050
15145TIP3    H166926   6.514   2.220  14.986  0.0135  1.2160 -2.9585
15145TIP3    H266927   6.362   2.219  14.985 -0.2394 -0.6334  2.6903
15146TIP3   OH266928   3.915   6.284  14.330 -0.0923  0.1271  0.0612
15146TIP3    H166929   3.981   6.222  14.361  1.0868  0.7451 -1.1328
15146TIP3    H266930   3.949   6.316  14.247 -1.4743  1.1509 -0.1415
15147TIP3   OH266931   6.751   2.627  14.311  0.2264 -0.1001  0.0539
15147TIP3    H166932   6.731   2.660  14.398 -2.0145 -2.5485  0.6048
15147TIP3    H266933   6.739   2.532  14.318  0.6360 -0.4472 -2.7722
15148TIP3   OH266934   4.275   2.003   4.769  0.3054 -0.0195  0.0181
15148TIP3    H166935   4.240   1.915   4.781  1.5930 -0.7511 -1.1963
15148TIP3    H266936   4.255   2.049   4.850 -0.1833 -1.5123  0.7771
15149TIP3   OH266937   5.014   5.711  12.212  0.0225 -0.0087 -0.2164
15149TIP3    H166938   4.966   5.705  12.294  0.3079  0.6809  0.0064
15149TIP3    H266939   4.948   5.737  12.148 -0.1914 -0.5075 -0.2007
15150TIP3   OH266940   5.170   4.905  14.990 -0.2315 -0.2557  0.2863
15150TIP3    H166941   5.217   4.827  15.018  0.0775 -0.7066 -1.4266
15150TIP3    H266942   5.080   4.890  15.017 -0.1350 -1.1210  0.1351
15151TIP3   OH266943   1.180   1.505   3.950 -0.6145 -0.1941  0.3517
15151TIP3    H166944   1.158   1.423   3.993  0.9845 -1.3735 -0.9519
15151TIP3    H266945   1.230   1.554   4.017 -1.7375 -0.1663  1.1954
15152TIP3   OH266946   1.611   2.730   4.506 -0.4929 -0.4394  0.5495
15152TIP3    H166947   1.588   2.645   4.470 -2.0964  0.1158  0.1383
15152TIP3    H266948   1.680   2.712   4.569 -0.4353 -1.9621  0.0923
15153TIP3   OH266949   5.554   2.440  13.581 -0.3210 -0.2449 -0.1621
15153TIP3    H166950   5.557   2.386  13.502 -0.2179 -1.9584  0.9625
15153TIP3    H266951   5.633   2.416  13.630 -1.1216 -0.3306  1.1424
15154TIP3   OH266952   4.530   2.456   4.264 -0.8386 -0.3512  0.2237
15154TIP3    H166953   4.473   2.529   4.243  0.8728  1.2636  0.8721
15154TIP3    H266954   4.569   2.480   4.348  0.2016 -1.7289  0.1674
15155TIP3   OH266955   1.727   2.397   3.447  0.2953  0.3193  0.1046
15155TIP3    H166956   1.693   2.410   3.536  1.1441  2.3190  0.1908
15155TIP3    H266957   1.669   2.450   3.392  0.0338 -0.5718 -0.4952
15156TIP3   OH266958   0.512   4.261   5.101 -0.0150 -0.7610 -0.2988
15156TIP3    H166959   0.605   4.241   5.102  0.3919  0.9936 -0.0167
15156TIP3    H266960   0.490   4.276   5.193 -0.3683 -0.3010 -0.4560
15157TIP3   OH266961   2.103   2.906  10.762 -0.2758 -0.0303  0.5040
15157TIP3    H166962   2.177   2.918  10.702  0.4363  0.2183  1.4008
15157TIP3    H266963   2.123   2.964  10.836 -1.3016 -0.0749  0.8230
15158TIP3   OH266964   3.807   4.279   3.050  0.3596 -0.0371 -0.3447
15158TIP3    H166965   3.873   4.223   3.009  2.5217 -0.1435  2.9073
15158TIP3    H266966   3.766   4.326   2.976  3.8204 -0.2037 -2.6158
15159TIP3   OH266967   3.402   2.029  12.714 -0.3742  0.3199  0.9729
15159TIP3    H166968   3.434   2.032  12.804  2.7816  0.9000 -0.0449
15159TIP3    H266969   3.466   2.079  12.664 -3.0484  1.7081 -1.3883
15160TIP3   OH266970   4.660   2.736   0.908  0.0503 -0.1540  0.1554
15160TIP3    H166971   4.611   2.706   0.832  0.8163  0.2454 -0.5142
15160TIP3    H266972   4.733   2.674   0.916 -0.9227 -1.1669  1.5719
15161TIP3   OH266973   5.403   6.396   1.014  0.7341 -0.0438  0.5768
15161TIP3    H166974   5.462   6.456   1.059 -2.1094  2.8867  0.8099
15161TIP3    H266975   5.457   6.354   0.948  3.2568  1.6427  1.4081
15162TIP3   OH266976   4.817   4.415  11.083 -0.0441 -0.4538 -0.6279
15162TIP3    H166977   4.743   4.431  11.025 -0.7273 -1.0682  0.0436
15162TIP3    H266978   4.795   4.333  11.129  1.2014 -0.8302 -0.6485
15163TIP3   OH266979   6.573   5.239   3.256 -0.0700  0.6033 -0.3083
15163TIP3    H166980   6.661   5.275   3.253 -0.0726  0.6126 -0.2699
15163TIP3    H266981   6.586   5.147   3.279 -0.2103  1.1243  2.1924
15164TIP3   OH266982   1.717   6.656  14.506  0.6804 -0.1438  0.4613
15164TIP3    H166983   1.650   6.633  14.441 -0.0377  0.0463  1.1169
15164TIP3    H266984   1.729   6.751  14.495  1.2208 -0.2619 -0.0000
15165TIP3   OH266985   5.082   3.182   3.283  0.1124  0.1886 -0.5909
15165TIP3    H166986   5.047   3.148   3.201 -0.5970  0.7017 -0.5130
15165TIP3    H266987   5.006   3.219   3.328  0.3074 -0.9573  0.7561
15166TIP3   OH266988   4.740   1.920   5.709 -0.2377  0.1473  0.1967
15166TIP3    H166989   4.800   1.951   5.641 -0.4120 -1.2806 -0.6534
15166TIP3    H266990   4.699   1.842   5.671 -0.1662 -0.8286  2.0135
15167TIP3   OH266991   2.660   6.570   0.321 -0.0475  0.0522 -0.5436
15167TIP3    H166992   2.576   6.606   0.350 -0.0484 -0.0116 -0.4654
15167TIP3    H266993   2.706   6.645   0.282  0.4421  0.4214  0.6936
15168TIP3   OH266994   1.753   1.967   5.476  0.5907  0.0742 -0.0375
15168TIP3    H166995   1.764   1.932   5.388  0.9070 -1.2707  0.5126
15168TIP3    H266996   1.746   1.890   5.532 -1.6552  0.8652  0.9004
15169TIP3   OH266997   4.637   0.573  16.853  0.5834  0.1102 -0.1256
15169TIP3    H166998   4.595   0.659  16.849  1.1000  0.3666 -0.1101
15169TIP3    H266999   4.705   0.577  16.786 -0.6460 -0.9863 -1.4996
15170TIP3   OH267000   5.531   3.550  12.993  0.6961 -0.2632 -0.1688
15170TIP3    H167001   5.606   3.547  13.053  1.1222  0.9786 -0.6100
15170TIP3    H267002   5.542   3.632  12.945 -0.7508 -0.2375 -0.5043
15171TIP3   OH267003   6.575   2.194   4.030  0.6143 -1.0997  0.1098
15171TIP3    H167004   6.547   2.280   3.998  2.4010 -0.3261  0.4585
15171TIP3    H267005   6.497   2.140   4.027 -1.1795  1.1750  2.0633
15172TIP3   OH267006   5.494   5.999  16.525 -0.3850  0.4971  0.0082
15172TIP3    H167007   5.523   6.083  16.488  1.3467 -0.0705 -0.0174
15172TIP3    H267008   5.559   5.936  16.494 -1.9142 -0.9695 -0.3704
15173TIP3   OH267009   3.100   4.425  13.155  0.4746 -0.1918  0.2903
15173TIP3    H167010   3.121   4.336  13.128  0.5562  0.2311 -1.1133
15173TIP3    H267011   3.074   4.416  13.247  0.5869 -1.6373  0.2128
15174TIP3   OH267012   6.463   4.181   2.877  0.0387 -0.4635  0.0555
15174TIP3    H167013   6.455   4.090   2.905  0.4583 -0.3078  0.7192
15174TIP3    H267014   6.489   4.228   2.957  1.8030 -0.0749 -0.6963
15175TIP3   OH267015   4.086   2.529  15.668  0.3415  0.0317  0.8198
15175TIP3    H167016   4.164   2.481  15.642 -0.0434  1.1345 -2.9318
15175TIP3    H267017   4.113   2.620  15.670 -0.7348  0.4104 -0.3674
15176TIP3   OH267018   2.799   1.837  11.866  0.3328  0.2942  0.2488
15176TIP3    H167019   2.842   1.761  11.826  0.9909 -0.5554  2.4335
15176TIP3    H267020   2.717   1.802  11.902  0.1669  0.8416  0.4168
15177TIP3   OH267021   2.285   5.946   4.479  0.3203  0.2286 -0.0097
15177TIP3    H167022   2.353   6.010   4.460 -0.4468  1.1217  0.1695
15177TIP3    H267023   2.260   5.964   4.570 -1.1174  0.8781 -0.4907
15178TIP3   OH267024   1.544   1.888   0.996 -0.3287 -0.1492 -0.1106
15178TIP3    H167025   1.631   1.850   1.000 -0.1092  0.1110 -1.6384
15178TIP3    H267026   1.555   1.969   0.945 -1.4118  0.0327 -0.0999
15179TIP3   OH267027   4.617   3.822  13.644 -0.3265 -0.1160 -1.3565
15179TIP3    H167028   4.676   3.803  13.717  0.7013 -0.4063 -2.2326
15179TIP3    H267029   4.614   3.917  13.639 -1.1876 -0.0794 -0.3289
15180TIP3   OH267030   4.841   6.739  14.160 -0.0924  0.2184 -0.7303
15180TIP3    H167031   4.752   6.743  14.196  0.9474 -1.9564  2.4655
15180TIP3    H267032   4.895   6.783  14.224  1.5632 -1.5987 -0.7907
15181TIP3   OH267033   5.868   0.369   0.047 -0.0275  0.4324  0.0259
15181TIP3    H167034   5.921   0.446   0.071  0.7796 -0.4339  1.1185
15181TIP3    H267035   5.931   0.307   0.012 -0.5744 -0.0128 -0.1845
15182TIP3   OH267036   0.520   2.373  14.403  1.1711  0.6955 -0.0281
15182TIP3    H167037   0.443   2.397  14.352  0.9595  0.0731 -0.0113
15182TIP3    H267038   0.559   2.456  14.430  0.0202  1.0166  0.7052
15183TIP3   OH267039   5.348   2.381  10.912  0.7026 -0.5693  0.6399
15183TIP3    H167040   5.343   2.416  10.823  2.7450  0.3101  0.7956
15183TIP3    H267041   5.292   2.304  10.912  1.1646 -0.9587 -1.5945
15184TIP3   OH267042   0.160   2.094  12.662 -0.5087 -0.7107  0.3225
15184TIP3    H167043   0.202   2.104  12.576 -1.6438  2.3602  0.0144
15184TIP3    H267044   0.068   2.111  12.647 -0.5714  1.2020  2.2890
15185TIP3   OH267045   1.643   4.466  11.709 -0.3660 -0.3963  0.0087
15185TIP3    H167046   1.599   4.523  11.772 -1.0153 -2.1683  1.2433
15185TIP3    H267047   1.573   4.439  11.649 -0.8477 -2.3897  1.3593
15186TIP3   OH267048   1.811   1.695   5.548 -0.3887  0.2555  0.3632
15186TIP3    H167049   1.721   1.674   5.525 -0.4988 -0.8457  1.6688
15186TIP3    H267050   1.854   1.713   5.464 -1.7994  0.7915 -0.2728
15187TIP3   OH267051   6.171   2.003  13.243 -0.1608 -0.0380  0.3244
15187TIP3    H167052   6.105   1.934  13.247 -0.1822 -0.0069  0.5790
15187TIP3    H267053   6.236   1.972  13.180 -0.9115  0.3686 -0.6689
15188TIP3   OH267054   0.777   0.168  15.753 -0.2867  0.1943  0.3838
15188TIP3    H167055   0.814   0.225  15.820  0.1458  1.0005 -0.5155
15188TIP3    H267056   0.836   0.092  15.751  1.5457  1.5620 -1.1884
15189TIP3   OH267057   3.983   4.784  16.132  0.1783 -0.2071  0.7022
15189TIP3    H167058   3.889   4.789  16.115  0.0775 -1.3056  0.8547
15189TIP3    H267059   4.001   4.857  16.192 -0.3901  0.5792 -0.0570
15190TIP3   OH267060   3.776   5.080  16.002 -0.7123 -0.2650 -0.2452
15190TIP3    H167061   3.842   5.074  15.933  0.0173 -0.9992  0.4927
15190TIP3    H267062   3.749   4.989  16.018 -1.3525 -0.0404 -0.0183
15191TIP3   OH267063   1.197   3.670   1.559 -1.0501 -0.6497 -0.6060
15191TIP3    H167064   1.276   3.696   1.511 -0.8356 -0.5557 -0.2114
15191TIP3    H267065   1.126   3.716   1.514 -0.4532  2.7414  1.4915
15192TIP3   OH267066   2.273   0.119  15.767  0.6975  0.2151  0.0055
15192TIP3    H167067   2.192   0.071  15.748  0.5648 -0.6092  2.3474
15192TIP3    H267068   2.338   0.081  15.708 -0.4609  0.5357 -1.5431
15193TIP3   OH267069   2.710   1.858   0.361  0.5157 -0.4215  0.0531
15193TIP3    H167070   2.619   1.829   0.367  1.0534 -2.0965  0.6653
15193TIP3    H267071   2.743   1.814   0.283  0.7971  0.2143 -0.1883
15194TIP3   OH267072   6.805   2.396  12.349  0.2722  0.1823  0.7345
15194TIP3    H167073   6.770   2.324  12.297  1.4148  0.1820 -0.0817
15194TIP3    H267074   6.729   2.447  12.374 -0.3468  0.0929 -0.8388
15195TIP3   OH267075   5.936   4.989  13.670 -1.0398 -0.6152  0.0793
15195TIP3    H167076   5.991   5.041  13.611 -1.4908 -1.1766 -0.8662
15195TIP3    H267077   5.925   4.905  13.625 -0.0123 -1.7033  1.7330
15196TIP3   OH267078   2.531   5.133   3.052  0.3775  0.5847 -0.6999
15196TIP3    H167079   2.624   5.114   3.065  0.7346  1.8835 -1.1435
15196TIP3    H267080   2.509   5.196   3.121 -0.4933 -0.5818  0.1207
15197TIP3   OH267081   5.403   1.283  14.511 -0.4045 -0.3373 -0.1169
15197TIP3    H167082   5.324   1.229  14.512 -0.3844 -0.5135  3.0427
15197TIP3    H267083   5.401   1.330  14.595  1.8281  1.1944 -0.8240
15198TIP3   OH267084   5.279   3.292  15.521 -0.2820  0.3749  0.3191
15198TIP3    H167085   5.213   3.242  15.569 -1.0468  0.6120 -0.4685
15198TIP3    H267086   5.359   3.282  15.573 -0.7937 -0.3921  0.9772
15199TIP3   OH267087   5.648   1.081   3.021  0.4704  0.4191 -0.2960
15199TIP3    H167088   5.663   1.141   3.094 -0.3215  0.4538 -0.1523
15199TIP3    H267089   5.727   1.026   3.019  0.4608  0.3470  0.6500
15200TIP3   OH267090   0.583   0.756  13.786 -0.5108  0.2655  0.2836
15200TIP3    H167091   0.531   0.764  13.706  0.3419 -0.8658 -0.4181
15200TIP3    H267092   0.539   0.687  13.836  0.2069 -0.6032 -0.2525
15201TIP3   OH267093   3.831   5.347   6.505  0.2226 -0.6402  0.3692
15201TIP3    H167094   3.829   5.276   6.569  0.4554  1.3724  2.7652
15201TIP3    H267095   3.770   5.412   6.540  0.7020  0.7309 -1.2385
15202TIP3   OH267096   1.603   0.769  10.696 -0.8592 -1.0353 -0.2552
15202TIP3    H167097   1.614   0.814  10.612  1.6351  1.0301  1.0442
15202TIP3    H267098   1.594   0.677  10.673  0.9934 -0.6922 -2.7610
15203TIP3   OH267099   0.312   0.163   6.498 -0.6032  0.6237  0.2600
15203TIP3    H167100   0.319   0.074   6.534 -0.4479  0.6960  0.4074
15203TIP3    H267101   0.275   0.215   6.569  1.9863  1.3070  1.2093
15204TIP3   OH267102   0.477   1.722  14.982  0.2737  0.3423 -0.1258
15204TIP3    H167103   0.404   1.753  15.037 -0.6593 -0.4072 -0.8910
15204TIP3    H267104   0.520   1.655  15.035  0.0441  0.3771  0.1069
15205TIP3   OH267105   2.139   1.030   4.007  0.1308 -0.1573 -0.2014
15205TIP3    H167106   2.208   0.966   3.987  0.0179 -0.1258 -0.6876
15205TIP3    H267107   2.102   1.053   3.922 -0.9212 -0.6534  0.1040
15206TIP3   OH267108   1.840   5.896   4.273  0.4487  0.1116  0.2654
15206TIP3    H167109   1.794   5.978   4.291 -0.6066 -0.2732 -0.5930
15206TIP3    H267110   1.932   5.917   4.289  0.1078  1.2017  0.9601
15207TIP3   OH267111   5.366   3.762  13.486 -0.0172  0.1216 -0.1293
15207TIP3    H167112   5.417   3.687  13.518 -1.6785 -1.5768 -1.2237
15207TIP3    H267113   5.403   3.779  13.399  0.3520  0.5777  0.1148
15208TIP3   OH267114   0.950   5.377  10.848  0.4426  0.5131 -0.3188
15208TIP3    H167115   0.993   5.300  10.885  1.2701  1.4414  0.7355
15208TIP3    H267116   0.887   5.404  10.915 -1.2180 -0.2969 -1.4627
15209TIP3   OH267117   1.045   6.559   2.708  0.0809 -0.3090 -0.0095
15209TIP3    H167118   1.058   6.623   2.778 -1.8686  1.9324 -1.5420
15209TIP3    H267119   1.071   6.605   2.628 -0.9241 -1.5941 -1.1255
15210TIP3   OH267120   3.179   3.809   3.661  0.7379  0.8115  0.3689
15210TIP3    H167121   3.100   3.798   3.608  1.3712 -1.7643 -0.2318
15210TIP3    H267122   3.147   3.831   3.748 -0.7685 -1.2136  0.4029
15211TIP3   OH267123   3.326   2.654  14.561 -0.3569  0.4026 -0.2695
15211TIP3    H167124   3.392   2.723  14.560 -0.6096  0.6513 -1.6875
15211TIP3    H267125   3.254   2.691  14.612  0.5777  0.1063  1.3430
15212TIP3   OH267126   1.112   4.110   5.482 -0.1918 -0.4460 -0.3769
15212TIP3    H167127   1.039   4.091   5.423  0.2189  1.1720 -1.4732
15212TIP3    H267128   1.079   4.180   5.538 -0.3741 -1.5743  0.9709
15213TIP3   OH267129   3.391   6.518   3.080 -0.2600  0.2626  0.1377
15213TIP3    H167130   3.378   6.603   3.037  0.4070 -0.0981 -0.8027
15213TIP3    H267131   3.486   6.510   3.089 -0.0903 -1.4774 -2.1350
15214TIP3   OH267132   0.988   1.399   1.000 -0.1994 -0.0292 -0.2105
15214TIP3    H167133   0.997   1.470   0.936 -1.2003  0.7348  0.4820
15214TIP3    H267134   1.019   1.436   1.082  0.7099 -0.8900 -0.1400
15215TIP3   OH267135   5.086   2.874  16.435 -0.0866 -0.2946  0.3211
15215TIP3    H167136   5.043   2.900  16.353  3.6986 -0.9017 -2.1110
15215TIP3    H267137   5.081   2.779  16.436 -0.5790 -0.2704  1.1365
15216TIP3   OH267138   6.798   3.409   5.916  0.2773  0.2643 -0.2130
15216TIP3    H167139   6.804   3.322   5.878 -0.3770  0.4080 -0.6657
15216TIP3    H267140   6.794   3.394   6.011 -2.1792 -0.3680 -0.3364
15217TIP3   OH267141   0.576   0.401   5.475  0.2309  0.1341 -0.1644
15217TIP3    H167142   0.510   0.463   5.505  1.1407  1.4020 -0.7041
15217TIP3    H267143   0.660   0.441   5.499  0.8630 -0.5748 -1.0952
15218TIP3   OH267144   5.138   0.766  12.606  0.1526  0.0476 -0.1464
15218TIP3    H167145   5.214   0.720  12.640  1.2942  1.7324 -0.2538
15218TIP3    H267146   5.161   0.786  12.515 -0.0343  1.2728  0.0500
15219TIP3   OH267147   0.226   5.549  11.092 -0.4191 -0.4659  0.0866
15219TIP3    H167148   0.241   5.635  11.131 -0.6716 -1.2171  1.9522
15219TIP3    H267149   0.211   5.491  11.167 -1.3857 -1.9222 -1.1660
15220TIP3   OH267150   3.196   1.530   4.657 -0.6308 -0.0394 -0.4112
15220TIP3    H167151   3.248   1.605   4.627 -1.4043  0.5018 -0.4250
15220TIP3    H267152   3.253   1.455   4.642  0.7777  0.6639  1.0345
15221TIP3   OH267153   2.464   2.339  14.509  0.7507  0.1406 -0.2476
15221TIP3    H167154   2.461   2.245  14.490  2.9610  0.2850 -1.5919
15221TIP3    H267155   2.504   2.345  14.596  2.2499 -0.1525 -0.8840
15222TIP3   OH267156   5.667   3.830  16.407  0.0406 -0.0492 -0.9675
15222TIP3    H167157   5.689   3.865  16.321  2.0771  1.7401  0.1693
15222TIP3    H267158   5.583   3.872  16.429 -0.1568  0.0010 -1.7780
15223TIP3   OH267159   6.208   5.531   0.636  0.4325  0.3353  0.3224
15223TIP3    H167160   6.119   5.509   0.610 -0.2137  3.3952 -0.4878
15223TIP3    H267161   6.241   5.452   0.679 -1.7774 -1.7310 -1.5012
15224TIP3   OH267162   5.136   2.398  13.212  0.0726 -0.1886 -0.1283
15224TIP3    H167163   5.173   2.475  13.255 -0.6709 -0.2735  0.7116
15224TIP3    H267164   5.149   2.413  13.119  0.1664  0.8407  0.0395
15225TIP3   OH267165   0.601   6.701  16.976 -0.4952 -0.0860  0.0793
15225TIP3    H167166   0.510   6.708  16.948  0.1901  4.7048 -1.9922
15225TIP3    H267167   0.620   6.785  17.017  2.9752 -0.9487  0.5619
15226TIP3   OH267168   4.073   1.040  12.473  0.1365 -0.0044  0.5879
15226TIP3    H167169   3.984   1.072  12.454  0.5965  1.2857  0.5197
15226TIP3    H267170   4.065   0.994  12.556 -1.0350 -1.8779 -0.4845
15227TIP3   OH267171   1.608   3.152  13.274  0.4977  0.0266  0.0520
15227TIP3    H167172   1.516   3.176  13.258  0.3451 -0.6485 -0.1396
15227TIP3    H267173   1.640   3.217  13.336 -0.0374  0.4282 -0.0895
15228TIP3   OH267174   4.712   2.256  10.155  0.0705  0.4625  0.1665
15228TIP3    H167175   4.764   2.321  10.201 -1.1146  0.4876  1.5549
15228TIP3    H267176   4.660   2.214  10.223 -0.4775 -0.7309 -0.9359
15229TIP3   OH267177   0.152   5.943  11.593  0.5617  0.2289  0.4559
15229TIP3    H167178   0.214   5.969  11.525  0.0477  1.1656  0.3291
15229TIP3    H267179   0.130   6.025  11.637  1.0178 -0.3735  1.8706
15230TIP3   OH267180   4.531   6.392  16.719  0.1092  0.0797  0.9209
15230TIP3    H167181   4.577   6.338  16.784 -1.3268  0.5308  2.4075
15230TIP3    H267182   4.444   6.404  16.757 -0.8197  0.3282 -1.1508
15231TIP3   OH267183   5.564   1.033  13.866 -0.1672  0.7372  0.1883
15231TIP3    H167184   5.470   1.016  13.873 -0.0454 -0.5887 -1.0433
15231TIP3    H267185   5.598   1.015  13.954 -0.6438 -1.8357 -0.0803
15232TIP3   OH267186   1.980   5.100  14.516  0.0466  0.0310 -0.3860
15232TIP3    H167187   1.941   5.095  14.429  0.3081  1.3270 -0.5857
15232TIP3    H267188   2.041   5.026  14.519  0.9492  0.6756 -1.7667
15233TIP3   OH267189   4.234   3.572   3.616 -0.0936 -0.1342  0.3688
15233TIP3    H167190   4.204   3.663   3.623  1.2054  0.2382  1.7648
15233TIP3    H267191   4.229   3.552   3.522  0.1940  1.5988 -0.0525
15234TIP3   OH267192   6.526   2.317   3.295 -0.2926 -0.0313 -0.0621
15234TIP3    H167193   6.576   2.382   3.345 -1.7193  2.2175 -1.3785
15234TIP3    H267194   6.477   2.268   3.361  0.7120  0.2996  0.9709
15235TIP3   OH267195   6.582   3.152  14.033 -0.1289  0.1358  0.2592
15235TIP3    H167196   6.525   3.100  14.089  0.4338  0.2340  0.9446
15235TIP3    H267197   6.528   3.176  13.958 -0.2735 -1.8334 -0.3274
15236TIP3   OH267198   0.581   0.425   4.616  0.0677  0.2408 -1.2484
15236TIP3    H167199   0.518   0.355   4.602  0.8625 -0.2214 -2.7547
15236TIP3    H267200   0.657   0.400   4.564  1.4799  0.8400  0.4134
15237TIP3   OH267201   6.627   4.189   5.211 -0.3228  0.4886  0.2485
15237TIP3    H167202   6.573   4.111   5.220 -0.4153  0.4415 -0.6982
15237TIP3    H267203   6.715   4.159   5.235  0.1073 -0.5114 -2.3070
15238TIP3   OH267204   2.987   0.684   5.145  0.6968  0.3752  0.1008
15238TIP3    H167205   2.940   0.768   5.140  1.5089  0.7815 -1.3987
15238TIP3    H267206   2.937   0.625   5.089  1.4310  0.5588 -0.7784
15239TIP3   OH267207   1.808   2.425  17.023  0.1693  0.0395  0.3847
15239TIP3    H167208   1.846   2.370  17.092  2.3599 -0.4456 -1.1115
15239TIP3    H267209   1.876   2.430  16.956 -2.4094 -0.8709 -2.5235
15240TIP3   OH267210   1.472   3.688  11.989  0.8520  0.3678 -0.3412
15240TIP3    H167211   1.551   3.688  12.043  0.2170  1.0622  0.6168
15240TIP3    H267212   1.463   3.598  11.958  0.4241 -0.4262  1.9305
15241TIP3   OH267213   5.403   3.507   5.292 -0.2301  0.6486  0.6971
15241TIP3    H167214   5.328   3.514   5.233  0.4990 -1.1515 -0.5247
15241TIP3    H267215   5.408   3.414   5.314  0.4589  1.0506  2.3546
15242TIP3   OH267216   3.821   2.707  15.368  0.3532 -0.3076  0.0323
15242TIP3    H167217   3.832   2.655  15.447  1.2900 -0.4231 -0.1607
15242TIP3    H267218   3.775   2.650  15.307 -0.1662 -0.2968  0.4072
15243TIP3   OH267219   4.354   5.915   3.948  0.2055 -0.6015  0.3615
15243TIP3    H167220   4.367   5.908   3.853  3.6052  1.0764  0.5700
15243TIP3    H267221   4.372   5.828   3.981 -0.6719 -1.1201 -0.4431
15244TIP3   OH267222   3.596   5.820  13.580  0.0041  0.1339  0.4480
15244TIP3    H167223   3.645   5.770  13.645  0.8061  1.4850  0.9316
15244TIP3    H267224   3.664   5.866  13.529 -0.6992  0.9742  0.2439
15245TIP3   OH267225   5.359   6.183   1.788 -0.4678  0.2279  0.3390
15245TIP3    H167226   5.298   6.124   1.745 -1.8566  1.0674  1.0762
15245TIP3    H267227   5.339   6.175   1.882  0.6289  0.4543  0.6164
15246TIP3   OH267228   4.216   3.088   3.547  0.9227  0.0730  0.2418
15246TIP3    H167229   4.160   3.161   3.571  0.6474  0.3154 -1.0515
15246TIP3    H267230   4.163   3.010   3.566  0.4231  0.2768 -0.2904
15247TIP3   OH267231   3.812   5.436  14.347  0.4257 -0.9773 -0.1937
15247TIP3    H167232   3.778   5.409  14.261 -1.5793 -1.9006  0.8034
15247TIP3    H267233   3.784   5.527  14.356 -0.8070 -1.3647  0.1105
15248TIP3   OH267234   0.279   6.521   3.728 -0.1721  0.1284  0.5035
15248TIP3    H167235   0.346   6.474   3.678  1.0714  0.2734  1.9626
15248TIP3    H267236   0.197   6.501   3.682  0.9028  0.4517 -1.7260
15249TIP3   OH267237   0.564   3.321  14.165 -0.1214  0.2864  0.5242
15249TIP3    H167238   0.605   3.268  14.233 -0.0658  0.8862  0.9569
15249TIP3    H267239   0.611   3.296  14.085 -0.5157 -0.7804  0.6064
15250TIP3   OH267240   1.844   3.932  13.640  0.2388  0.4658  0.0855
15250TIP3    H167241   1.798   3.989  13.701 -0.2517 -1.3653  1.4955
15250TIP3    H267242   1.775   3.891  13.589  0.4671 -0.2271  0.3289
15251TIP3   OH267243   3.225   4.025  11.125 -0.4564 -0.2539 -0.3458
15251TIP3    H167244   3.130   4.026  11.119 -0.3797  1.0211 -2.1237
15251TIP3    H267245   3.247   3.932  11.131 -1.7911 -0.5979 -0.4582
15252TIP3   OH267246   5.348   0.987  15.707  0.3744  0.5696  0.2265
15252TIP3    H167247   5.289   0.917  15.679  1.0795 -0.5060  1.3102
15252TIP3    H267248   5.298   1.036  15.772  0.3592  0.2030  0.4943
15253TIP3   OH267249   6.056   1.844  16.267  0.3793 -1.0025  0.3571
15253TIP3    H167250   6.114   1.914  16.238 -0.9874 -0.5062 -1.3804
15253TIP3    H267251   6.114   1.773  16.294  1.7716  0.1505  0.4441
15254TIP3   OH267252   1.602   5.844   0.044 -0.0261  0.3948 -0.2169
15254TIP3    H167253   1.603   5.828  -0.050 -1.0013 -0.8769 -0.0306
15254TIP3    H267254   1.642   5.931   0.054 -1.8871  1.5372 -1.9956
15255TIP3   OH267255   2.128   3.556   3.107 -0.6196 -0.0231  0.0854
15255TIP3    H167256   2.073   3.479   3.095 -1.5531  0.5483  0.5862
15255TIP3    H267257   2.066   3.627   3.126  0.0314  1.2878 -2.2473
15256TIP3   OH267258   6.205   2.175  13.466 -0.2895  0.2869 -0.3670
15256TIP3    H167259   6.211   2.101  13.405 -2.0071 -1.5573  1.4989
15256TIP3    H267260   6.260   2.148  13.540 -0.3556  1.2277  0.0310
15257TIP3   OH267261   1.169   0.962  16.796 -0.5396 -0.3326 -0.0380
15257TIP3    H167262   1.140   0.969  16.705 -1.0339  1.6855  0.2205
15257TIP3    H267263   1.109   0.899  16.835 -1.1627 -0.2354 -0.7959
15258TIP3   OH267264   4.911   3.852  11.985 -0.2892  0.0245  0.5710
15258TIP3    H167265   5.001   3.820  11.987  0.4145  1.3453 -2.8344
15258TIP3    H267266   4.919   3.947  11.998 -0.8476  0.4550 -1.7507
15259TIP3   OH267267   3.062   0.285   1.326 -0.0588 -0.2485 -0.3935
15259TIP3    H167268   3.046   0.226   1.400 -0.3029  1.9090  1.3983
15259TIP3    H267269   3.156   0.306   1.332 -0.2064  0.4125 -0.2790
15260TIP3   OH267270   6.103   0.486   2.120  0.3420 -0.9484 -0.2119
15260TIP3    H167271   6.145   0.511   2.203 -2.0469 -3.2699  1.8949
15260TIP3    H267272   6.160   0.417   2.085  1.3970  0.0789 -0.5882
15261TIP3   OH267273   6.071   3.236  15.701  0.1838  0.5776 -0.2235
15261TIP3    H167274   6.089   3.250  15.794 -0.0169 -0.7375  0.0352
15261TIP3    H267275   6.054   3.142  15.694 -1.3279  0.9039 -1.3367
15262TIP3   OH267276   1.354   5.737  17.127 -0.6761 -0.3873  0.6460
15262TIP3    H167277   1.418   5.798  17.162 -0.4647 -1.0147  1.3811
15262TIP3    H267278   1.370   5.736  17.032  1.1077 -1.3173  0.9112
15263TIP3   OH267279   3.154   0.640  13.108 -0.1545 -0.1801 -0.5080
15263TIP3    H167280   3.067   0.612  13.078 -0.1362 -2.0376  0.9516
15263TIP3    H267281   3.192   0.685  13.033 -1.5091 -1.3254 -1.9578
15264TIP3   OH267282   0.879   4.017   1.678  0.6863  0.2668 -0.0695
15264TIP3    H167283   0.883   3.972   1.762  1.0049 -0.4036 -0.4361
15264TIP3    H267284   0.882   4.110   1.700 -0.6303  0.1498  0.7473
15265TIP3   OH267285   3.518   4.032   5.250 -0.7960 -0.1601  0.1045
15265TIP3    H167286   3.447   3.968   5.254  0.4938 -1.6170  1.3925
15265TIP3    H267287   3.588   3.992   5.303  0.0227  2.4092  1.0862
15266TIP3   OH267288   0.954   1.824   0.645  0.7189  0.0101 -0.8644
15266TIP3    H167289   1.011   1.895   0.677  0.6968 -0.2399 -0.2487
15266TIP3    H267290   0.927   1.852   0.558  0.6141  0.8135 -0.5784
15267TIP3   OH267291   6.687   1.251  11.497 -0.1220  0.2904 -0.7785
15267TIP3    H167292   6.691   1.318  11.428  1.6834 -0.1733 -1.1831
15267TIP3    H267293   6.700   1.169  11.450  0.3036 -0.1036  0.0161
15268TIP3   OH267294   2.707   4.960  11.879 -0.0983 -0.2631  0.2587
15268TIP3    H167295   2.637   5.015  11.916  0.6836  2.5646 -2.0858
15268TIP3    H267296   2.661   4.898  11.823 -0.8733 -0.1494  0.7521
15269TIP3   OH267297   2.187   5.855  14.224 -1.1260  0.2030 -0.1466
15269TIP3    H167298   2.226   5.929  14.271 -1.9285  1.6747 -1.6637
15269TIP3    H267299   2.261   5.800  14.199 -0.3595  1.2316 -0.1834
15270TIP3   OH267300   4.494   4.151  12.950 -0.4787 -0.4054 -0.1104
15270TIP3    H167301   4.585   4.183  12.948 -0.0623 -1.5513 -0.2113
15270TIP3    H267302   4.498   4.065  12.909 -1.5832 -0.5699  0.0998
15271TIP3   OH267303   4.410   2.247  12.722 -0.0194 -0.6260 -0.1874
15271TIP3    H167304   4.483   2.188  12.699  0.5196 -0.0368 -0.0242
15271TIP3    H267305   4.351   2.192  12.773  0.1372 -1.2114 -0.6212
15272TIP3   OH267306   3.961   1.672  10.568 -0.8772 -0.1848  0.2658
15272TIP3    H167307   4.047   1.649  10.602  0.1128  1.5118 -0.9355
15272TIP3    H267308   3.942   1.757  10.606 -0.9865  0.4701 -1.2081
15273TIP3   OH267309   1.142   4.879   1.435  0.6131 -0.7503 -0.7092
15273TIP3    H167310   1.090   4.956   1.411 -0.7022 -1.1973  0.5802
15273TIP3    H267311   1.167   4.841   1.352  0.8050  0.7397 -1.3773
15274TIP3   OH267312   4.608   2.076   3.005  0.2192 -0.6453  0.7267
15274TIP3    H167313   4.627   2.039   2.918  0.7296 -0.3590  0.7141
15274TIP3    H267314   4.639   2.166   3.000 -1.3314 -0.0889  0.6489
15275TIP3   OH267315   3.997   0.708   2.238 -0.4515 -0.0736  0.1867
15275TIP3    H167316   4.064   0.660   2.189  0.4421  0.3202  0.9931
15275TIP3    H267317   3.936   0.739   2.172 -0.3207 -1.1962 -0.4761
15276TIP3   OH267318   0.333   0.672  15.517 -0.1605 -0.2049  0.3807
15276TIP3    H167319   0.393   0.610  15.476 -0.5552 -1.4841  1.6621
15276TIP3    H267320   0.369   0.758  15.494  0.7618 -0.8933 -0.8986
15277TIP3   OH267321   3.092   1.270  12.551  0.2265 -0.6996  0.5720
15277TIP3    H167322   3.052   1.340  12.603  0.4998  2.4115 -2.9340
15277TIP3    H267323   3.186   1.279  12.566  0.2427 -0.4944  0.3552
15278TIP3   OH267324   6.170   5.201  16.437  0.2735 -0.5688 -0.2330
15278TIP3    H167325   6.216   5.196  16.521  1.7744 -0.3236 -0.9912
15278TIP3    H267326   6.173   5.293  16.413 -0.6945 -0.5427 -0.2756
15279TIP3   OH267327   5.438   2.318   2.931 -0.7529 -0.1335 -0.5141
15279TIP3    H167328   5.471   2.394   2.979  0.2221 -1.1807  0.5493
15279TIP3    H267329   5.465   2.334   2.840 -0.5218  0.7613 -0.2987
15280TIP3   OH267330   4.098   4.694   4.656 -0.1408 -0.4778 -0.1593
15280TIP3    H167331   4.177   4.718   4.607  0.4888 -0.4209  0.8345
15280TIP3    H267332   4.091   4.762   4.724 -2.3371  0.8017 -1.5735
15281TIP3   OH267333   3.117   4.523   0.855  0.2316 -0.1275 -0.4516
15281TIP3    H167334   3.085   4.434   0.873 -0.8160  0.4165  0.5576
15281TIP3    H267335   3.169   4.545   0.933  0.5257  0.1236 -0.7190
15282TIP3   OH267336   4.529   5.829   3.032 -0.1422 -0.0526 -0.0998
15282TIP3    H167337   4.443   5.819   2.991  0.6135 -0.6045 -1.6548
15282TIP3    H267338   4.517   5.899   3.096 -1.8887 -0.5518  0.1727
15283TIP3   OH267339   6.610   3.638  14.209  0.3945 -0.0447  0.3020
15283TIP3    H167340   6.569   3.552  14.215  1.8228 -0.7327  0.7047
15283TIP3    H267341   6.622   3.653  14.115  0.3001 -0.3624  0.2393
15284TIP3   OH267342   6.157   4.811  15.791 -0.1349 -0.3975  0.2367
15284TIP3    H167343   6.224   4.755  15.829  0.9028  0.1641 -0.7000
15284TIP3    H267344   6.178   4.814  15.697  1.0023  2.9687  0.4446
15285TIP3   OH267345   0.863   3.719  16.747 -0.5943 -0.5453 -0.1807
15285TIP3    H167346   0.868   3.761  16.833 -0.4375  1.3489 -1.0641
15285TIP3    H267347   0.952   3.720  16.714 -0.7149 -0.9174 -0.5293
15286TIP3   OH267348   6.288   3.281  11.386 -0.5204 -0.4906 -0.4187
15286TIP3    H167349   6.260   3.372  11.379  0.3987 -0.1030  0.5921
15286TIP3    H267350   6.248   3.250  11.468 -0.0878 -0.7136 -0.2914
15287TIP3   OH267351   2.602   2.352   1.104 -0.2909 -0.1013  0.4926
15287TIP3    H167352   2.591   2.322   1.194 -1.0906 -1.6001 -0.0764
15287TIP3    H267353   2.571   2.443   1.105 -1.8252 -0.5946  1.3963
15288TIP3   OH267354   5.435   5.460  16.556 -0.0622 -0.5199 -0.3988
15288TIP3    H167355   5.368   5.397  16.533 -1.1434  0.3327  0.2886
15288TIP3    H267356   5.480   5.420  16.631  1.8428 -2.1739 -2.3029
15289TIP3   OH267357   3.686   0.091   5.420 -0.2474  0.7355  0.3492
15289TIP3    H167358   3.728   0.176   5.404 -0.1882  0.3849 -1.6300
15289TIP3    H267359   3.753   0.027   5.399 -0.8073  0.1841  0.2337
15290TIP3   OH267360   5.014   1.261  10.977  0.0819  0.7643 -0.2282
15290TIP3    H167361   5.098   1.293  10.942  0.7032  0.1349  0.6516
15290TIP3    H267362   4.967   1.229  10.900  1.5207 -0.8197 -0.4947
15291TIP3   OH267363   4.403   5.939   0.956 -0.2296  0.4385  0.4028
15291TIP3    H167364   4.492   5.940   0.920  0.2082  0.1529  1.4453
15291TIP3    H267365   4.346   5.953   0.880  0.6672 -0.1753 -0.4022
15292TIP3   OH267366   4.272   0.944   5.513  0.0940  0.3655  0.3942
15292TIP3    H167367   4.294   1.037   5.523 -0.5954  0.7444 -1.3089
15292TIP3    H267368   4.227   0.922   5.595 -0.2749  1.6933  0.5849
15293TIP3   OH267369   0.195   0.058   1.340 -0.5709  0.7130 -0.0111
15293TIP3    H167370   0.268   0.118   1.327  0.1065  0.3437  1.7624
15293TIP3    H267371   0.185   0.014   1.255  2.5946 -0.6480  0.1407
15294TIP3   OH267372   2.417   3.307   0.972 -0.6607  0.0153  0.3765
15294TIP3    H167373   2.475   3.334   1.043 -3.0317  0.3906  2.3161
15294TIP3    H267374   2.329   3.334   1.001 -2.2120 -2.9374 -1.0852
15295TIP3   OH267375   6.276   0.880  11.727  0.3852  0.5273  0.3252
15295TIP3    H167376   6.248   0.817  11.660 -2.3415  2.1229 -0.2066
15295TIP3    H267377   6.345   0.931  11.683  0.4387 -0.0863 -0.3364
15296TIP3   OH267378   6.274   3.229  11.927  0.3725 -0.3619  0.6214
15296TIP3    H167379   6.320   3.166  11.983  0.8022 -0.4928  0.1212
15296TIP3    H267380   6.189   3.240  11.970 -0.3445 -2.4684 -0.1027
15297TIP3   OH267381   3.860   2.600   0.014 -0.5940 -0.4989  0.3855
15297TIP3    H167382   3.907   2.648   0.082  0.8115 -1.4927  0.1477
15297TIP3    H267383   3.778   2.649   0.002  0.0041  0.7915  1.4024
15298TIP3   OH267384   3.322   0.883  15.364 -0.1951  0.0612  0.0000
15298TIP3    H167385   3.397   0.836  15.330 -1.9095 -1.5696 -1.7821
15298TIP3    H267386   3.257   0.881  15.293 -1.6477  2.0918  1.1485
15299TIP3   OH267387   3.468   0.700   5.040 -0.0201 -0.2122  0.3976
15299TIP3    H167388   3.387   0.652   5.056 -0.8089  0.4848 -1.2479
15299TIP3    H267389   3.538   0.635   5.050 -1.0231 -1.6966 -1.5874
15300TIP3   OH267390   4.854   5.007  13.948  0.0572  0.0554  0.1910
15300TIP3    H167391   4.793   5.012  13.875  2.1170 -1.0638 -1.7182
15300TIP3    H267392   4.883   5.098  13.961 -2.7977  0.8622  2.0211
15301TIP3   OH267393   3.649   2.211  14.808  0.2589 -0.3745  0.6356
15301TIP3    H167394   3.621   2.150  14.877 -2.3678  0.2935  0.2487
15301TIP3    H267395   3.615   2.174  14.727 -0.2491  0.9325  0.2300
15302TIP3   OH267396   6.549   6.694   3.821 -0.2418 -0.0308 -0.3252
15302TIP3    H167397   6.513   6.769   3.772  0.5479  0.1661 -0.6278
15302TIP3    H267398   6.542   6.620   3.760  1.4823  0.3801 -1.0806
15303TIP3   OH267399   5.288   1.941  14.534 -0.0273  0.3035  0.1624
15303TIP3    H167400   5.366   1.962  14.585  0.4173 -0.2264 -0.2744
15303TIP3    H267401   5.218   1.994  14.572  0.0893 -0.6802  1.8637
15304TIP3   OH267402   5.895   0.650   2.045  0.9223  0.5178  0.1288
15304TIP3    H167403   5.869   0.588   1.976 -2.5135  0.2496  1.4629
15304TIP3    H267404   5.964   0.605   2.093  1.8189 -0.2218 -1.7630
15305TIP3   OH267405   2.491   4.426   3.787 -0.1382 -0.0365 -0.8631
15305TIP3    H167406   2.564   4.399   3.731  0.8153  2.0390 -0.7241
15305TIP3    H267407   2.501   4.521   3.796 -0.9283 -0.1046  1.8390
15306TIP3   OH267408   3.190   5.535   3.994 -0.8503 -0.4176  0.3443
15306TIP3    H167409   3.252   5.477   4.037  2.0772  1.3522 -1.1942
15306TIP3    H267410   3.146   5.480   3.930  1.3096 -1.1879 -0.5559
15307TIP3   OH267411   5.303   3.012  11.758  0.4331  0.4198 -0.2090
15307TIP3    H167412   5.276   3.027  11.667 -1.8122 -2.3385 -0.1262
15307TIP3    H267413   5.222   3.021  11.809  1.2744  0.0054  1.2596
15308TIP3   OH267414   4.659   2.480   0.065 -0.3527  0.2062  0.0559
15308TIP3    H167415   4.638   2.461  -0.026  1.5669  0.3602 -0.4748
15308TIP3    H267416   4.733   2.421   0.085  1.0084  2.0174  0.6409
15309TIP3   OH267417   6.508   4.244  14.114 -0.0394 -0.2895 -0.4810
15309TIP3    H167418   6.562   4.316  14.148 -2.7465  0.9439  1.6605
15309TIP3    H267419   6.542   4.166  14.157 -2.0007  0.9430  3.8781
15310TIP3   OH267420   3.574   1.375   6.188  0.4536 -0.2703  0.0313
15310TIP3    H167421   3.495   1.401   6.234  0.8085  0.4844  0.2314
15310TIP3    H267422   3.646   1.410   6.242  0.8922 -0.0792 -0.6625
15311TIP3   OH267423   2.442   4.097  13.605  0.4340 -0.2048 -0.4452
15311TIP3    H167424   2.399   4.081  13.521 -2.1679  2.8092  0.0892
15311TIP3    H267425   2.447   4.012  13.647 -0.8305 -1.3571 -2.4796
15312TIP3   OH267426   3.916   2.576  14.895 -0.0331  0.3689 -0.6147
15312TIP3    H167427   3.899   2.656  14.943 -0.6033  1.6060 -2.7369
15312TIP3    H267428   4.005   2.586  14.862  0.9157 -1.1323  1.3112
15313TIP3   OH267429   2.818   0.408   1.275  0.1688 -0.7904  0.7353
15313TIP3    H167430   2.910   0.383   1.272  0.0167 -1.2655 -0.9470
15313TIP3    H267431   2.772   0.325   1.291  0.0467 -0.4062  2.6868
15314TIP3   OH267432   0.568   3.138  15.863  0.6132 -0.8987  0.0732
15314TIP3    H167433   0.584   3.098  15.778 -0.5451 -1.9947  0.3335
15314TIP3    H267434   0.655   3.156  15.899  1.1224 -1.3278 -0.9159
15315TIP3   OH267435   6.365   0.713   1.124 -0.0995 -0.2828 -0.1172
15315TIP3    H167436   6.281   0.733   1.082  0.2677  0.6565 -0.4331
15315TIP3    H267437   6.418   0.792   1.110  0.4013 -0.3688  1.2000
15316TIP3   OH267438   4.076   0.070  14.190  0.4976  0.1080  0.8299
15316TIP3    H167439   4.120   0.045  14.108 -0.8267 -3.3441  1.0095
15316TIP3    H267440   4.144   0.059  14.257  0.5288 -1.1079  0.6245
15317TIP3   OH267441   3.757   4.995   3.117 -0.2620 -0.2457 -0.0418
15317TIP3    H167442   3.835   4.963   3.163 -0.5218  0.1928  0.7242
15317TIP3    H267443   3.792   5.055   3.051  0.0212  0.5716  0.8261
15318TIP3   OH267444   0.753   0.108   2.720  0.1772 -0.3944 -0.1530
15318TIP3    H167445   0.679   0.048   2.728 -0.5749  0.4185 -0.9311
15318TIP3    H267446   0.780   0.101   2.629 -0.7874  1.4528 -0.6170
15319TIP3   OH267447   6.207   4.297   2.299 -0.6066 -0.6436  0.4501
15319TIP3    H167448   6.131   4.284   2.242  0.9065 -1.1220 -1.5463
15319TIP3    H267449   6.208   4.220   2.355 -2.2709 -0.0408  1.4070
15320TIP3   OH267450   1.206   5.801   2.663  0.3916 -0.3173 -0.4110
15320TIP3    H167451   1.288   5.780   2.620  0.5598  3.7243 -2.5211
15320TIP3    H267452   1.230   5.864   2.731 -0.7310 -0.6483  0.3097
15321TIP3   OH267453   1.655   5.232  15.051 -0.6582  0.7819 -0.3262
15321TIP3    H167454   1.633   5.173  14.979  2.8239  0.3123 -1.1521
15321TIP3    H267455   1.699   5.306  15.009  1.1854  0.6488  1.2194
15322TIP3   OH267456   6.055   4.927  16.606  0.0643  0.1110  0.0883
15322TIP3    H167457   6.023   4.888  16.687  0.3616  0.0717  0.1890
15322TIP3    H267458   6.024   5.018  16.608 -1.6578 -0.4124 -0.6972
15323TIP3   OH267459   0.577   4.961  11.248 -0.2347  0.3147  0.2135
15323TIP3    H167460   0.590   5.055  11.260  0.9091  0.4929 -1.9158
15323TIP3    H267461   0.664   4.923  11.258 -0.5024 -0.3749 -0.0153
15324TIP3   OH267462   4.810   4.828   3.275 -0.3653 -0.1025  0.0511
15324TIP3    H167463   4.738   4.767   3.284 -0.2085 -0.5373 -1.3457
15324TIP3    H267464   4.824   4.863   3.363  0.3589 -2.9841  1.1723
15325TIP3   OH267465   4.972   2.140   5.266  0.0266 -0.1752 -0.2266
15325TIP3    H167466   4.995   2.122   5.175  1.1948  0.8502 -0.1645
15325TIP3    H267467   5.015   2.223   5.285 -1.9274  0.6890  0.6478
15326TIP3   OH267468   6.225   1.624   3.774  0.1417 -0.4008  0.1631
15326TIP3    H167469   6.164   1.554   3.797  0.3192 -1.0054 -1.1439
15326TIP3    H267470   6.176   1.705   3.790 -0.3038 -0.8245  1.0208
15327TIP3   OH267471   1.773   3.404  16.702  0.3971  0.7621 -0.0842
15327TIP3    H167472   1.751   3.311  16.708 -0.2205  0.8188 -1.1081
15327TIP3    H267473   1.761   3.438  16.790 -1.1580  0.2313 -0.0682
15328TIP3   OH267474   1.778   5.306  11.249  0.4202  0.6400 -0.2709
15328TIP3    H167475   1.838   5.334  11.318  1.9029 -1.5113 -0.5848
15328TIP3    H267476   1.724   5.239  11.290 -0.7620  1.4765 -0.4188
15329TIP3   OH267477   4.807   3.063  13.673  0.1532 -0.8129  0.6958
15329TIP3    H167478   4.795   3.012  13.753 -1.8087 -1.7132 -0.0970
15329TIP3    H267479   4.848   3.002  13.612 -1.5339 -1.2893 -0.0261
15330TIP3   OH267480   1.802   1.917   4.313 -0.1376  0.5019  0.1178
15330TIP3    H167481   1.779   1.825   4.302  2.0917 -0.1599  0.5176
15330TIP3    H267482   1.819   1.927   4.406  0.5403  1.0983 -0.0599
15331TIP3   OH267483   3.844   5.840   2.815  0.0259  0.1102 -0.2092
15331TIP3    H167484   3.854   5.935   2.822 -3.1357  0.5119  0.2786
15331TIP3    H267485   3.861   5.821   2.723 -0.1352  1.2728 -0.4963
15332TIP3   OH267486   6.625   1.643   1.399 -0.2608 -0.2729  0.0786
15332TIP3    H167487   6.651   1.734   1.384 -0.2119 -0.2924  0.0438
15332TIP3    H267488   6.566   1.622   1.326 -1.2188  0.1038  0.7278
15333TIP3   OH267489   3.457   4.870   2.100  0.1419 -0.0381  0.6044
15333TIP3    H167490   3.425   4.900   2.015 -1.2395  0.1125  1.1486
15333TIP3    H267491   3.547   4.902   2.105  0.2644 -0.1164 -0.8184
15334TIP3   OH267492   1.478   2.471   0.851 -0.3722 -0.2373  0.3846
15334TIP3    H167493   1.390   2.497   0.823 -0.1100  0.0641 -0.1950
15334TIP3    H267494   1.474   2.471   0.946 -0.7701  0.6250  0.3842
15335TIP3   OH267495   0.279   4.033   4.982 -0.1019  0.3256  0.0618
15335TIP3    H167496   0.299   3.992   5.066 -0.7914  0.2576  0.1976
15335TIP3    H267497   0.362   4.071   4.954  1.0089 -2.5543 -0.8776
15336TIP3   OH267498   3.087   2.406   2.320 -0.0165  0.0403  0.2827
15336TIP3    H167499   3.162   2.352   2.295 -1.9275 -3.0551  0.7638
15336TIP3    H267500   3.062   2.449   2.238  1.0759 -0.4254 -0.3312
15337TIP3   OH267501   1.675   5.587   4.615  0.2159  0.1101  0.0686
15337TIP3    H167502   1.710   5.601   4.527 -0.0565  3.3589  0.3553
15337TIP3    H267503   1.753   5.579   4.671  0.4650  1.2376 -0.0922
15338TIP3   OH267504   3.113   1.623   5.946  0.0798  0.3808 -0.4570
15338TIP3    H167505   3.163   1.703   5.963 -0.4077  0.4201  0.9058
15338TIP3    H267506   3.023   1.647   5.968 -0.5628  0.2617 -2.7169
15339TIP3   OH267507   6.196   5.394   0.344 -0.3138  0.3990 -0.1974
15339TIP3    H167508   6.264   5.446   0.303 -0.0077  1.1246  1.1745
15339TIP3    H267509   6.230   5.304   0.345  0.6354  0.7524  0.4600
15340TIP3   OH267510   5.527   5.657   6.554  0.0576 -0.3210 -0.1444
15340TIP3    H167511   5.488   5.737   6.587 -2.7490 -1.5334 -0.2707
15340TIP3    H267512   5.565   5.614   6.631  1.3599  0.9567 -0.0420
15341TIP3   OH267513   3.757   3.858   3.933  0.4565  0.0346  0.3111
15341TIP3    H167514   3.784   3.802   3.860  3.3395 -3.3983  3.6009
15341TIP3    H267515   3.700   3.802   3.986 -0.0860  1.7569  1.6286
15342TIP3   OH267516   5.170   4.029  16.568  0.2184 -0.0290 -0.1727
15342TIP3    H167517   5.134   4.022  16.657  0.5733 -1.8213 -0.1314
15342TIP3    H267518   5.141   3.948  16.525  0.4319  0.6139 -1.5534
15343TIP3   OH267519   4.271   1.468  11.085 -1.0121 -0.5826  0.2935
15343TIP3    H167520   4.340   1.416  11.125 -0.7003  0.2649  0.8757
15343TIP3    H267521   4.267   1.437  10.995 -0.0810 -0.8551  0.3350
15344TIP3   OH267522   3.919   3.833  13.354  0.1436  0.2175 -0.1283
15344TIP3    H167523   3.917   3.841  13.259  1.2376  0.7668 -0.1273
15344TIP3    H267524   3.833   3.862  13.383  0.0970  0.8895 -0.9021
15345TIP3   OH267525   2.603   5.282   5.678  0.2474 -0.0537  0.0457
15345TIP3    H167526   2.668   5.325   5.623 -1.5119 -0.0036 -2.1346
15345TIP3    H267527   2.620   5.316   5.766  1.7168  1.6726 -0.8290
15346TIP3   OH267528   3.408   5.504  15.581  0.6497 -0.2487 -0.0851
15346TIP3    H167529   3.419   5.412  15.606  1.1642 -0.6275 -1.6348
15346TIP3    H267530   3.382   5.547  15.663  2.7707 -1.3084  1.2621
15347TIP3   OH267531   4.601   3.750   1.409 -0.1526 -0.3003 -0.0723
15347TIP3    H167532   4.677   3.698   1.436  0.3591  0.4135 -0.1158
15347TIP3    H267533   4.567   3.703   1.333 -1.7394 -2.4590  1.8266
15348TIP3   OH267534   4.324   0.383   5.437 -0.0205 -0.4343  0.5065
15348TIP3    H167535   4.352   0.421   5.354 -1.4975 -0.6187 -0.0956
15348TIP3    H267536   4.360   0.294   5.436 -0.6342 -0.6783 -0.2606
15349TIP3   OH267537   1.374   3.225   1.123  0.2331 -0.2541 -0.3528
15349TIP3    H167538   1.311   3.184   1.063 -1.7016  1.6195  0.2857
15349TIP3    H267539   1.442   3.258   1.065  0.7064 -2.2945 -1.0710
15350TIP3   OH267540   4.135   4.268  15.765 -0.4670 -0.2463 -0.1869
15350TIP3    H167541   4.212   4.245  15.712  0.2578 -1.0638  1.1610
15350TIP3    H267542   4.152   4.358  15.793 -1.6500  0.8296 -2.6207
15351TIP3   OH267543   2.436   5.964  16.869 -0.2673  0.5737 -0.5751
15351TIP3    H167544   2.417   6.036  16.929  0.8095  1.6328 -1.4800
15351TIP3    H267545   2.405   5.994  16.784  0.2132 -0.0296 -0.9726
15352TIP3   OH267546   2.766   1.773  11.568 -0.4215  0.3616  0.0388
15352TIP3    H167547   2.830   1.714  11.607 -0.2547 -0.3593 -1.2566
15352TIP3    H267548   2.788   1.774  11.475 -1.9490  0.5275 -0.3553
15353TIP3   OH267549   2.949   5.783  14.911 -0.1848  0.5495 -0.3070
15353TIP3    H167550   3.017   5.746  14.854 -0.5392 -2.1964  0.9394
15353TIP3    H267551   2.883   5.817  14.850  0.2713 -0.7052 -1.5357
15354TIP3   OH267552   0.379   2.923  14.048 -0.3580  0.3984 -0.7309
15354TIP3    H167553   0.287   2.908  14.068 -0.2974  1.1953  0.2123
15354TIP3    H267554   0.425   2.909  14.131  0.8118 -3.0370 -1.8036
15355TIP3   OH267555   2.872   6.613   2.126  0.2508 -0.3900 -0.0624
15355TIP3    H167556   2.904   6.581   2.211  0.6968  0.7273  0.2033
15355TIP3    H267557   2.932   6.683   2.103 -1.6580  1.4330  0.1967
15356TIP3   OH267558   6.224   3.561   1.681 -0.1631 -0.2222 -0.4138
15356TIP3    H167559   6.152   3.607   1.638 -0.0898 -2.3684 -3.1404
15356TIP3    H267560   6.303   3.589   1.634  0.4769  0.1402  0.8237
15357TIP3   OH267561   4.898   0.459   1.670 -0.0282  1.0943 -0.5197
15357TIP3    H167562   4.892   0.364   1.668  2.3248  0.8936 -0.8173
15357TIP3    H267563   4.988   0.477   1.696 -0.9046  3.2742  1.3795
15358TIP3   OH267564   5.301   6.360  15.040 -0.2114  0.2133 -0.0775
15358TIP3    H167565   5.233   6.372  14.973 -2.7275 -2.2930  1.7956
15358TIP3    H267566   5.341   6.275  15.019 -1.1665 -0.6966  1.6037
15359TIP3   OH267567   4.998   6.038   4.373 -0.2046 -0.7923  0.9857
15359TIP3    H167568   4.949   6.048   4.455 -0.0509  2.7170  0.7823
15359TIP3    H267569   4.932   6.011   4.309 -0.6757 -1.7792  1.8544
15360TIP3   OH267570   6.608   1.178   1.884 -0.1383 -0.8369  0.0623
15360TIP3    H167571   6.676   1.140   1.828 -0.3026  0.4518 -1.0742
15360TIP3    H267572   6.608   1.123   1.962  0.6484 -2.2399 -0.8668
15361TIP3   OH267573   2.045   0.629  13.879 -0.0268  0.0607 -0.5609
15361TIP3    H167574   2.080   0.718  13.879 -1.3644  0.6208 -1.0220
15361TIP3    H267575   2.096   0.583  13.945  3.1202  0.1505 -2.7268
15362TIP3   OH267576   6.501   3.788  12.017 -0.0518 -0.0640 -0.8343
15362TIP3    H167577   6.525   3.813  11.928  0.4794  2.1635 -0.1181
15362TIP3    H267578   6.438   3.854  12.045 -2.5104 -2.3683 -0.5066
15363TIP3   OH267579   3.155   4.306   0.655  0.3690 -0.0568  0.4903
15363TIP3    H167580   3.172   4.236   0.592  0.7747  0.2495  0.2575
15363TIP3    H267581   3.232   4.306   0.711  1.3933  1.6365 -0.8411
15364TIP3   OH267582   2.935   0.657  12.369 -0.5610  0.0663 -0.3552
15364TIP3    H167583   2.894   0.574  12.343  0.2233 -1.1120  1.9497
15364TIP3    H267584   3.025   0.650  12.337 -0.0532 -0.6836  1.1772
15365TIP3   OH267585   2.024   2.627  15.474 -0.7483 -0.2681 -0.8346
15365TIP3    H167586   2.093   2.641  15.539 -0.9219 -0.0788 -0.6912
15365TIP3    H267587   2.070   2.590  15.398 -0.4553  0.0769 -0.8252
15366TIP3   OH267588   3.002   3.875  14.707  0.4072  0.2368  0.3405
15366TIP3    H167589   3.084   3.833  14.732 -0.1093 -1.2450 -0.3837
15366TIP3    H267590   2.940   3.803  14.698 -0.9496  1.3183  0.7231
15367TIP3   OH267591   6.722   3.120   1.201  0.0919 -0.1568  0.5146
15367TIP3    H167592   6.803   3.148   1.245  1.4122 -2.2239 -0.4174
15367TIP3    H267593   6.689   3.049   1.256  0.3111 -0.9681 -0.3546
15368TIP3   OH267594   5.578   4.778   1.204 -0.3198  0.0328 -0.2609
15368TIP3    H167595   5.611   4.764   1.293 -1.1748  1.4343  0.2998
15368TIP3    H267596   5.551   4.691   1.175  1.3918 -0.7115  0.2429
15369TIP3   OH267597   1.108   1.943  16.608  0.2531 -0.4695 -0.1770
15369TIP3    H167598   1.066   1.864  16.640 -1.8637  0.4350 -0.5233
15369TIP3    H267599   1.113   2.000  16.684  0.2803 -0.3561 -0.2631
15370TIP3   OH267600   6.014   1.049   4.979 -0.4791  0.0498  0.1744
15370TIP3    H167601   6.040   1.141   4.991 -1.0204  0.2540 -0.2093
15370TIP3    H267602   5.969   1.027   5.061 -0.1272  0.0406  0.3718
15371TIP3   OH267603   1.181   3.756   5.910 -0.4738 -0.3371 -0.2696
15371TIP3    H167604   1.212   3.708   5.986 -0.5718  0.0103 -0.0051
15371TIP3    H267605   1.146   3.838   5.946  1.9177  1.0619 -0.8948
15372TIP3   OH267606   2.897   5.522   3.364 -0.4914 -0.9278 -0.1779
15372TIP3    H167607   2.929   5.455   3.304  1.9002 -0.0562  0.0248
15372TIP3    H267608   2.959   5.594   3.355 -0.4487 -0.4681  2.8159
15373TIP3   OH267609   0.880   3.992   4.675 -0.4017  0.7655  0.5029
15373TIP3    H167610   0.787   3.974   4.663 -0.1783 -0.3324  0.2940
15373TIP3    H267611   0.883   4.071   4.727 -1.4752  0.0286  1.7336
15374TIP3   OH267612   2.444   2.893   4.136  0.3912 -0.1160  0.2318
15374TIP3    H167613   2.484   2.818   4.181  5.3402  1.1040 -1.5126
15374TIP3    H267614   2.382   2.853   4.074  0.2165 -2.4004  1.7332
15375TIP3   OH267615   0.735   1.024  14.171 -0.0960 -0.4056  0.1037
15375TIP3    H167616   0.804   0.988  14.227 -0.0072 -1.4200 -0.6134
15375TIP3    H267617   0.743   1.119  14.180  2.0367 -0.4550 -0.6648
15376TIP3   OH267618   5.493   6.453   1.623 -0.1235 -0.1347 -0.1730
15376TIP3    H167619   5.501   6.422   1.714 -0.2584  0.8569  0.1907
15376TIP3    H267620   5.513   6.547   1.628 -3.1700  0.6421 -0.6346
15377TIP3   OH267621   5.024   3.664   5.228  0.0663  0.0719  0.0252
15377TIP3    H167622   4.995   3.628   5.312 -0.2709  2.0903  0.8350
15377TIP3    H267623   5.095   3.605   5.200  0.3477 -0.5151  1.8375
15378TIP3   OH267624   4.701   3.615  12.193  0.3002  0.3648 -0.4786
15378TIP3    H167625   4.699   3.701  12.150  2.3238  0.5766 -0.2502
15378TIP3    H267626   4.666   3.555  12.128  0.5107  1.1218 -1.3167
15379TIP3   OH267627   2.396   4.045   6.095  0.3069 -0.2821 -0.1658
15379TIP3    H167628   2.417   3.973   6.155  0.1910 -0.7669 -0.7043
15379TIP3    H267629   2.430   4.123   6.140 -0.1707 -0.5708  0.7380
15380TIP3   OH267630   1.561   0.293  11.604  0.9303 -0.5960  0.1111
15380TIP3    H167631   1.616   0.290  11.682  0.5669 -0.2753  0.3853
15380TIP3    H267632   1.474   0.267  11.634  1.1218 -2.0451 -0.5070
15381TIP3   OH267633   1.357   1.770  12.460 -0.0277  0.1389  0.2891
15381TIP3    H167634   1.403   1.832  12.517  1.2440 -0.9400  0.4958
15381TIP3    H267635   1.416   1.695  12.455 -0.7966 -0.4007 -1.2492
15382TIP3   OH267636   0.412   1.896   0.043  0.2231 -0.4786  0.7131
15382TIP3    H167637   0.361   1.838   0.099  1.9900  0.2130  3.2196
15382TIP3    H267638   0.481   1.930   0.100  1.2657  1.4782 -1.5287
15383TIP3   OH267639   0.152   1.171  11.319  0.4657 -0.1215  0.1925
15383TIP3    H167640   0.180   1.126  11.398  2.2044  0.2102 -0.1928
15383TIP3    H267641   0.057   1.180  11.329  0.5987 -0.3381  2.1017
15384TIP3   OH267642   5.797   1.554   1.984  0.0211 -0.1944  0.4165
15384TIP3    H167643   5.889   1.527   1.989  0.2312  0.3790 -0.2996
15384TIP3    H267644   5.795   1.638   2.031  0.2036  0.6326 -1.0167
15385TIP3   OH267645   6.302   3.554   2.071  0.4320 -0.3773  0.4132
15385TIP3    H167646   6.266   3.539   2.159 -0.4190  1.9928  0.5391
15385TIP3    H267647   6.224   3.565   2.016  0.9285  1.0710 -0.0398
15386TIP3   OH267648   3.674   6.796   2.220  0.0919  0.2359  0.1850
15386TIP3    H167649   3.728   6.828   2.148 -1.7144  1.7645 -0.5793
15386TIP3    H267650   3.651   6.875   2.270 -0.5460 -0.5061  1.1073
15387TIP3   OH267651   5.910   2.469  15.760  0.1271  0.6407  0.2172
15387TIP3    H167652   5.944   2.511  15.840 -0.6630 -0.0321  0.9257
15387TIP3    H267653   5.988   2.432  15.718  0.4594  0.2074  1.1715
15388TIP3   OH267654   1.319   4.752   0.476 -0.5687  0.1584 -0.0611
15388TIP3    H167655   1.304   4.830   0.422 -1.3143  0.0849  0.0289
15388TIP3    H267656   1.298   4.679   0.418  2.7437 -0.1673 -1.0637
15389TIP3   OH267657   0.606   4.916   1.090 -0.1581 -0.4115 -0.1252
15389TIP3    H167658   0.666   4.884   1.023  1.1605 -0.9153  1.2407
15389TIP3    H267659   0.651   4.900   1.173 -1.6066  0.4550  0.8866
15390TIP3   OH267660   2.414   3.934  13.116 -0.1334  0.2456  0.2280
15390TIP3    H167661   2.505   3.906  13.127  0.0893  0.9390  0.1674
15390TIP3    H267662   2.373   3.863  13.067 -0.4230 -1.5925  2.9148
15391TIP3   OH267663   6.377   5.496  16.680 -0.0366 -0.0496 -0.0770
15391TIP3    H167664   6.300   5.523  16.729  0.7835  2.4749 -0.0465
15391TIP3    H267665   6.383   5.557  16.607  0.6934 -1.6081 -1.4103
15392TIP3   OH267666   4.163   4.527   3.999 -0.2187  0.0913  0.0060
15392TIP3    H167667   4.083   4.478   4.018 -0.6693  0.2841 -1.2640
15392TIP3    H267668   4.165   4.595   4.066 -1.8220  0.8546 -0.6544
15393TIP3   OH267669   4.363   3.465  14.091  0.1501 -0.4023  0.3468
15393TIP3    H167670   4.286   3.519  14.112  0.0967 -0.9684  1.7486
15393TIP3    H267671   4.327   3.383  14.060  0.2145 -0.2117 -0.2435
15394TIP3   OH267672   0.631   0.618  10.349  0.1085  0.2342 -0.5539
15394TIP3    H167673   0.558   0.672  10.321 -1.3484 -0.7498  1.1178
15394TIP3    H267674   0.677   0.672  10.414  0.9374  0.8647 -1.6292
15395TIP3   OH267675   3.036   0.532  12.084  0.2368 -0.1336  0.1545
15395TIP3    H167676   2.943   0.530  12.103  0.4318  0.5211  1.2758
15395TIP3    H267677   3.048   0.610  12.030 -0.0676 -1.0632 -1.3154
15396TIP3   OH267678   3.635   2.235   0.971 -0.0823 -0.1023 -0.1695
15396TIP3    H167679   3.575   2.216   0.899 -0.2480  1.1540 -0.3823
15396TIP3    H267680   3.581   2.229   1.050 -1.1224  3.0908 -0.4758
15397TIP3   OH267681   0.173   3.553   1.552  0.3363 -0.2452 -0.0106
15397TIP3    H167682   0.096   3.554   1.494 -0.3512  1.1475  0.8551
15397TIP3    H267683   0.223   3.631   1.527  0.1718  0.2237  1.0472
15398TIP3   OH267684   0.290   0.518   5.122  0.8740 -0.1172  0.0052
15398TIP3    H167685   0.373   0.487   5.159  1.2324 -0.6098 -1.1609
15398TIP3    H267686   0.229   0.447   5.139  1.1174 -0.4827 -0.5924
15399TIP3   OH267687   4.004   2.461   3.767 -0.3204 -0.2010  0.2554
15399TIP3    H167688   3.983   2.429   3.855 -0.9062 -1.7508 -0.4072
15399TIP3    H267689   3.976   2.390   3.709  0.1751  0.7394 -1.1767
15400TIP3   OH267690   0.586   0.249  16.239  0.1645 -0.0243  0.5946
15400TIP3    H167691   0.535   0.326  16.266 -0.4010 -0.7391  1.6410
15400TIP3    H267692   0.531   0.175  16.262  1.0469 -0.7737  0.3452
15401TIP3   OH267693   5.035   3.190   4.986 -0.2642  0.3564 -0.2887
15401TIP3    H167694   5.059   3.187   4.894 -2.4814  0.0383 -0.9243
15401TIP3    H267695   4.952   3.238   4.988  0.7588  2.2497  1.8217
15402TIP3   OH267696   0.139   3.991   0.046  0.1929  0.0325 -0.0367
15402TIP3    H167697   0.056   4.000   0.001 -0.6226 -1.0076  1.1780
15402TIP3    H267698   0.188   4.071   0.025 -1.4214  1.0253 -0.1349
15403TIP3   OH267699   2.439   1.831   3.921  0.2280  0.1762  0.3723
15403TIP3    H167700   2.505   1.836   3.990  0.2298 -1.3571  0.5148
15403TIP3    H267701   2.367   1.886   3.954  0.0506 -0.8493  1.8187
15404TIP3   OH267702   0.750   6.648   1.515 -0.4317  0.4497 -0.3021
15404TIP3    H167703   0.837   6.666   1.479  0.7951  0.2025  2.3022
15404TIP3    H267704   0.721   6.569   1.469  1.9469 -1.0805  0.6194
15405TIP3   OH267705   4.548   4.705  14.783 -0.4779 -0.0060  0.1432
15405TIP3    H167706   4.609   4.744  14.720 -0.2392 -0.8813 -0.1867
15405TIP3    H267707   4.503   4.636  14.734 -0.9411 -0.1010  0.6859
15406TIP3   OH267708   3.282   5.055  13.269  0.4176  0.0879  0.0462
15406TIP3    H167709   3.287   5.034  13.363 -2.7396  1.0360  0.5152
15406TIP3    H267710   3.322   4.979  13.226  1.8258 -0.4313  2.0962
15407TIP3   OH267711   2.911   3.428  11.842  0.5038  0.2563 -0.1259
15407TIP3    H167712   2.952   3.515  11.841 -0.7937  0.8899  0.1738
15407TIP3    H267713   2.843   3.434  11.909 -0.5222 -0.5589 -1.0582
15408TIP3   OH267714   2.686   3.921   4.374 -0.3575  0.0441  0.0254
15408TIP3    H167715   2.630   3.911   4.297  0.5438 -0.4163 -0.5746
15408TIP3    H267716   2.626   3.950   4.443 -1.2954 -0.2126 -0.6666
15409TIP3   OH267717   1.212   6.547  10.613  0.4340  0.3460 -0.1254
15409TIP3    H167718   1.290   6.535  10.668  1.7350  1.7537 -1.5572
15409TIP3    H267719   1.225   6.487  10.540 -1.1566 -1.3092  0.8343
15410TIP3   OH267720   0.101   6.208  15.043  0.3024 -0.0558  0.1155
15410TIP3    H167721   0.088   6.146  15.115 -0.4542  0.4493  0.4325
15410TIP3    H267722   0.183   6.253  15.064  0.0077  0.1977  0.7557
15411TIP3   OH267723   4.502   0.957  11.332 -0.5323 -0.4648 -0.3771
15411TIP3    H167724   4.417   0.913  11.334  0.1716 -1.8755  0.0626
15411TIP3    H267725   4.561   0.898  11.380  0.5007  0.9047  0.0996
15412TIP3   OH267726   3.125   6.272  16.298  0.5929 -0.2627  0.5936
15412TIP3    H167727   3.060   6.341  16.307  0.2341 -0.7645  2.0521
15412TIP3    H267728   3.200   6.314  16.255  0.0054  0.7700  0.5664
15413TIP3   OH267729   0.048   6.824   2.133  0.4196 -0.3648  0.3549
15413TIP3    H167730   0.091   6.887   2.192 -0.7772  0.2228  0.6463
15413TIP3    H267731  -0.040   6.814   2.170  0.0847 -1.0148 -0.5898
15414TIP3   OH267732   6.553   1.362  13.624 -0.4144  0.9012  0.5466
15414TIP3    H167733   6.502   1.374  13.544 -0.3643  1.0076  0.5299
15414TIP3    H267734   6.605   1.283  13.609 -0.0046  1.2233  0.2634
15415TIP3   OH267735   2.381   3.412  15.416  0.3084  0.2320 -0.2014
15415TIP3    H167736   2.405   3.365  15.496 -1.1065  0.8235  0.5930
15415TIP3    H267737   2.452   3.474  15.402  0.2618  0.5594  0.9588
15416TIP3   OH267738   1.294   4.084   1.208  0.2491 -0.0108  0.2833
15416TIP3    H167739   1.206   4.122   1.208 -1.5505 -3.7419 -0.0154
15416TIP3    H267740   1.345   4.143   1.154 -2.1967  2.0124 -0.0176
15417TIP3   OH267741   3.478   6.328   1.264  0.1603  0.1397 -0.1790
15417TIP3    H167742   3.539   6.273   1.312  1.3604 -0.7614 -2.5744
15417TIP3    H267743   3.473   6.409   1.315  2.5925 -0.1486  0.6036
15418TIP3   OH267744   2.594   4.107   5.910  0.0730  0.0738 -0.5254
15418TIP3    H167745   2.514   4.055   5.903  0.1199 -0.1098  0.2643
15418TIP3    H267746   2.632   4.082   5.994  1.3509 -0.3995 -1.2094
15419TIP3   OH267747   2.872   4.245  13.512 -0.4645 -0.2419  0.0648
15419TIP3    H167748   2.831   4.245  13.598 -0.8121  1.1196 -0.0703
15419TIP3    H267749   2.946   4.306  13.520  0.5258 -1.3604 -0.1674
15420TIP3   OH267750   3.755   5.838   5.210  0.1994  0.5286 -0.7189
15420TIP3    H167751   3.745   5.921   5.255 -2.2405 -1.4532  2.9184
15420TIP3    H267752   3.830   5.797   5.253 -1.0101 -0.6238  0.4123
15421TIP3   OH267753   2.189   2.403  11.564 -0.1647  0.3734  0.5036
15421TIP3    H167754   2.263   2.462  11.568 -0.5808  0.9966 -0.5675
15421TIP3    H267755   2.206   2.337  11.632  0.1783  1.8435  1.8867
15422TIP3   OH267756   0.656   3.699  10.860  0.0685 -0.3456  0.5019
15422TIP3    H167757   0.718   3.655  10.803  0.0397  1.4173 -0.9951
15422TIP3    H267758   0.645   3.786  10.821 -2.4332 -0.1783  1.3767
15423TIP3   OH267759   0.895   1.067  14.963 -0.0593  0.3361 -0.7175
15423TIP3    H167760   0.984   1.101  14.976 -0.2248  0.8480 -0.8984
15423TIP3    H267761   0.839   1.144  14.970 -0.7456 -0.2869  1.7710
15424TIP3   OH267762   5.700   5.005   1.121 -0.1488 -0.5391  0.1536
15424TIP3    H167763   5.658   4.926   1.155 -0.9138  0.0611  0.6409
15424TIP3    H267764   5.630   5.054   1.078  0.4275 -0.3783 -0.6144
15425TIP3   OH267765   6.513   1.545  11.199 -0.1544 -0.0521  0.2307
15425TIP3    H167766   6.503   1.534  11.105 -0.2874 -1.7379  0.4163
15425TIP3    H267767   6.499   1.639  11.214 -2.7739 -0.1192 -1.1263
15426TIP3   OH267768   1.900   4.834  14.726  0.5726 -0.2115  0.1348
15426TIP3    H167769   1.950   4.894  14.781 -0.1326  0.1517  0.3974
15426TIP3    H267770   1.859   4.891  14.661  1.8165 -0.6921 -1.1176
15427TIP3   OH267771   1.493   2.827  15.077  0.3807 -0.1642 -0.4069
15427TIP3    H167772   1.466   2.889  15.010 -1.2491  0.2020  0.5353
15427TIP3    H267773   1.491   2.877  15.159  0.3789 -1.1038  0.1853
15428TIP3   OH267774   2.677   6.309   4.836  0.5064  0.3130 -0.2208
15428TIP3    H167775   2.599   6.292   4.888 -0.7130 -1.0748 -2.3436
15428TIP3    H267776   2.750   6.277   4.889 -0.4003  0.9626  1.4937
15429TIP3   OH267777   2.045   6.384  13.596 -0.0918  0.6233  0.4249
15429TIP3    H167778   1.985   6.418  13.662 -1.2318 -0.4777  0.0057
15429TIP3    H267779   2.019   6.293  13.584  0.0636  0.7789 -1.5398
15430TIP3   OH267780   2.000   5.955   3.093 -0.3165  0.4028 -0.5550
15430TIP3    H167781   1.919   5.966   3.141  0.9172 -1.0597  2.0975
15430TIP3    H267782   1.977   5.898   3.020 -2.1977  2.4729 -1.6878
15431TIP3   OH267783   6.596   2.256  13.464  0.4306  0.4875  0.4141
15431TIP3    H167784   6.615   2.313  13.538 -0.9905  2.3281 -0.5491
15431TIP3    H267785   6.517   2.295  13.423  0.8574 -0.7328 -1.7380
15432TIP3   OH267786   1.374   1.808  11.904 -0.1520  0.5975  0.3608
15432TIP3    H167787   1.366   1.861  11.983  0.5885 -0.1015  0.9201
15432TIP3    H267788   1.336   1.723  11.929  1.5770 -0.1741  0.5268
15433TIP3   OH267789   5.872   3.944  15.545  0.1689  0.4765 -0.4481
15433TIP3    H167790   5.847   4.034  15.527  0.1980  0.5094 -0.3204
15433TIP3    H267791   5.954   3.932  15.495  0.9379  0.9608  0.6706
15434TIP3   OH267792   0.406   5.348  15.237  0.0990 -0.1177 -0.3566
15434TIP3    H167793   0.372   5.310  15.156 -1.3784  0.4816 -0.0386
15434TIP3    H267794   0.372   5.437  15.239  1.7605  0.5477 -0.0384
15435TIP3   OH267795   5.806   2.075   1.385 -0.2355  0.1933 -0.1713
15435TIP3    H167796   5.812   2.012   1.313 -2.2879 -0.1118 -0.1505
15435TIP3    H267797   5.796   2.160   1.341  1.6456  0.4260 -0.2018
15436TIP3   OH267798   2.063   5.665  15.617 -0.0262  0.6179  0.0694
15436TIP3    H167799   2.020   5.595  15.667  0.9363 -0.8634 -1.0660
15436TIP3    H267800   2.003   5.682  15.544 -0.2979  1.0364  0.3898
15437TIP3   OH267801   6.522   5.304  12.117  0.0675 -0.2376 -0.1657
15437TIP3    H167802   6.475   5.362  12.057  1.8669  0.1322 -1.2871
15437TIP3    H267803   6.607   5.290  12.076  1.7537  0.7298  2.6861
15438TIP3   OH267804   6.345   3.890  11.021  0.1400 -0.6960 -0.2260
15438TIP3    H167805   6.282   3.948  11.066  0.9478  0.1396 -0.1273
15438TIP3    H267806   6.417   3.882  11.083  1.3396  0.5805 -1.3950
15439TIP3   OH267807   2.233   0.504  13.065 -0.1520  0.0043  0.6102
15439TIP3    H167808   2.304   0.496  13.129  0.5229 -1.0376 -0.2345
15439TIP3    H267809   2.153   0.503  13.117  0.4356  0.7830  1.5507
15440TIP3   OH267810   5.757   0.669  13.273  0.2878  0.7429 -0.0833
15440TIP3    H167811   5.816   0.616  13.327  1.0776  2.7266  1.1073
15440TIP3    H267812   5.716   0.606  13.213  0.7776 -1.2626  1.5760
15441TIP3   OH267813   2.943   1.697  16.273 -0.0238  0.1008  0.0579
15441TIP3    H167814   2.982   1.611  16.286  1.8426  0.8884  0.0256
15441TIP3    H267815   2.943   1.737  16.360 -0.1343  0.3611 -0.0623
15442TIP3   OH267816   4.387   5.649   0.950 -0.0723  0.0025  0.6018
15442TIP3    H167817   4.405   5.743   0.941 -0.5056  0.1136  0.8918
15442TIP3    H267818   4.374   5.636   1.044 -3.7498  0.3490  0.2557
15443TIP3   OH267819   5.077   6.676  13.013 -0.5993  0.2074  0.3358
15443TIP3    H167820   5.009   6.689  12.947  1.4102  0.3526 -1.8227
15443TIP3    H267821   5.158   6.704  12.970  0.7649  0.7020  3.0305
15444TIP3   OH267822   6.240   1.436   1.062  0.1775 -0.0370  0.5243
15444TIP3    H167823   6.160   1.461   1.109 -0.4675 -0.5041 -0.3019
15444TIP3    H267824   6.309   1.442   1.128 -1.1682 -4.2841  2.7101
15445TIP3   OH267825   5.217   3.948   3.269  0.8739  0.0565  0.6435
15445TIP3    H167826   5.276   3.898   3.325 -1.4644 -2.5189  0.9789
15445TIP3    H267827   5.222   3.904   3.184  0.8552  1.0203  0.1287
15446TIP3   OH267828   5.924   0.443  12.236  0.3620  0.4394 -0.1629
15446TIP3    H167829   5.979   0.422  12.311 -0.0580 -1.7703 -0.3766
15446TIP3    H267830   5.985   0.447  12.162  0.5265  0.4431 -0.0277
15447TIP3   OH267831   1.386   2.249   6.064  0.5573 -0.6474  0.3144
15447TIP3    H167832   1.310   2.200   6.033  0.5266  0.5565 -1.7927
15447TIP3    H267833   1.459   2.188   6.058  0.2354 -0.9676 -0.6308
15448TIP3   OH267834   4.684   2.802   4.338 -0.0740  0.4988 -0.3777
15448TIP3    H167835   4.758   2.819   4.280  1.3953 -1.5224  0.7656
15448TIP3    H267836   4.611   2.782   4.280  1.0831 -0.4739 -1.5632
15449TIP3   OH267837   0.992   1.501  16.676 -0.7952 -0.5177 -0.1649
15449TIP3    H167838   0.961   1.586  16.707 -1.6962 -1.3287  1.2981
15449TIP3    H267839   0.993   1.509  16.580 -0.8498  1.1274 -0.0549
15450TIP3   OH267840   3.326   4.988   4.948  0.4920 -0.0180 -0.4037
15450TIP3    H167841   3.414   4.966   4.916  0.4907 -1.9097  0.7060
15450TIP3    H267842   3.273   4.911   4.927  0.0171 -0.4910  2.1401
15451TIP3   OH267843   1.515   2.159   3.376 -0.6415 -0.1289  0.6721
15451TIP3    H167844   1.475   2.237   3.415  0.6682  1.1036 -0.3266
15451TIP3    H267845   1.594   2.144   3.428 -1.0354 -0.9902  1.0392
15452TIP3   OH267846   3.171   5.228   3.274 -0.2521  0.0851 -0.4843
15452TIP3    H167847   3.201   5.207   3.186  2.3525  0.9669  0.1025
15452TIP3    H267848   3.223   5.304   3.300 -0.9746 -0.1172  1.8020
15453TIP3   OH267849   6.353   6.657   5.520  0.1928  0.1658 -0.1054
15453TIP3    H167850   6.260   6.677   5.530 -0.3488 -1.3742 -1.6354
15453TIP3    H267851   6.387   6.728   5.465 -0.7280 -0.6777 -1.8432
15454TIP3   OH267852   5.136   5.823  13.095 -0.1954  0.6332 -0.4570
15454TIP3    H167853   5.093   5.773  13.026  1.0552  0.7097 -1.3273
15454TIP3    H267854   5.113   5.914  13.076 -0.8902  0.5536 -0.0144
15455TIP3   OH267855   2.247   5.044  12.052 -0.2283 -0.0720 -0.6040
15455TIP3    H167856   2.338   5.073  12.047  0.2986 -1.4855  0.1347
15455TIP3    H267857   2.217   5.043  11.961  0.4226  0.5951 -0.8349
15456TIP3   OH267858   0.334   4.210  10.807  0.7295 -0.6364 -0.1619
15456TIP3    H167859   0.385   4.288  10.829  2.3822 -1.8344  0.4803
15456TIP3    H267860   0.330   4.210  10.711  1.6898 -0.3459 -0.2106
15457TIP3   OH267861   4.130   0.572  10.531  0.8259  0.3907 -0.1100
15457TIP3    H167862   4.178   0.531  10.460 -0.0101 -1.0915  0.1337
15457TIP3    H267863   4.102   0.657  10.496 -0.0207 -0.5174 -1.7445
15458TIP3   OH267864   4.876   4.433  17.149 -0.6138  0.2879  0.2030
15458TIP3    H167865   4.806   4.421  17.214 -0.9933  0.8138 -0.1003
15458TIP3    H267866   4.941   4.487  17.194 -1.4347  1.7026 -0.2295
15459TIP3   OH267867   3.310   5.355  14.306  0.3101 -0.0450  0.4887
15459TIP3    H167868   3.250   5.429  14.295  1.4251  0.7990 -0.0563
15459TIP3    H267869   3.364   5.379  14.382  0.9110 -0.1335  0.0920
15460TIP3   OH267870   5.354   0.639  12.749 -0.1818  0.4259  0.8589
15460TIP3    H167871   5.406   0.684  12.683  0.9471  0.6838  1.8881
15460TIP3    H267872   5.412   0.573  12.785 -2.1912 -2.8974 -1.4848
15461TIP3   OH267873   4.661   3.427  12.011  0.2287  0.2571  0.2040
15461TIP3    H167874   4.740   3.443  11.959  0.2197 -0.8814 -0.1870
15461TIP3    H267875   4.597   3.393  11.948 -0.4642  0.8093  0.5873
15462TIP3   OH267876   1.062   4.952   2.616 -0.2445 -0.3597  0.6029
15462TIP3    H167877   1.121   4.969   2.543 -0.7048 -0.5189  0.1845
15462TIP3    H267878   0.980   4.924   2.575  0.1302 -2.5675  1.1960
15463TIP3   OH267879   5.661   6.817   4.301  0.6214  0.0604 -0.2466
15463TIP3    H167880   5.686   6.751   4.237 -2.0557 -0.9447 -0.3817
15463TIP3    H267881   5.647   6.768   4.382 -1.9026  0.2463 -0.4712
15464TIP3   OH267882   0.344   1.676   0.504  0.0734 -0.0526  0.3659
15464TIP3    H167883   0.260   1.681   0.460 -0.5361 -2.1519  1.1614
15464TIP3    H267884   0.388   1.600   0.465  1.9935  1.4703 -0.6074
15465TIP3   OH267885   3.643   4.898   2.674  0.4913  0.3122  0.1626
15465TIP3    H167886   3.615   4.956   2.745  0.1602  0.4340 -0.0662
15465TIP3    H267887   3.569   4.897   2.613  0.5436 -0.2505  0.1032
15466TIP3   OH267888   5.519   6.778  13.483 -0.0731 -0.1032 -0.5595
15466TIP3    H167889   5.543   6.779  13.575 -0.4759  0.4366 -0.4560
15466TIP3    H267890   5.440   6.724  13.479 -0.8761  1.0298 -0.3701
15467TIP3   OH267891   5.150   6.116   5.474 -0.9478 -0.8426 -0.0870
15467TIP3    H167892   5.139   6.211   5.476  0.6343 -0.6194 -0.5369
15467TIP3    H267893   5.093   6.086   5.404 -2.1502 -0.3500  0.6489
15468TIP3   OH267894   4.709   2.747   0.174  0.4282  0.5814 -0.2046
15468TIP3    H167895   4.682   2.657   0.158  0.9965  0.3290  0.1977
15468TIP3    H267896   4.705   2.789   0.088 -0.2955  0.3050 -0.3153
15469TIP3   OH267897   5.093   5.062   0.918  0.2567  1.2152  0.1602
15469TIP3    H167898   5.106   5.017   0.835  0.9282 -1.1817  1.4579
15469TIP3    H267899   5.163   5.029   0.974 -1.3150  1.2167  2.2613
15470TIP3   OH267900   4.059   1.833  15.389  0.3246 -0.1034 -0.4667
15470TIP3    H167901   4.000   1.819  15.315 -1.0306  1.9509  0.1395
15470TIP3    H267902   4.013   1.796  15.464  0.9209 -0.6550 -0.3656
15471TIP3   OH267903   4.667   4.725  16.515  0.1883  0.0433 -0.2071
15471TIP3    H167904   4.729   4.656  16.489  0.7305  0.6226 -0.5039
15471TIP3    H267905   4.691   4.799  16.459 -0.5329  0.3962 -0.0493
15472TIP3   OH267906   3.559   6.175  13.315 -0.4045  0.0474  0.3405
15472TIP3    H167907   3.470   6.202  13.337 -0.6440  1.1687 -1.7983
15472TIP3    H267908   3.548   6.107  13.249  0.3366 -1.0407  1.2880
15473TIP3   OH267909   5.873   4.820  15.170 -0.4350  0.4978 -0.4176
15473TIP3    H167910   5.923   4.877  15.229  2.4589 -1.8383 -0.3308
15473TIP3    H267911   5.929   4.810  15.093 -1.1610 -1.5197 -0.7655
15474TIP3   OH267912   5.307   1.725  11.246 -0.2864  0.1990 -0.3495
15474TIP3    H167913   5.344   1.676  11.172 -0.8360 -0.5315 -0.1614
15474TIP3    H267914   5.376   1.785  11.273  0.1006  0.1190 -1.1389
15475TIP3   OH267915   3.216   5.958  14.737  0.1620 -0.2422  0.2571
15475TIP3    H167916   3.253   5.900  14.804  1.2509 -1.1924 -1.1130
15475TIP3    H267917   3.162   5.900  14.683  1.5751 -0.1128 -1.3670
15476TIP3   OH267918   5.985   6.659  12.597  0.2469 -0.2024 -0.3621
15476TIP3    H167919   6.051   6.725  12.620  1.8461 -1.1813 -1.8630
15476TIP3    H267920   5.967   6.675  12.505  0.6222 -1.7756 -0.7392
15477TIP3   OH267921   5.849   3.632  15.541 -0.4875  0.0279 -0.3037
15477TIP3    H167922   5.754   3.631  15.528 -0.5145 -1.8841 -0.2616
15477TIP3    H267923   5.867   3.718  15.579 -2.5938 -0.5921  2.4187
15478TIP3   OH267924   2.007   3.644  16.169 -0.4176  0.0725  0.0266
15478TIP3    H167925   2.083   3.598  16.204 -0.1651 -0.0372 -0.6550
15478TIP3    H267926   1.972   3.693  16.244 -1.4224 -2.1487  1.1351
15479TIP3   OH267927   6.402   2.420   1.622 -1.4765  0.3493 -0.1090
15479TIP3    H167928   6.371   2.479   1.554 -0.4136  1.1427  0.0800
15479TIP3    H267929   6.465   2.363   1.579 -1.7061  0.0440 -0.0501
15480TIP3   OH267930   4.903   6.360   0.657 -0.4318 -0.2452  0.3183
15480TIP3    H167931   4.834   6.334   0.717 -1.0663 -1.1455 -0.7494
15480TIP3    H267932   4.877   6.321   0.573  1.4846 -0.8099 -0.0631
15481TIP3   OH267933   2.913   0.271   1.647  0.6505 -0.0475 -0.1641
15481TIP3    H167934   2.864   0.237   1.572 -0.2227  1.5502 -0.3623
15481TIP3    H267935   2.926   0.196   1.704 -0.0637 -0.9643 -1.1770
15482TIP3   OH267936   4.878   2.842   6.454 -0.1944  0.2489 -0.2836
15482TIP3    H167937   4.913   2.887   6.377 -0.8456 -0.2100 -0.8609
15482TIP3    H267938   4.875   2.750   6.429 -1.1857  0.1999 -0.0169
15483TIP3   OH267939   1.785   5.310  13.550 -0.7665 -0.1312  0.0459
15483TIP3    H167940   1.803   5.311  13.456  1.2917 -0.8928  0.3881
15483TIP3    H267941   1.740   5.392  13.567  0.8468  1.0710 -1.2573
15484TIP3   OH267942   2.203   5.282  13.304  0.1610  0.1467  0.1080
15484TIP3    H167943   2.236   5.205  13.350 -0.9695 -2.4238 -3.0152
15484TIP3    H267944   2.229   5.269  13.213  1.2641  4.3430 -0.4126
15485TIP3   OH267945   3.677   0.333   0.927  0.1720 -0.3175 -0.0279
15485TIP3    H167946   3.593   0.380   0.925  0.1351 -0.3448  0.5851
15485TIP3    H267947   3.710   0.347   1.016 -0.3358 -2.3384  0.5112
15486TIP3   OH267948   3.846   4.155  13.034 -0.9203  0.1939  0.0264
15486TIP3    H167949   3.907   4.084  13.014 -0.8684 -0.0383  0.9515
15486TIP3    H267950   3.860   4.173  13.127 -2.0443  0.3550  0.1801
15487TIP3   OH267951   2.940   0.109   2.377 -0.5452 -0.1758  0.2121
15487TIP3    H167952   2.889   0.053   2.318 -1.7937  0.4963  0.6067
15487TIP3    H267953   2.908   0.198   2.359  0.1914  0.2141  0.7839
15488TIP3   OH267954   4.958   3.464   2.487  0.3931 -0.2990  0.0614
15488TIP3    H167955   4.942   3.371   2.470 -0.3891  0.2399 -2.5451
15488TIP3    H267956   4.875   3.498   2.520  0.2800 -0.2581 -0.2651
15489TIP3   OH267957   6.472   5.520   1.127  0.1653  0.4619  0.0952
15489TIP3    H167958   6.549   5.547   1.078  2.3214 -0.9111  2.4602
15489TIP3    H267959   6.452   5.432   1.094  0.4440  0.3043  0.3333
15490TIP3   OH267960   0.350   0.468   2.415  0.1304 -0.0436 -0.4658
15490TIP3    H167961   0.413   0.538   2.437 -0.2861  0.8544 -2.0386
15490TIP3    H267962   0.287   0.510   2.357 -1.2841 -1.2443  0.1604
15491TIP3   OH267963   1.220   1.608  15.455 -0.0318  0.0400  0.6228
15491TIP3    H167964   1.236   1.682  15.397 -0.4365  0.8752  1.5671
15491TIP3    H267965   1.136   1.626  15.496 -0.0458 -0.8475  1.0224
15492TIP3   OH267966   3.512   2.173   2.979 -0.2131  0.4321 -0.7328
15492TIP3    H167967   3.444   2.127   3.030  0.2412  0.8045  0.2392
15492TIP3    H267968   3.488   2.265   2.985  0.7367  0.6457  0.2216
15493TIP3   OH267969   5.258   4.667  11.225 -0.5524  0.3321  0.2092
15493TIP3    H167970   5.281   4.731  11.158  0.0093  0.2946  0.3669
15493TIP3    H267971   5.331   4.668  11.286  0.1059 -1.4041 -0.4735
15494TIP3   OH267972   0.884   5.821  11.172 -0.6755  0.0257 -0.2598
15494TIP3    H167973   0.966   5.805  11.219 -0.4919  3.0288  0.6911
15494TIP3    H267974   0.906   5.805  11.080 -0.0291 -2.4937  0.2753
15495TIP3   OH267975   2.120   4.424   2.070 -0.1779 -0.2665 -0.0175
15495TIP3    H167976   2.054   4.388   2.011  0.8308 -0.9260 -0.7928
15495TIP3    H267977   2.075   4.493   2.118 -1.0404  0.2630 -1.5362
15496TIP3   OH267978   2.368   0.319   0.668 -0.3596 -0.2075 -0.1150
15496TIP3    H167979   2.285   0.366   0.663 -0.2747 -0.2001 -1.8576
15496TIP3    H267980   2.344   0.228   0.685 -0.6430 -0.0087  0.5973
15497TIP3   OH267981   5.456   5.547  15.818 -0.1764  0.1751  0.3738
15497TIP3    H167982   5.443   5.457  15.848  0.7243 -0.0796  0.0317
15497TIP3    H267983   5.368   5.583  15.809 -0.5153 -0.3620  1.4395
15498TIP3   OH267984   0.788   6.232  16.391  0.0789  0.0329 -0.2492
15498TIP3    H167985   0.731   6.204  16.463  1.0464 -1.3080  0.0436
15498TIP3    H267986   0.876   6.232  16.429  0.3728  1.3166 -0.8959
15499TIP3   OH267987   6.392   1.045   4.130  0.0709 -0.0243  0.6159
15499TIP3    H167988   6.403   1.021   4.222 -0.7183 -2.2196  0.1805
15499TIP3    H267989   6.475   1.021   4.088  0.8735  2.0268  0.8853
15500TIP3   OH267990   0.421   3.177   5.055 -0.1710 -0.3482  0.1468
15500TIP3    H167991   0.354   3.229   5.100 -0.2465 -0.3628  0.0529
15500TIP3    H267992   0.503   3.202   5.096  0.2249  2.0891 -1.9026
15501TIP3   OH267993   1.443   0.251  16.623 -0.5620  0.4788 -0.2245
15501TIP3    H167994   1.386   0.240  16.700 -1.0509  1.3304 -0.4487
15501TIP3    H267995   1.409   0.329  16.579  0.1949  0.4474 -0.8895
15502TIP3   OH267996   5.178   0.638   2.879  0.1620 -0.8778 -0.7273
15502TIP3    H167997   5.144   0.643   2.790  1.4096 -0.7965 -1.2269
15502TIP3    H267998   5.272   0.653   2.869  0.0960  1.0164  0.8052
15503TIP3   OH267999   0.426   5.289  14.475 -0.2974 -0.5885  0.3088
15503TIP3    H168000   0.415   5.367  14.529 -0.1962 -0.4340  0.1090
15503TIP3    H268001   0.365   5.302  14.402 -0.0285 -0.5350  0.0940
15504TIP3   OH268002   6.466   0.694   4.054 -0.2699 -0.0153  0.5665
15504TIP3    H168003   6.529   0.658   4.117 -1.2784  1.7001  2.6550
15504TIP3    H268004   6.476   0.789   4.060 -1.9507  0.2593 -0.2220
15505TIP3   OH268005   0.946   1.502   0.650  0.5266  0.1588  0.1617
15505TIP3    H168006   0.969   1.592   0.673  1.7706 -0.0425 -0.2090
15505TIP3    H268007   1.017   1.473   0.592 -0.3218 -0.7659 -0.4435
15506TIP3   OH268008   6.536   1.505   3.100  0.4075  0.6282  0.4717
15506TIP3    H168009   6.492   1.590   3.103  1.4332  1.2414 -0.7488
15506TIP3    H268010   6.516   1.464   3.184 -0.1988  2.0339  1.0361
15507TIP3   OH268011   6.573   2.730   2.412  0.7139 -0.1670 -0.0117
15507TIP3    H168012   6.565   2.720   2.317  0.0813  2.9809 -0.4123
15507TIP3    H268013   6.484   2.752   2.441  1.0775 -0.1490  1.1514
15508TIP3   OH268014   2.403   3.519   1.484  0.1940  0.5926  0.6857
15508TIP3    H168015   2.497   3.500   1.492  0.0034 -1.0918 -0.4566
15508TIP3    H268016   2.399   3.614   1.470  1.5861  0.9370  2.3369
15509TIP3   OH268017   2.630   2.371  12.879  0.4934  0.1367 -0.0316
15509TIP3    H168018   2.610   2.397  12.969  1.7702  1.2855 -0.0404
15509TIP3    H268019   2.548   2.385  12.831  0.0313  0.2981  0.7911
15510TIP3   OH268020   4.812   3.684   3.953 -0.5367  0.1677  0.0222
15510TIP3    H168021   4.747   3.751   3.973 -2.3260 -1.5792  0.3128
15510TIP3    H268022   4.890   3.734   3.926 -0.6669  2.4533  3.3073
15511TIP3   OH268023   3.330   2.258  13.137 -0.1838 -0.6993 -0.5241
15511TIP3    H168024   3.256   2.225  13.187 -0.3697 -0.4611 -0.6391
15511TIP3    H268025   3.306   2.348  13.114  0.1958 -0.5766 -0.4532
15512TIP3   OH268026   2.656   4.460  11.829 -0.2146 -0.0968 -0.1947
15512TIP3    H168027   2.693   4.383  11.873  0.0457  0.3857  0.4593
15512TIP3    H268028   2.729   4.522  11.825 -0.8468  0.7408  0.7951
15513TIP3   OH268029   2.530   0.932   4.470  0.1387  0.3402  0.0281
15513TIP3    H168030   2.554   0.913   4.560  1.4793  0.3678 -0.3067
15513TIP3    H268031   2.610   0.966   4.430 -0.4756  0.4781 -1.1301
15514TIP3   OH268032   5.272   4.293   3.942 -0.0099  0.0006  0.3508
15514TIP3    H168033   5.269   4.265   4.033  0.9736 -0.0515  0.3850
15514TIP3    H268034   5.365   4.288   3.919 -0.2262  0.1694 -0.6038
15515TIP3   OH268035   2.528   1.476   3.571  0.2126 -0.3363  0.7039
15515TIP3    H168036   2.593   1.446   3.635  1.3510  2.5929  1.0737
15515TIP3    H268037   2.579   1.516   3.501 -1.1327 -0.9116 -0.6579
15516TIP3   OH268038   0.022   1.885   0.214  0.0519 -0.5319  0.6731
15516TIP3    H168039  -0.001   1.972   0.180 -2.0441 -1.1285  0.4216
15516TIP3    H268040  -0.045   1.827   0.177  0.3675 -1.9624  2.2521
15517TIP3   OH268041   3.995   3.388   1.034  0.1921 -0.3726 -0.1422
15517TIP3    H168042   3.919   3.345   1.073  0.6497  0.3106  1.5953
15517TIP3    H268043   4.070   3.347   1.076  0.6627  1.6319  1.1208
15518TIP3   OH268044   0.643   2.977   5.194 -0.0316 -0.3399 -0.2121
15518TIP3    H168045   0.735   2.952   5.195 -0.1349 -0.7305 -0.6792
15518TIP3    H268046   0.597   2.901   5.231 -0.1122  0.1003  0.6331
15519TIP3   OH268047   1.467   2.522   4.738 -0.4697  0.4063  0.6457
15519TIP3    H168048   1.529   2.595   4.747 -0.7061  0.5501  1.1216
15519TIP3    H268049   1.519   2.451   4.702  0.3432  0.0298  2.4577
15520TIP3   OH268050   4.117   1.841   2.909  0.1409 -0.1364 -0.5365
15520TIP3    H168051   4.202   1.805   2.884  0.5204  0.1379  0.3517
15520TIP3    H268052   4.102   1.810   2.998  0.4776  1.8758  0.2540
15521TIP3   OH268053   1.064   5.584   4.071 -0.0805 -0.8566 -0.0295
15521TIP3    H168054   1.096   5.660   4.023 -1.9325 -0.2750 -0.4210
15521TIP3    H268055   1.062   5.612   4.162  1.8411 -1.4034  0.2300
15522TIP3   OH268056   0.085   3.801  12.591 -0.5654 -0.0908 -0.4067
15522TIP3    H168057   0.129   3.718  12.572  0.7312  0.8966 -1.9859
15522TIP3    H268058   0.075   3.802  12.686  1.0486 -1.2522 -0.1866
15523TIP3   OH268059   5.583   3.429   0.283  0.0019 -0.6189  0.3156
15523TIP3    H168060   5.677   3.418   0.271 -0.2942 -2.9937 -0.4197
15523TIP3    H268061   5.572   3.440   0.377  1.1483  2.3433  0.2000
15524TIP3   OH268062   0.235   3.961  12.399 -0.1429 -0.1119 -0.0427
15524TIP3    H168063   0.318   3.930  12.364  0.2938  0.1267  0.7648
15524TIP3    H268064   0.204   3.889  12.455 -0.7593 -0.4290 -0.7765
15525TIP3   OH268065   6.638   0.076   2.920  0.3434  0.2816  0.1122
15525TIP3    H168066   6.579   0.076   2.996 -0.1106  1.3474 -0.2156
15525TIP3    H268067   6.610   0.152   2.869  1.0063 -0.1027 -0.8450
15526TIP3   OH268068   6.164   0.798  15.007 -0.1778 -0.1178 -0.3761
15526TIP3    H168069   6.179   0.890  14.987 -0.8608  0.1687  0.3840
15526TIP3    H268070   6.085   0.775  14.958 -0.1288 -0.2342 -0.3995
15527TIP3   OH268071   5.727   6.384   2.552  0.3781 -0.2181 -0.0606
15527TIP3    H168072   5.711   6.366   2.459 -0.4109 -1.8755  0.3423
15527TIP3    H268073   5.794   6.451   2.552 -0.3890  0.6335 -1.8386
15528TIP3   OH268074   6.432   4.201  17.162 -0.1559  0.7478  0.0433
15528TIP3    H168075   6.376   4.272  17.194  0.2806  0.5685  1.2349
15528TIP3    H268076   6.508   4.245  17.125 -0.0635  0.9176  0.4313
15529TIP3   OH268077   5.179   6.529   0.111  0.9969 -0.1410  0.0546
15529TIP3    H168078   5.198   6.486   0.194 -0.8244 -2.1794 -0.4938
15529TIP3    H268079   5.250   6.503   0.053  1.4008 -0.0644  0.5121
15530TIP3   OH268080   6.251   2.967  14.873 -0.0548  0.2035  0.0381
15530TIP3    H168081   6.226   2.919  14.952 -0.1532  0.5743  0.2372
15530TIP3    H268082   6.281   3.052  14.905  0.4873  0.1380 -0.2785
15531TIP3   OH268083   5.073   3.975  15.725 -0.3472 -0.2823  0.1169
15531TIP3    H168084   5.151   3.998  15.675 -0.5144  2.0043  0.7846
15531TIP3    H268085   5.074   3.879  15.729  1.5738 -0.3684 -1.1807
15532TIP3   OH268086   3.030   4.775   0.766 -0.5535  0.2602 -0.1513
15532TIP3    H168087   3.074   4.699   0.804  0.5145  1.0028  0.1207
15532TIP3    H268088   2.957   4.792   0.825  0.3982  0.6799  0.9376
15533TIP3   OH268089   4.151   2.658   6.041  0.5396  0.6748 -0.4719
15533TIP3    H168090   4.160   2.753   6.048  0.7461  0.8148 -2.1221
15533TIP3    H268091   4.124   2.644   5.950 -1.8586 -0.7117  0.3723
15534TIP3   OH268092   6.234   6.304  16.046 -0.3203  0.2203  0.0399
15534TIP3    H168093   6.316   6.337  16.010 -0.5196 -0.7917 -1.4636
15534TIP3    H268094   6.169   6.324  15.979 -0.6867 -1.8887 -0.3117
15535TIP3   OH268095   4.966   5.855  14.330 -0.0648 -0.1733  0.3144
15535TIP3    H168096   4.892   5.883  14.384  0.4431 -0.3774  1.1352
15535TIP3    H268097   5.013   5.792  14.385  1.5888  1.0960  0.4237
15536TIP3   OH268098   6.517   1.401   3.960  0.0077 -0.3978 -0.1641
15536TIP3    H168099   6.570   1.326   3.987  0.8039 -0.3474 -1.4768
15536TIP3    H268100   6.428   1.377   3.983  0.4463 -0.9991  1.0056
15537TIP3   OH268101   4.045   3.642   0.411  0.7681 -0.1511  0.6695
15537TIP3    H168102   4.036   3.585   0.334  3.2155 -0.4496  0.5429
15537TIP3    H268103   4.012   3.588   0.484  0.6691 -0.7556  0.1869
15538TIP3   OH268104   5.914   0.512  13.432  0.1744 -0.4206  0.1055
15538TIP3    H168105   5.943   0.592  13.476 -3.8097  0.6033  1.2096
15538TIP3    H268106   5.981   0.447  13.454  2.0857  1.8811  1.5248
15539TIP3   OH268107   1.401   4.541  14.067 -0.0218  0.4223  0.0134
15539TIP3    H168108   1.487   4.568  14.099  0.1367 -0.4774  0.3940
15539TIP3    H268109   1.338   4.585  14.124  0.2249 -0.0241  0.6386
15540TIP3   OH268110   5.037   2.999  15.857 -0.2445  0.2715  0.0207
15540TIP3    H168111   5.068   3.011  15.767 -0.6961  1.4283 -0.0003
15540TIP3    H268112   5.048   2.905  15.875  3.3142  0.5479  0.0303
15541TIP3   OH268113   5.491   6.116  13.872 -0.7913  0.2597 -0.1115
15541TIP3    H168114   5.519   6.136  13.962 -0.2166 -0.5605 -0.0933
15541TIP3    H268115   5.421   6.178  13.854 -0.7207  0.6212  0.8089
15542TIP3   OH268116   1.432   5.913  14.844 -0.1760  0.5103  0.4555
15542TIP3    H168117   1.414   5.878  14.757 -0.7283  2.4094 -0.2289
15542TIP3    H268118   1.359   5.882  14.897  0.0089 -0.4103  0.1945
15543TIP3   OH268119   3.282   1.196  14.835 -0.0034  0.4927 -0.2430
15543TIP3    H168120   3.336   1.156  14.767 -1.0665 -0.0913 -0.7777
15543TIP3    H268121   3.203   1.141  14.837 -0.4688  1.1773  0.6758
15544TIP3   OH268122   5.973   3.143   5.169 -0.1255 -0.3137 -0.0863
15544TIP3    H168123   5.921   3.152   5.090 -0.3435  1.1630  0.1971
15544TIP3    H268124   5.912   3.165   5.240  0.3603 -0.5373  0.4044
15545TIP3   OH268125   4.178   2.585   4.841  0.7892 -0.3651 -0.2555
15545TIP3    H168126   4.208   2.608   4.753 -0.5890 -1.0682 -0.9361
15545TIP3    H268127   4.152   2.669   4.881 -0.8475 -0.2836 -1.4148
15546TIP3   OH268128   5.745   3.499   2.694  0.5595  0.1989  0.5774
15546TIP3    H168129   5.660   3.456   2.704  0.2485  0.2170 -1.4689
15546TIP3    H268130   5.808   3.435   2.725 -0.1447 -0.1899  1.2375
15547TIP3   OH268131   6.604   0.160   4.493  0.6546 -0.3903 -0.0450
15547TIP3    H168132   6.654   0.241   4.499 -1.6580  1.0827  0.4848
15547TIP3    H268133   6.545   0.162   4.568 -0.6353 -1.7227 -0.9591
15548TIP3   OH268134   2.252   5.915   3.196 -0.6043 -0.2671 -0.6176
15548TIP3    H168135   2.158   5.912   3.175 -0.6770 -0.6194 -0.2551
15548TIP3    H268136   2.262   5.856   3.270  0.1306 -1.2675 -1.4843
15549TIP3   OH268137   0.837   0.145   1.328  0.0866 -0.3332  0.0595
15549TIP3    H168138   0.783   0.069   1.349 -0.1956 -0.1525 -0.0133
15549TIP3    H268139   0.807   0.214   1.388  0.2533 -0.2392  0.0382
15550TIP3   OH268140   2.157   2.050   5.944  0.5578 -0.1854  0.3840
15550TIP3    H168141   2.117   2.021   6.026 -0.8127 -2.4214 -0.9784
15550TIP3    H268142   2.094   2.112   5.907  1.3907  1.1794  1.1923
15551TIP3   OH268143   2.961   2.481  16.409  0.1674  0.2331  0.0464
15551TIP3    H168144   3.013   2.420  16.461  3.1057  0.4358 -2.3791
15551TIP3    H268145   2.940   2.433  16.329 -0.4529  1.3003 -0.4590
15552TIP3   OH268146   6.644   3.442  11.563 -0.2277 -0.4255 -0.4559
15552TIP3    H168147   6.554   3.418  11.581 -0.8974  1.2331 -1.3649
15552TIP3    H268148   6.678   3.370  11.509 -1.1443 -0.8389 -0.4982
15553TIP3   OH268149   5.957   4.898  13.043  0.1602 -0.1093  0.4607
15553TIP3    H168150   5.920   4.854  12.966  0.3218  0.0847  0.2705
15553TIP3    H268151   6.039   4.852  13.060  0.7111  0.5869 -0.2000
15554TIP3   OH268152   4.273   3.104   4.957  0.2329 -0.2654 -0.3164
15554TIP3    H168153   4.211   3.075   4.890  1.2744  0.9490 -1.9019
15554TIP3    H268154   4.340   3.035   4.958  0.3020 -0.2106 -0.6898
15555TIP3   OH268155   0.634   1.595   1.296  0.3502 -0.7860  0.5774
15555TIP3    H168156   0.692   1.539   1.244  0.9656  0.1907  0.1920
15555TIP3    H268157   0.694   1.649   1.348 -0.1769  0.8017 -0.4104
15556TIP3   OH268158   0.433   5.304  12.067 -0.1622  0.1384 -0.7565
15556TIP3    H168159   0.526   5.304  12.091 -1.0750 -0.1063  3.4841
15556TIP3    H268160   0.424   5.228  12.010  1.7556 -1.8929  1.4068
15557TIP3   OH268161   0.260   1.794   3.349 -0.0467 -0.2802 -0.0776
15557TIP3    H168162   0.300   1.754   3.272  1.3573 -0.8622  0.9006
15557TIP3    H268163   0.312   1.761   3.423 -0.0646  1.8108  0.9511
15558TIP3   OH268164   1.137   1.501   5.026  0.4338  1.0979 -0.7092
15558TIP3    H168165   1.198   1.497   4.953  0.4442  0.7789 -0.6850
15558TIP3    H268166   1.098   1.414   5.030  1.2710  0.7525  0.3741
15559TIP3   OH268167   2.840   1.263   0.145  0.4124  0.4645 -0.3790
15559TIP3    H168168   2.927   1.282   0.181  0.5051  1.0805 -0.9154
15559TIP3    H268169   2.840   1.169   0.130  0.6988  0.3361  0.3738
15560TIP3   OH268170   1.363   2.159   4.030  0.1301  0.2091 -0.1864
15560TIP3    H168171   1.368   2.188   3.939  2.2566 -1.0401 -0.5427
15560TIP3    H268172   1.309   2.079   4.027  1.4276 -0.6727 -0.6263
15561TIP3   OH268173   4.136   3.599  14.071  0.5072  0.5613 -0.1931
15561TIP3    H168174   4.181   3.666  14.018 -0.8922  1.7834  0.1084
15561TIP3    H268175   4.054   3.583  14.024  0.1738  0.1485  0.5222
15562TIP3   OH268176   2.440   3.709  14.100 -0.4713  0.4326  0.5160
15562TIP3    H168177   2.364   3.653  14.120 -1.3926  1.6217  0.4264
15562TIP3    H268178   2.438   3.719  14.005  0.3770 -0.2857  0.3991
15563TIP3   OH268179   5.533   1.684   1.893  0.2346 -0.0699 -0.1267
15563TIP3    H168180   5.546   1.696   1.799 -2.2480  1.0440 -0.4182
15563TIP3    H268181   5.570   1.598   1.911 -1.4720 -1.5148 -2.7204
15564TIP3   OH268182   6.500   5.746   4.355  0.4167 -0.1303 -0.2301
15564TIP3    H168183   6.534   5.798   4.282 -0.7132 -1.2114 -1.5811
15564TIP3    H268184   6.457   5.809   4.412 -0.8032  0.4784 -1.7635
15565TIP3   OH268185   1.790   5.154   4.576 -0.2573 -0.6133  0.0491
15565TIP3    H168186   1.752   5.165   4.489  1.0098 -1.3378 -0.6255
15565TIP3    H268187   1.717   5.168   4.636 -0.5350  3.1932 -0.9366
15566TIP3   OH268188   5.088   4.477   3.859 -0.4735  0.1036 -0.7456
15566TIP3    H168189   5.004   4.453   3.900  0.6945 -0.7513  1.3201
15566TIP3    H268190   5.149   4.411   3.890  0.4248 -1.1912 -4.7216
15567TIP3   OH268191   5.377   3.545  14.913  0.1234 -0.8050 -0.0347
15567TIP3    H168192   5.404   3.458  14.943 -1.2471 -1.1892  0.1853
15567TIP3    H268193   5.404   3.603  14.984  3.1991 -0.6338 -1.2153
15568TIP3   OH268194   5.130   0.588  14.028 -0.3078 -0.7229  0.1746
15568TIP3    H168195   5.122   0.607  14.122 -0.5943 -0.3797  0.0822
15568TIP3    H268196   5.042   0.566  14.000 -0.6216  1.1588 -0.4326
15569TIP3   OH268197   5.442   4.066   5.640  0.1637 -0.5897  0.1115
15569TIP3    H168198   5.436   3.973   5.618 -0.7834 -0.9340  1.6674
15569TIP3    H268199   5.370   4.107   5.593  1.3146 -0.3758 -1.5813
15570TIP3   OH268200   3.413   3.236  15.072  0.1003  0.1383  0.0115
15570TIP3    H168201   3.318   3.249  15.076  0.2744  1.8779 -0.5153
15570TIP3    H268202   3.425   3.173  15.001 -0.5678  1.7670 -1.6392
15571TIP3   OH268203   2.086   5.523  13.334 -0.4372  0.5549 -0.3775
15571TIP3    H168204   2.102   5.428  13.340 -0.5820  0.5427 -0.1643
15571TIP3    H268205   2.174   5.562  13.333 -0.3791  0.4507  0.1426
15572TIP3   OH268206   3.126   0.910   1.747  0.3853 -0.2709 -0.2402
15572TIP3    H168207   3.152   0.818   1.746  0.1446 -0.3598  0.8202
15572TIP3    H268208   3.201   0.956   1.709  1.5270 -0.6709  1.4441
15573TIP3   OH268209   3.645   4.485  12.958  0.4040 -0.1186 -0.0600
15573TIP3    H168210   3.602   4.401  12.971 -0.2169  0.1776 -0.1638
15573TIP3    H268211   3.730   4.476  13.002  1.3358 -1.6018 -1.9873
15574TIP3   OH268212   1.436   6.392  15.520  0.2898 -0.1386  0.1456
15574TIP3    H168213   1.376   6.374  15.592  0.1378 -0.4550 -0.0546
15574TIP3    H268214   1.510   6.333  15.535  0.1835 -0.3226 -0.0442
15575TIP3   OH268215   3.555   4.376  16.813 -0.1772  0.7355  0.1353
15575TIP3    H168216   3.601   4.457  16.794 -1.3477  1.2089 -0.8259
15575TIP3    H268217   3.462   4.401  16.814 -0.5127 -0.4480  0.6015
15576TIP3   OH268218   4.117   0.566  11.770 -0.0704 -0.7051 -0.1921
15576TIP3    H168219   4.080   0.527  11.849  0.9118 -0.1819  0.5565
15576TIP3    H268220   4.141   0.491  11.715 -2.3239 -1.0556 -0.7823
15577TIP3   OH268221   5.595   4.752  15.210  0.0272 -0.3032  0.3230
15577TIP3    H168222   5.688   4.773  15.201 -0.6395  3.2011  0.2151
15577TIP3    H268223   5.590   4.699  15.290  1.8804  1.7798  1.9365
15578TIP3   OH268224   1.609   3.214   5.213  0.3702 -0.3213  0.3850
15578TIP3    H168225   1.650   3.137   5.173  1.5480  0.5504 -0.1264
15578TIP3    H268226   1.515   3.195   5.209  0.4865 -0.7281 -1.8625
15579TIP3   OH268227   6.563   0.314   3.255 -0.0795 -0.6453  0.6076
15579TIP3    H168228   6.631   0.323   3.188  0.1014  0.8032  0.9373
15579TIP3    H268229   6.583   0.232   3.300  1.2051 -0.4564  0.4156
15580TIP3   OH268230   5.319   1.876   6.175 -0.1805 -0.1815  0.2541
15580TIP3    H168231   5.315   1.970   6.192  1.6308  0.0882 -0.6541
15580TIP3    H268232   5.349   1.838   6.257  0.9692  0.2716  0.0663
15581TIP3   OH268233   3.766   1.032  12.549  0.7340  0.1639 -0.0772
15581TIP3    H168234   3.674   1.034  12.524  1.1210  2.9362 -1.7088
15581TIP3    H268235   3.777   0.949  12.595 -2.6759  0.0274  0.7142
15582TIP3   OH268236   4.990   5.668   5.754  0.2767 -0.0607 -0.1339
15582TIP3    H168237   4.995   5.690   5.847  2.7754 -2.1079  0.3529
15582TIP3    H268238   4.943   5.741   5.714  0.4676  1.6457  2.5067
15583TIP3   OH268239   3.180   0.123   3.092  0.3492  0.0509  0.1467
15583TIP3    H168240   3.118   0.053   3.073  1.2619 -1.1599  1.3836
15583TIP3    H268241   3.228   0.137   3.010 -1.0797  0.5673 -0.6371
15584TIP3   OH268242   2.642   1.625   4.819 -0.0553 -0.3611 -0.3941
15584TIP3    H168243   2.686   1.610   4.903 -1.9815 -0.2497  0.6932
15584TIP3    H268244   2.635   1.721   4.813 -0.3056 -0.3844 -0.4671
15585TIP3   OH268245   6.466   4.211   1.149 -0.6809 -0.4971  0.4318
15585TIP3    H168246   6.387   4.261   1.167 -2.1026 -2.8292  1.1485
15585TIP3    H268247   6.493   4.239   1.062 -1.4207  1.4049  0.7636
15586TIP3   OH268248   4.922   3.401  15.396 -0.1864 -0.0843 -0.2082
15586TIP3    H168249   4.935   3.361  15.482 -0.3417  0.9196  0.3061
15586TIP3    H268250   4.866   3.340  15.349  1.8300 -1.8145 -0.4848
15587TIP3   OH268251   0.318   6.675   5.044 -0.2307  0.1835 -0.5426
15587TIP3    H168252   0.399   6.667   4.994 -0.7860  0.5500 -1.5457
15587TIP3    H268253   0.279   6.588   5.043  1.6381 -0.8356  2.6845
15588TIP3   OH268254   5.905   2.241  14.253  0.0035 -0.1474 -0.4655
15588TIP3    H168255   5.844   2.252  14.180 -0.0331 -0.9236 -0.5587
15588TIP3    H268256   5.959   2.320  14.251  1.2502 -0.9818 -2.5112
15589TIP3   OH268257   2.262   2.935  11.865  0.4160  0.1521  0.4496
15589TIP3    H168258   2.248   3.000  11.935 -0.2809  1.8798 -1.2017
15589TIP3    H268259   2.177   2.893  11.854 -0.3664  2.0729 -1.3807
15590TIP3   OH268260   4.144   5.237  14.928 -0.0170  0.4795  0.5346
15590TIP3    H168261   4.167   5.229  14.835 -1.3154 -2.4445  0.3487
15590TIP3    H268262   4.213   5.188  14.973  0.3290  1.4599  1.0934
15591TIP3   OH268263   0.289   1.718  15.174  0.0808  0.2764  0.3258
15591TIP3    H168264   0.301   1.793  15.233  0.4374  0.9163 -0.5389
15591TIP3    H268265   0.301   1.642  15.230 -0.8184  0.8500  1.3421
15592TIP3   OH268266   6.314   4.646  16.191  0.1059 -0.1685 -0.6997
15592TIP3    H168267   6.225   4.660  16.161 -0.8655 -1.0533  1.5489
15592TIP3    H268268   6.333   4.554  16.171 -0.3039 -0.5759  0.6815
15593TIP3   OH268269   5.710   4.140   1.152 -0.4237 -0.1167  0.5927
15593TIP3    H168270   5.746   4.193   1.224 -1.3879 -2.4923  2.9948
15593TIP3    H268271   5.785   4.089   1.120 -0.1628  0.3331  0.4828
15594TIP3   OH268272   2.086   1.372  17.166  0.4109 -0.2337 -0.8668
15594TIP3    H168273   2.012   1.348  17.222 -1.1517 -0.2727 -2.8105
15594TIP3    H268274   2.154   1.400  17.227 -1.0504 -0.5663  1.0394
15595TIP3   OH268275   5.015   0.933  16.449 -0.5877 -0.0046  0.2543
15595TIP3    H168276   5.029   1.016  16.404 -0.9300 -0.3190 -0.4576
15595TIP3    H268277   5.094   0.920  16.501 -0.3854  0.6048  0.1054
15596TIP3   OH268278   5.637   6.404  13.177 -0.2344  0.2242  0.2563
15596TIP3    H168279   5.544   6.415  13.197 -0.5095  0.1363 -0.8781
15596TIP3    H268280   5.674   6.366  13.256 -1.3724 -0.7303  0.3577
15597TIP3   OH268281   4.135   2.180  13.352 -0.2561 -0.0974 -0.3013
15597TIP3    H168282   4.070   2.153  13.287 -2.2024  1.8440  0.7076
15597TIP3    H268283   4.177   2.257  13.314 -2.5082  2.0327  1.2149
15598TIP3   OH268284   6.405   3.024  12.114 -0.3747 -0.5592  0.3689
15598TIP3    H168285   6.449   2.970  12.048 -0.6671 -0.1926 -0.1392
15598TIP3    H268286   6.475   3.062  12.166 -0.1324 -0.7797  0.2027
15599TIP3   OH268287   6.002   3.288  11.956  0.0804 -0.0745 -0.1541
15599TIP3    H168288   5.986   3.312  12.047  0.7803 -0.9432  0.2172
15599TIP3    H268289   5.946   3.347  11.905 -0.1579  0.5633  0.8210
15600TIP3   OH268290   1.034   2.025   0.792 -0.2405 -0.4161 -0.3415
15600TIP3    H168291   1.120   2.036   0.833 -1.0281  2.0822  0.8187
15600TIP3    H268292   0.975   2.006   0.865 -1.0711  0.4388 -0.7705
15601TIP3   OH268293   6.793   4.381   1.801  0.4645 -0.2429  0.1488
15601TIP3    H168294   6.773   4.312   1.737 -0.9096 -0.1450  0.4411
15601TIP3    H268295   6.708   4.404   1.838  0.9089  1.5918  0.0910
15602TIP3   OH268296   3.509   3.046  11.787 -0.0693 -0.0652  0.3876
15602TIP3    H168297   3.579   2.986  11.760  0.5585  0.3484  1.0601
15602TIP3    H268298   3.551   3.132  11.788 -0.6876  0.2428  0.4632
15603TIP3   OH268299   5.478   6.247   5.616 -0.3548 -0.2281  0.2668
15603TIP3    H168300   5.477   6.154   5.639 -0.7765 -0.5990 -1.1238
15603TIP3    H268301   5.484   6.248   5.520  1.4391  1.2094  0.3332
15604TIP3   OH268302   1.331   0.654  12.822 -0.1110  0.2207  0.0622
15604TIP3    H168303   1.275   0.594  12.871 -0.7679 -0.0852 -1.0249
15604TIP3    H268304   1.417   0.611  12.822  0.1974  0.7663  1.8681
15605TIP3   OH268305   3.296   2.815  13.854  0.1795  0.0264 -0.2467
15605TIP3    H168306   3.390   2.800  13.842  0.1278 -0.0612 -0.5639
15605TIP3    H268307   3.284   2.817  13.949  0.4064 -0.5866 -0.1939
15606TIP3   OH268308   0.157   4.605  13.319 -0.0928  0.0544 -0.5742
15606TIP3    H168309   0.169   4.654  13.237  1.1843  1.0119  0.1385
15606TIP3    H268310   0.108   4.664  13.376 -0.6360 -0.4497 -0.5176
15607TIP3   OH268311   5.146   0.778  16.231 -0.3327  0.3756 -0.6517
15607TIP3    H168312   5.080   0.789  16.300 -0.3378  0.7314 -0.7111
15607TIP3    H268313   5.156   0.683  16.222  1.6752  0.2502  1.7612
15608TIP3   OH268314   2.885   0.439  13.898  0.2786  0.0373 -0.6257
15608TIP3    H168315   2.948   0.428  13.970  0.7593  1.9092 -0.7261
15608TIP3    H268316   2.873   0.533  13.891  0.0851 -0.1167 -2.8972
15609TIP3   OH268317   6.144   4.084   0.469 -0.1276 -0.5652 -0.3589
15609TIP3    H168318   6.206   4.134   0.522 -0.0282  1.0513 -1.9164
15609TIP3    H268319   6.199   4.021   0.422  0.2948  0.5012 -1.3294
15610TIP3   OH268320   1.099   3.142   4.201  0.0747 -0.1547 -0.4531
15610TIP3    H168321   1.132   3.198   4.272  1.6503 -0.4384 -0.9319
15610TIP3    H268322   1.076   3.203   4.131 -1.3704  0.1170  0.2187
15611TIP3   OH268323   6.035   0.298   3.690 -0.4424 -0.3140 -0.3041
15611TIP3    H168324   6.055   0.258   3.606  0.5071 -0.0912 -0.2010
15611TIP3    H268325   6.092   0.254   3.752  1.3422  1.7675 -0.3410
15612TIP3   OH268326   0.023   2.123   4.578 -0.5893  0.5586 -0.1254
15612TIP3    H168327  -0.065   2.089   4.594 -0.2527  0.0559  0.7339
15612TIP3    H268328   0.015   2.171   4.496 -2.0230  1.7868  0.6671
15613TIP3   OH268329   3.892   4.170  11.905  0.0661 -0.5586  0.4491
15613TIP3    H168330   3.854   4.170  11.993 -1.0207  0.0447 -0.0011
15613TIP3    H268331   3.976   4.125  11.915  0.5774  0.6630  2.0524
15614TIP3   OH268332   4.320   3.079  15.092  0.0523  0.5733  0.5009
15614TIP3    H168333   4.328   3.089  14.997  1.5412 -0.2198  0.5102
15614TIP3    H268334   4.316   3.169  15.125  0.7295  0.8853 -0.2274
15615TIP3   OH268335   1.169   3.217  11.881 -0.5059  0.1122  0.8786
15615TIP3    H168336   1.077   3.219  11.857 -0.1382 -0.8929 -0.7744
15615TIP3    H268337   1.216   3.236  11.800  0.7662 -0.8348  1.3532
15616TIP3   OH268338   1.454   5.670  16.852 -0.2824  0.0434  0.4474
15616TIP3    H168339   1.457   5.589  16.802 -0.2708 -0.8353  1.8343
15616TIP3    H268340   1.490   5.736  16.792  4.6944 -1.8182  0.9093
15617TIP3   OH268341   2.380   3.052   5.412 -0.8251  0.0822  0.3923
15617TIP3    H168342   2.353   2.966   5.380 -0.6127 -0.2043  0.9637
15617TIP3    H268343   2.307   3.109   5.391 -0.6844 -0.0838 -0.6186
15618TIP3   OH268344   4.548   0.853  13.170 -0.2538  0.3578  0.6743
15618TIP3    H168345   4.484   0.802  13.120  1.5716 -1.2651 -0.1426
15618TIP3    H268346   4.571   0.796  13.243  3.0579 -0.9082 -1.1511
15619TIP3   OH268347   0.825   5.541  10.544 -0.1461  0.3669 -0.2849
15619TIP3    H168348   0.735   5.565  10.524 -0.2813  0.6947  0.6743
15619TIP3    H268349   0.863   5.620  10.583  0.1935 -0.1535  0.4474
15620TIP3   OH268350   2.934   5.283  14.486  0.1262 -0.2166  0.0812
15620TIP3    H168351   2.933   5.270  14.391 -0.5404 -0.3443  0.0967
15620TIP3    H268352   3.010   5.234  14.516  0.6218  0.2184 -0.4385
15621TIP3   OH268353   6.252   1.742   0.521  0.1095  0.3548 -0.0762
15621TIP3    H168354   6.325   1.754   0.581  1.8678  0.3903 -2.1062
15621TIP3    H268355   6.220   1.654   0.540  2.9731 -1.0846 -1.4194
15622TIP3   OH268356   6.147   1.930  17.051  0.1835 -0.2495  0.6738
15622TIP3    H168357   6.194   2.010  17.075 -1.6754  0.8320  0.8365
15622TIP3    H268358   6.082   1.959  16.987 -0.4439 -1.6602  0.6542
15623TIP3   OH268359   0.675   5.447  14.830  0.4801  0.0150 -0.4322
15623TIP3    H168360   0.769   5.454  14.847  0.3596 -1.4335  1.0554
15623TIP3    H268361   0.668   5.372  14.770  0.2765  0.2372 -0.6884
15624TIP3   OH268362   0.466   6.613   1.685  0.2548 -0.7715  0.1895
15624TIP3    H168363   0.496   6.539   1.632  0.4804 -0.8765  0.4611
15624TIP3    H268364   0.484   6.587   1.775 -2.1803 -1.5566  0.5303
15625TIP3   OH268365   3.141   1.654   5.053 -0.0245 -0.0292 -0.2142
15625TIP3    H168366   3.120   1.700   4.971  2.3846  1.3253 -0.1287
15625TIP3    H268367   3.220   1.604   5.033  1.7378  1.7903  1.7138
15626TIP3   OH268368   0.994   1.646   1.524 -0.2104  0.0437 -0.0202
15626TIP3    H168369   1.087   1.662   1.540 -0.4453  0.7645  0.7157
15626TIP3    H268370   0.987   1.552   1.511  0.6697  0.0283 -0.4474
15627TIP3   OH268371   5.871   0.454   1.868 -0.3257 -0.2178 -0.1946
15627TIP3    H168372   5.944   0.411   1.823 -0.2188  0.4144 -0.6249
15627TIP3    H268373   5.801   0.458   1.803 -0.2647  0.4455 -0.2261
15628TIP3   OH268374   5.285   0.468  12.544 -0.1684 -0.2060 -0.1476
15628TIP3    H168375   5.289   0.467  12.640 -2.0631 -1.0503 -0.0316
15628TIP3    H268376   5.343   0.539  12.518  1.1303 -0.5777  1.5681
15629TIP3   OH268377   3.629   1.547   1.163  0.0386  0.2092  0.2550
15629TIP3    H168378   3.723   1.533   1.165 -0.0833 -0.5553  0.7958
15629TIP3    H268379   3.607   1.576   1.252 -0.1793  0.8222  0.0111
15630TIP3   OH268380   0.295   5.851   4.818  0.4502 -0.1699 -0.3842
15630TIP3    H168381   0.312   5.911   4.891  1.7265 -0.9335 -0.0110
15630TIP3    H268382   0.289   5.908   4.741 -2.3696  0.7992  0.4365
15631TIP3   OH268383   2.809   1.704   5.306 -0.4164 -0.4969  0.3178
15631TIP3    H168384   2.770   1.790   5.293  1.1719  0.0951 -0.7410
15631TIP3    H268385   2.779   1.678   5.394 -1.3672  0.8609  0.4317
15632TIP3   OH268386   3.721   1.711  14.871  0.3663  0.0614 -0.1013
15632TIP3    H168387   3.701   1.653  14.944 -0.0426  0.9298  0.4864
15632TIP3    H268388   3.697   1.798  14.901 -1.5077  0.2499 -1.8853
15633TIP3   OH268389   5.666   6.065   0.803  0.2157 -1.1819  0.0291
15633TIP3    H168390   5.698   5.979   0.775  1.6750 -0.6728  0.0559
15633TIP3    H268391   5.582   6.047   0.846 -1.5588 -2.1764 -3.4166
15634TIP3   OH268392   2.667   6.833   4.529 -0.2783 -0.2504  0.5702
15634TIP3    H168393   2.635   6.911   4.485  1.3026  0.7800  1.1418
15634TIP3    H268394   2.629   6.837   4.617  0.5919  0.4477  0.9305
15635TIP3   OH268395   6.330   0.968   0.228  0.6034  0.2113 -0.1115
15635TIP3    H168396   6.240   0.942   0.208  1.0411 -2.3813  0.9925
15635TIP3    H268397   6.381   0.937   0.153  0.8655 -0.2928  0.2729
15636TIP3   OH268398   3.123   1.272   0.882 -0.3429 -0.0209 -0.1321
15636TIP3    H168399   3.162   1.237   0.962  0.7419  1.6817  0.1376
15636TIP3    H268400   3.178   1.347   0.860 -2.0665  1.0062 -1.1170
15637TIP3   OH268401   5.727   3.023  14.014  0.0472  0.4244  0.5491
15637TIP3    H168402   5.670   3.056  13.946  1.9451  1.7456 -0.4783
15637TIP3    H268403   5.747   3.099  14.069  2.5023  0.5576 -0.4015
15638TIP3   OH268404   6.665   3.968  10.986  0.0717  1.1245 -0.1816
15638TIP3    H168405   6.726   3.903  10.951  0.9013  2.4407 -1.3128
15638TIP3    H268406   6.604   3.918  11.038 -0.7068 -0.8994 -2.8011
15639TIP3   OH268407   0.182   6.014   4.169  0.0776  0.4946  0.1343
15639TIP3    H168408   0.132   6.084   4.212  1.4345 -0.1319  2.9981
15639TIP3    H268409   0.172   6.031   4.076 -0.1144  4.1916  0.6789
15640TIP3   OH268410   3.247   0.506   0.565 -0.2355  0.4177 -0.2029
15640TIP3    H168411   3.179   0.459   0.516  0.9612 -0.3615 -1.1617
15640TIP3    H268412   3.312   0.530   0.499 -0.1913  2.3340  0.4695
15641TIP3   OH268413   4.509   2.964   6.332  0.4832  0.4048  0.3094
15641TIP3    H168414   4.560   3.041   6.355  0.6301 -0.3669  2.9885
15641TIP3    H268415   4.451   2.950   6.407 -1.0000 -0.9237 -0.9908
15642TIP3   OH268416   1.210   1.140   2.518 -0.0776  0.3743 -0.3304
15642TIP3    H168417   1.202   1.219   2.571  1.1397 -0.3299  0.9833
15642TIP3    H268418   1.123   1.100   2.522  0.2301 -0.2293  2.1733
15643TIP3   OH268419   5.648   5.333  15.586 -0.4593 -0.4872  0.9938
15643TIP3    H168420   5.588   5.313  15.514  1.3348 -1.4945 -0.2790
15643TIP3    H268421   5.643   5.257  15.643 -0.2738 -0.6283  0.8194
15644TIP3   OH268422   1.792   2.161  12.274 -0.0364 -0.4288 -0.4646
15644TIP3    H168423   1.853   2.159  12.200 -0.0382  0.1972 -0.4828
15644TIP3    H268424   1.849   2.165  12.351 -0.0504  1.5622 -0.5257
15645TIP3   OH268425   5.333   6.780  13.109 -0.1243 -0.0258  0.2752
15645TIP3    H168426   5.367   6.701  13.069  0.0209 -0.5884  1.4589
15645TIP3    H268427   5.238   6.766  13.113 -0.4125  0.9625 -1.7876
15646TIP3   OH268428   4.950   1.754   4.252  0.6165  0.1159 -0.2983
15646TIP3    H168429   4.888   1.700   4.203  0.4466  0.3354 -0.3259
15646TIP3    H268430   5.011   1.786   4.186  1.0445 -0.4854 -0.2020
15647TIP3   OH268431   6.501   0.521  13.792  0.1932 -0.1240 -0.0761
15647TIP3    H168432   6.533   0.430  13.794  0.9456  0.0323 -2.1636
15647TIP3    H268433   6.581   0.574  13.801 -0.2242  0.3590  0.9614
15648TIP3   OH268434   5.234   1.538  12.782 -0.0192 -0.6324 -0.3606
15648TIP3    H168435   5.188   1.502  12.706 -1.6188 -0.8069  0.6398
15648TIP3    H268436   5.165   1.579  12.834  0.7530 -1.9617  1.8255
15649TIP3   OH268437   3.223   4.941   3.465  0.2230  0.2389 -0.2634
15649TIP3    H168438   3.243   5.033   3.447  0.1662  0.2800 -0.1184
15649TIP3    H268439   3.262   4.925   3.551 -0.1434  0.2462 -0.0945
15650TIP3   OH268440   4.242   3.164   1.493  0.6287 -0.2305  0.6708
15650TIP3    H168441   4.292   3.137   1.415 -0.8165 -0.2362 -0.3022
15650TIP3    H268442   4.308   3.183   1.559  1.8577 -1.4487 -0.1675
15651TIP3   OH268443   4.446   2.997  16.963 -0.4520 -0.1326 -0.3156
15651TIP3    H168444   4.351   2.992  16.971 -0.6099  1.8236 -0.3743
15651TIP3    H268445   4.462   3.016  16.871 -0.0167 -0.3587 -0.2876
15652TIP3   OH268446   6.035   3.568   1.928  0.0174  0.2228 -0.2027
15652TIP3    H168447   6.038   3.615   1.845 -2.2090  0.8420  0.0045
15652TIP3    H268448   6.008   3.479   1.904  1.4126 -0.1908 -0.3128
15653TIP3   OH268449   4.140   0.195   3.761 -0.4819 -0.0734 -0.4403
15653TIP3    H168450   4.142   0.263   3.828  0.8101  0.5144 -1.0353
15653TIP3    H268451   4.053   0.156   3.769 -0.3522 -0.0248  1.5523
15654TIP3   OH268452   1.480   0.977   6.236 -0.5921 -0.3697 -0.1750
15654TIP3    H168453   1.477   0.892   6.280 -1.4172  0.3918  1.3624
15654TIP3    H268454   1.398   0.982   6.188 -1.3611  0.2005  1.1245
15655TIP3   OH268455   4.305   0.688   3.917  0.2014  0.2306 -0.6409
15655TIP3    H168456   4.332   0.664   4.005  0.2106  1.8329 -0.1785
15655TIP3    H268457   4.327   0.611   3.863 -0.8523 -1.2315  0.9017
15656TIP3   OH268458   1.473   2.801   0.027  0.4828 -0.6692  0.2124
15656TIP3    H168459   1.469   2.737  -0.044  2.6627 -0.3615 -0.2394
15656TIP3    H268460   1.425   2.877  -0.006 -0.5830 -1.3956  0.0470
15657TIP3   OH268461   4.043   6.625  15.516 -0.1778 -0.5475 -0.1196
15657TIP3    H168462   4.132   6.658  15.502 -0.6066  0.3888 -0.7645
15657TIP3    H268463   4.053   6.553  15.577  0.8880  0.3486  0.8030
15658TIP3   OH268464   2.384   5.910   4.755  0.2764 -0.3410  0.5467
15658TIP3    H168465   2.424   5.897   4.669 -1.1453 -0.3846 -0.1361
15658TIP3    H268466   2.406   5.830   4.804  0.3679 -0.6997 -0.0683
15659TIP3   OH268467   1.914   6.768  13.927  0.6621  0.3192 -0.1289
15659TIP3    H168468   1.865   6.696  13.967 -1.7029  2.2830  0.7218
15659TIP3    H268469   1.934   6.827  14.000  0.7741  1.5080 -1.0913
15660TIP3   OH268470   5.363   5.415   0.136 -0.4793 -0.8569  0.0421
15660TIP3    H168471   5.428   5.485   0.145  1.1804 -1.9669 -2.1488
15660TIP3    H268472   5.373   5.363   0.215  0.9111 -0.6570  0.0258
15661TIP3   OH268473   6.724   2.169  12.595 -0.4016  0.1571  0.3458
15661TIP3    H168474   6.640   2.210  12.575 -0.5129  0.5788  1.5784
15661TIP3    H268475   6.765   2.154  12.510 -2.2280 -1.1726 -0.3384
15662TIP3   OH268476   1.105   3.905  12.000 -0.7309  0.3337 -0.3293
15662TIP3    H168477   1.041   3.935  11.936  0.8120  1.2679 -1.5057
15662TIP3    H268478   1.182   3.883  11.949  0.6639  1.4043  1.1844
15663TIP3   OH268479   0.263   4.076  15.358  0.2069  0.0524 -0.2581
15663TIP3    H168480   0.186   4.042  15.313  0.7198 -0.9609 -0.3925
15663TIP3    H268481   0.334   4.068  15.295  0.4461  0.9454 -0.1222
15664TIP3   OH268482   5.821   5.127  12.634  0.0719 -0.1385  0.0038
15664TIP3    H168483   5.891   5.063  12.647  2.4734  1.6290 -3.0944
15664TIP3    H268484   5.782   5.104  12.550  0.6933  2.1191 -0.9774
15665TIP3   OH268485   0.665   3.562   4.880  0.3983  0.2931 -0.4310
15665TIP3    H168486   0.669   3.589   4.788  0.8526  0.3773 -0.3896
15665TIP3    H268487   0.607   3.625   4.922  1.1665  0.9905 -0.4066
15666TIP3   OH268488   1.497   5.433   4.789  0.2219 -0.2536 -0.7178
15666TIP3    H168489   1.542   5.492   4.729 -0.6174 -1.0894 -2.2422
15666TIP3    H268490   1.443   5.379   4.732 -0.6912 -1.0239  0.8282
15667TIP3   OH268491   3.753   1.516   3.329  0.4111  0.0077  0.0602
15667TIP3    H168492   3.797   1.595   3.359  1.4079 -0.2222 -0.7076
15667TIP3    H268493   3.700   1.545   3.255 -0.9922  0.3389  1.1770
15668TIP3   OH268494   3.116   3.633  11.890  0.0461  0.1750 -0.7393
15668TIP3    H168495   3.105   3.724  11.918 -0.8629 -0.0589 -0.3202
15668TIP3    H268496   3.138   3.640  11.797  2.0875  0.9076 -0.2533
15669TIP3   OH268497   6.667   3.230   2.090  0.1691  0.4421 -0.5056
15669TIP3    H168498   6.742   3.284   2.066  0.5762  0.3915  0.6034
15669TIP3    H268499   6.592   3.289   2.088  0.3501  0.6594 -0.9006
15670TIP3   OH268500   0.736   5.362  16.797 -0.2746 -0.2373  0.5590
15670TIP3    H168501   0.774   5.279  16.827 -0.6689 -1.1770 -1.3730
15670TIP3    H268502   0.642   5.344  16.790 -0.3165  0.2499 -0.2184
15671TIP3   OH268503   2.206   0.039  16.022  0.3901 -0.5482 -0.4877
15671TIP3    H168504   2.195   0.081  15.937 -1.4884 -1.1506 -0.5831
15671TIP3    H268505   2.260  -0.038  16.004  2.2600  0.7221 -0.6243
15672TIP3   OH268506   4.740   2.751  14.176 -0.0548  0.0859 -0.2726
15672TIP3    H168507   4.817   2.802  14.199  0.6890 -0.7493 -0.8407
15672TIP3    H268508   4.696   2.735  14.259  1.9533 -1.8824  0.5208
15673TIP3   OH268509   2.495   6.810   3.777 -0.0932  0.0871  0.0813
15673TIP3    H168510   2.453   6.890   3.807  1.5469  0.3137  1.9273
15673TIP3    H268511   2.577   6.805   3.827  0.1427 -2.4041 -0.4315
15674TIP3   OH268512   4.656   1.170   4.032  0.6673 -0.3908 -0.4734
15674TIP3    H168513   4.685   1.141   3.945 -1.3859  0.8383 -1.6328
15674TIP3    H268514   4.647   1.265   4.024 -0.0753 -0.3234  0.9299
15675TIP3   OH268515   6.539   4.442  12.772  0.3501  0.4409 -0.1147
15675TIP3    H168516   6.499   4.503  12.834  1.0560 -0.3491  1.1609
15675TIP3    H268517   6.504   4.468  12.687  0.5662  2.5676  0.3900
15676TIP3   OH268518   1.087   1.801   4.373 -0.0581 -0.1415  0.0608
15676TIP3    H168519   1.035   1.779   4.451 -1.2484 -0.6376 -0.8416
15676TIP3    H268520   1.035   1.769   4.300  1.3092 -0.1964 -0.9265
15677TIP3   OH268521   1.572   5.316  11.032 -0.4331  0.2877 -0.8126
15677TIP3    H168522   1.527   5.232  11.038 -1.0307  0.5087 -1.8492
15677TIP3    H268523   1.630   5.319  11.108 -2.3630  0.0942  0.7536
15678TIP3   OH268524   1.020   2.846   1.691  0.1164  0.8322  0.3946
15678TIP3    H168525   0.948   2.839   1.754  0.1642  0.8668  0.4522
15678TIP3    H268526   0.977   2.840   1.606  0.2147 -1.0533  0.4269
15679TIP3   OH268527   4.647   4.257  13.970  0.3661  1.1590 -0.1507
15679TIP3    H168528   4.738   4.246  13.943  0.8533 -0.5661  1.9109
15679TIP3    H268529   4.631   4.351  13.965  1.9284  1.3874 -1.5022
15680TIP3   OH268530   4.253   5.782   1.932 -0.9751  0.1634  0.6101
15680TIP3    H168531   4.239   5.822   2.018 -2.0739  0.2751  0.3926
15680TIP3    H268532   4.322   5.718   1.947  0.2340  1.5222  1.1572
15681TIP3   OH268533   3.661   3.869   1.357 -0.7452  0.3563  0.3403
15681TIP3    H168534   3.651   3.962   1.378  0.7896  0.5122  0.5290
15681TIP3    H268535   3.740   3.843   1.403 -1.0968 -1.0279  0.1903
15682TIP3   OH268536   0.197   0.938  12.097 -0.0182  0.4732 -0.5597
15682TIP3    H168537   0.243   0.855  12.084  0.6750  0.9975 -1.6209
15682TIP3    H268538   0.127   0.917  12.158  0.9437 -0.5985  0.2220
15683TIP3   OH268539   5.076   6.758  12.566  0.2684  0.5205  0.3531
15683TIP3    H168540   5.155   6.810  12.550  0.0799  1.3973  2.0518
15683TIP3    H268541   5.007   6.823  12.579 -0.6101 -0.2306 -0.3931
15684TIP3   OH268542   2.800   0.057   0.849  0.4254 -0.7757 -0.1155
15684TIP3    H168543   2.880   0.011   0.825  0.8106 -0.1652 -0.0137
15684TIP3    H268544   2.821   0.150   0.838  1.2875 -0.2292  4.3678
15685TIP3   OH268545   3.735   4.744  11.915 -0.2621  0.2226 -0.5172
15685TIP3    H168546   3.726   4.816  11.852 -1.8571  0.9165  0.4366
15685TIP3    H268547   3.775   4.784  11.992 -2.4844  0.5244  0.5707
15686TIP3   OH268548   1.772   5.887  14.346  0.4414  0.3246 -0.3581
15686TIP3    H168549   1.777   5.838  14.428  1.1637 -0.1728 -0.6868
15686TIP3    H268550   1.835   5.843  14.288 -0.2098  0.5326 -1.2457
15687TIP3   OH268551   4.514   1.606   1.661  0.2699  0.0438 -0.3108
15687TIP3    H168552   4.552   1.661   1.729 -0.2676 -1.1247  0.9683
15687TIP3    H268553   4.454   1.663   1.614 -0.4447  0.5108  1.1272
15688TIP3   OH268554   1.194   4.484  13.048  0.0982 -0.1007  0.1060
15688TIP3    H168555   1.102   4.506  13.031  0.5210  0.8615 -1.0888
15688TIP3    H268556   1.200   4.481  13.144 -0.7748  1.7097  0.2701
15689TIP3   OH268557   1.191   4.514   1.066 -0.3560 -0.1252 -0.2529
15689TIP3    H168558   1.180   4.424   1.094 -2.6795  0.3071  0.4733
15689TIP3    H268559   1.285   4.531   1.072  0.3517 -2.9327 -1.9482
15690TIP3   OH268560   0.814   3.035  15.305  0.2182 -1.0148  0.3260
15690TIP3    H168561   0.785   3.014  15.216  1.2443 -0.8724 -0.0549
15690TIP3    H268562   0.877   2.966  15.327  0.5374 -0.6292  0.6405
15691TIP3   OH268563   4.180   3.864   3.550 -0.3029  0.5255  0.2646
15691TIP3    H168564   4.160   3.948   3.590 -0.5588  1.4775 -1.7386
15691TIP3    H268565   4.095   3.830   3.521 -0.1788 -0.3572  0.8833
15692TIP3   OH268566   2.666   1.894   4.924 -0.2775 -0.0401  0.0334
15692TIP3    H168567   2.634   1.958   4.860 -0.5826  1.3744  1.5424
15692TIP3    H268568   2.760   1.910   4.929 -0.1479 -0.5841 -0.4942
15693TIP3   OH268569   5.714   3.625  11.279 -0.7030 -0.0209 -0.6204
15693TIP3    H168570   5.706   3.574  11.360  0.8906 -1.1257 -1.1166
15693TIP3    H268571   5.691   3.563  11.209  0.2871  0.2067 -1.1650
15694TIP3   OH268572   5.275   1.676   5.690  0.1906  0.2992 -0.2449
15694TIP3    H168573   5.287   1.598   5.745  0.5827 -0.3624 -1.2402
15694TIP3    H268574   5.199   1.720   5.728 -0.6663 -1.1065 -0.2382
15695TIP3   OH268575   0.372   3.555  16.550  0.5133 -0.3811  0.2664
15695TIP3    H168576   0.419   3.473  16.565  1.9878  0.3001 -0.4125
15695TIP3    H268577   0.342   3.550  16.460  0.5395 -0.1977  0.2480
15696TIP3   OH268578   3.936   1.451   0.770  0.0770 -0.2116  0.6081
15696TIP3    H168579   3.845   1.457   0.739  0.8920 -0.7643 -2.2388
15696TIP3    H268580   3.955   1.357   0.770  0.7142 -0.0872  0.9916
15697TIP3   OH268581   3.809   1.849   1.297  0.2230 -0.3970 -0.4159
15697TIP3    H168582   3.757   1.826   1.220 -0.9626 -0.6504  0.4248
15697TIP3    H268583   3.825   1.943   1.288  0.0067 -0.4059 -0.9194
15698TIP3   OH268584   0.544   3.795   2.356 -0.0278 -0.4759 -0.0038
15698TIP3    H168585   0.618   3.771   2.300  1.1919 -0.0261  1.3825
15698TIP3    H268586   0.583   3.831   2.435 -1.7446  1.2528  0.1427
15699TIP3   OH268587   1.317   2.880   1.787 -0.4422  0.4418 -0.0413
15699TIP3    H168588   1.348   2.906   1.700 -1.3159  1.1580 -0.1525
15699TIP3    H268589   1.225   2.858   1.774 -0.1888 -0.9673  0.4150
15700TIP3   OH268590   5.837   3.690   3.413  0.5460  0.4018 -0.1092
15700TIP3    H168591   5.844   3.683   3.318  0.5313  0.6472 -0.1290
15700TIP3    H268592   5.833   3.599   3.443 -2.1616  0.2994 -0.5408
15701TIP3   OH268593   0.091   0.009   3.344 -0.0159 -0.5153 -0.5880
15701TIP3    H168594  -0.003  -0.007   3.352 -0.1233  0.2251 -0.2954
15701TIP3    H268595   0.097   0.099   3.312  0.5989 -0.5475 -0.5671
15702TIP3   OH268596   1.072   1.907  13.534 -0.0904 -0.1820  0.3739
15702TIP3    H168597   1.024   1.847  13.478  1.0412 -3.1785  2.4059
15702TIP3    H268598   1.037   1.892  13.622  2.4616 -0.3521  1.4448
15703TIP3   OH268599   1.417   0.952   3.812 -0.0303  0.0762 -0.0893
15703TIP3    H168600   1.422   0.966   3.717  1.5740  1.9019  0.1995
15703TIP3    H268601   1.423   1.040   3.849  0.4549 -0.6896  1.7471
15704TIP3   OH268602   4.472   2.437  15.088  0.0159 -0.2280 -0.1867
15704TIP3    H168603   4.544   2.381  15.058 -0.0047 -0.5652  0.3919
15704TIP3    H268604   4.509   2.485  15.162 -0.9520 -1.9081  1.4537
15705TIP3   OH268605   3.504   5.616   6.219 -0.0210 -0.4936  0.3458
15705TIP3    H168606   3.440   5.604   6.290 -0.6102  1.2923  0.1573
15705TIP3    H268607   3.546   5.530   6.210 -1.8334 -1.5026  1.0218
15706TIP3   OH268608   2.250   5.133  15.836  0.4348  0.1971  0.4468
15706TIP3    H168609   2.175   5.139  15.777 -0.6420 -0.6801  1.6870
15706TIP3    H268610   2.278   5.224  15.849 -0.4659  0.5393  0.0502
15707TIP3   OH268611   4.121   6.477  11.603  0.1769 -0.0852  0.0759
15707TIP3    H168612   4.166   6.416  11.544 -1.4147 -0.9388 -0.2999
15707TIP3    H268613   4.151   6.563  11.574  0.1746 -0.5329 -1.3772
15708TIP3   OH268614   4.742   6.587  10.686  0.0367  0.3723  0.1459
15708TIP3    H168615   4.668   6.569  10.628  1.0580  0.3960 -1.2053
15708TIP3    H268616   4.704   6.639  10.758 -1.5349 -0.9476  0.3218
15709TIP3   OH268617   1.599   5.759  10.766  0.2293  0.4829  0.0089
15709TIP3    H168618   1.642   5.830  10.719 -1.2647  0.5416 -1.3612
15709TIP3    H268619   1.560   5.705  10.697 -0.5501 -0.4164  1.1174
15710TIP3   OH268620   3.899   0.867  14.947 -0.0892 -0.3552  0.2959
15710TIP3    H168621   3.813   0.903  14.966  0.2284 -0.1946  1.5322
15710TIP3    H268622   3.887   0.816  14.867 -0.7324  1.7539 -1.0325
15711TIP3   OH268623   6.310   2.589  14.232  0.0098 -0.5112  0.1999
15711TIP3    H168624   6.358   2.580  14.150  0.6091  3.9416 -0.1880
15711TIP3    H268625   6.376   2.620  14.295 -1.3883  1.3015  0.8632
15712TIP3   OH268626   0.170   2.094   5.644  0.0736  0.0526 -0.1701
15712TIP3    H168627   0.171   2.114   5.737 -2.4605  0.8603 -0.2482
15712TIP3    H268628   0.184   2.179   5.601  2.3007 -0.4643 -0.5845
15713TIP3   OH268629   4.186   4.031  12.063 -0.0587 -0.4359 -0.2635
15713TIP3    H168630   4.180   4.009  12.156 -0.7695 -1.3498 -0.5190
15713TIP3    H268631   4.195   3.947  12.018  0.4320  0.0026 -1.0173
15714TIP3   OH268632   5.073   1.264  13.072  1.0132  0.1843  0.1646
15714TIP3    H168633   5.074   1.173  13.101 -0.2432 -0.0453 -0.4281
15714TIP3    H268634   5.089   1.259  12.977  0.4033  0.5312  0.0402
15715TIP3   OH268635   4.525   4.520  13.954  0.2053 -0.4156  0.1029
15715TIP3    H168636   4.566   4.600  13.986 -2.1153  0.9741 -0.1687
15715TIP3    H268637   4.471   4.490  14.028  2.2541 -2.7594  0.8158
15716TIP3   OH268638   4.454   6.052   1.615 -0.8337 -0.6241 -0.2646
15716TIP3    H168639   4.405   6.055   1.697 -1.8157 -1.6031 -0.7819
15716TIP3    H268640   4.455   6.143   1.584 -2.8119 -0.6246 -0.4750
15717TIP3   OH268641   2.898   6.475  12.806 -0.2689 -0.0705 -0.2673
15717TIP3    H168642   2.871   6.511  12.890 -0.3580  2.8893 -1.4410
15717TIP3    H268643   2.819   6.438  12.768 -0.7711  0.7283 -0.0213
15718TIP3   OH268644   4.606   2.804  12.641  0.3958 -0.4518 -0.3266
15718TIP3    H168645   4.669   2.740  12.675  1.3765  0.3581 -0.5827
15718TIP3    H268646   4.535   2.804  12.705  0.2009 -2.0509 -0.4978
15719TIP3   OH268647   5.175   1.926  12.550  0.3028  0.0019  0.3668
15719TIP3    H168648   5.268   1.945  12.541  0.0026  0.8902 -1.2724
15719TIP3    H268649   5.131   1.993  12.497 -1.0509 -2.7770 -2.3741
15720TIP3   OH268650   1.668   3.536   0.345 -0.0455  0.0456 -0.6458
15720TIP3    H168651   1.713   3.454   0.364 -3.2210 -1.7330 -0.1260
15720TIP3    H268652   1.641   3.568   0.432 -2.2755 -0.5611 -1.0559
15721TIP3   OH268653   1.962   0.681  14.202 -0.5622  0.0243  0.0997
15721TIP3    H168654   1.937   0.685  14.294  1.3493  0.6472  0.6249
15721TIP3    H268655   1.879   0.689  14.155 -1.4162  1.4641  1.7384
15722TIP3   OH268656   4.590   0.557   2.729 -0.6365  0.4123 -0.2864
15722TIP3    H168657   4.683   0.579   2.730 -0.6371  0.4130  0.4133
15722TIP3    H268658   4.568   0.548   2.637  0.1786 -0.0796 -0.4414
15723TIP3   OH268659   4.497   4.009   2.380  0.1132  0.1068  0.0173
15723TIP3    H168660   4.475   3.925   2.422 -0.6984  0.5854  0.5653
15723TIP3    H268661   4.438   4.015   2.305 -1.1779  1.0531  1.0697
15724TIP3   OH268662   1.834   4.582   5.801 -0.0094  0.1848 -0.8449
15724TIP3    H168663   1.888   4.560   5.877 -1.4851 -0.4157  0.0773
15724TIP3    H268664   1.874   4.660   5.764  2.0327 -0.7673 -0.7751
15725TIP3   OH268665   4.047   2.701   5.222  0.4150 -0.1854  0.3853
15725TIP3    H168666   4.071   2.709   5.315 -0.4214 -1.4364  0.7485
15725TIP3    H268667   3.957   2.735   5.218 -0.0672 -1.3958  0.3392
15726TIP3   OH268668   5.141   2.346  16.778  0.5097  0.4273 -0.4272
15726TIP3    H168669   5.055   2.381  16.754  0.2591  2.5358  2.8388
15726TIP3    H268670   5.160   2.280  16.711 -3.2134  0.4865 -1.7824
15727TIP3   OH268671   0.417   4.735   5.805  0.6443  0.0757  0.2361
15727TIP3    H168672   0.357   4.793   5.852 -0.6531 -0.9187 -0.1313
15727TIP3    H268673   0.403   4.649   5.844 -0.8442 -0.8963 -2.1727
15728TIP3   OH268674   2.831   1.908   1.768 -0.3062  0.5244  0.3927
15728TIP3    H168675   2.872   1.853   1.835 -1.5426  0.8390  1.4569
15728TIP3    H268676   2.840   1.859   1.687  0.2400 -0.3869  0.9948
15729TIP3   OH268677   6.475   2.824   1.246 -0.2606  1.2594  0.3531
15729TIP3    H168678   6.405   2.885   1.268 -1.6162 -0.6746  1.6688
15729TIP3    H268679   6.466   2.753   1.309  2.8213  0.8332  0.4623
15730TIP3   OH268680   5.343   6.291  14.089  0.0155 -0.1922 -0.2406
15730TIP3    H168681   5.311   6.207  14.121  0.6969 -0.3496  0.0389
15730TIP3    H268682   5.437   6.278  14.075 -0.0532  0.2097 -1.2061
15731TIP3   OH268683   3.080   4.799   2.559 -0.1951 -0.5774 -0.3635
15731TIP3    H168684   3.121   4.872   2.606 -0.6220  0.5924 -1.7407
15731TIP3    H268685   3.131   4.791   2.478 -1.1544 -0.7376 -0.9614
15732TIP3   OH268686   5.201   5.220  13.151  0.1903  0.4816  0.0768
15732TIP3    H168687   5.131   5.218  13.085  1.0100  1.0484 -0.8297
15732TIP3    H268688   5.154   5.217  13.235 -0.8373 -1.7540 -0.4924
15733TIP3   OH268689   6.192   4.627  10.421 -0.1856  0.1375  0.4511
15733TIP3    H168690   6.109   4.637  10.467 -0.8137 -0.0896 -0.6051
15733TIP3    H268691   6.196   4.702  10.361 -0.0964 -0.3725 -0.1900
15734TIP3   OH268692   2.201   5.009  16.788  0.0623 -0.3173  0.1823
15734TIP3    H168693   2.288   4.979  16.763 -0.6361 -1.6712 -0.7347
15734TIP3    H268694   2.209   5.104  16.794  1.2112 -0.2696 -1.5362
15735TIP3   OH268695   0.744   1.659  14.171  0.0062  0.3584  0.1839
15735TIP3    H168696   0.788   1.606  14.105  1.3567  0.6654  0.8052
15735TIP3    H268697   0.652   1.635  14.163  0.0022  0.9954 -2.3456
15736TIP3   OH268698   4.812   5.565   3.016 -0.0527  0.4242  0.2674
15736TIP3    H168699   4.897   5.562   3.059 -0.3941 -0.3904  0.9076
15736TIP3    H268700   4.828   5.610   2.933  1.1369 -0.3683  0.0534
15737TIP3   OH268701   2.302   4.456  16.342  0.3158  0.1397  0.7614
15737TIP3    H168702   2.314   4.482  16.433 -2.0357  1.3782  0.7915
15737TIP3    H268703   2.245   4.379  16.346 -2.0912  1.7739  0.3622
15738TIP3   OH268704   4.739   6.537   5.808  0.2445  0.6100 -0.5409
15738TIP3    H168705   4.743   6.599   5.735  0.9740  0.7677 -0.3683
15738TIP3    H268706   4.825   6.495   5.809  0.0119  0.1353 -0.1801
15739TIP3   OH268707   6.346   4.462   4.803 -0.6802 -0.0881  0.4230
15739TIP3    H168708   6.393   4.441   4.883 -0.2821  1.9785  0.7867
15739TIP3    H268709   6.408   4.443   4.732 -0.5646 -0.6572  0.6715
15740TIP3   OH268710   2.778   1.511   2.461  0.5069 -0.5493 -0.3011
15740TIP3    H168711   2.808   1.433   2.415 -1.1670 -0.9216 -0.8484
15740TIP3    H268712   2.726   1.559   2.396  1.4665  1.0140  0.0321
15741TIP3   OH268713   2.793   2.564  11.626  0.2293 -0.1562  0.1477
15741TIP3    H168714   2.879   2.558  11.585  0.0468  0.6379 -0.3666
15741TIP3    H268715   2.809   2.605  11.711  0.4673 -0.8280  0.4357
15742TIP3   OH268716   6.341   1.120   5.046  0.4086 -0.1441 -0.0363
15742TIP3    H168717   6.252   1.150   5.027  0.2859 -1.1137 -1.0536
15742TIP3    H268718   6.348   1.127   5.141 -1.3412 -1.5977  0.2514
15743TIP3   OH268719   4.695   6.732  16.016  0.2307  0.3047 -0.7452
15743TIP3    H168720   4.673   6.664  16.079 -0.1489  1.5175  0.4891
15743TIP3    H268721   4.749   6.688  15.950  1.0394 -0.9139  0.6790
15744TIP3   OH268722   0.986   4.339  14.568  0.2613 -0.0774 -0.2606
15744TIP3    H168723   0.923   4.307  14.503 -0.8136  1.6281 -0.1188
15744TIP3    H268724   0.940   4.333  14.651  1.0151 -0.6369  0.1296
15745TIP3   OH268725   4.318   6.715  17.008 -0.2079  0.0334  0.5355
15745TIP3    H168726   4.401   6.745  17.043 -0.6755  0.5683  1.2027
15745TIP3    H268727   4.268   6.686  17.084 -1.8471  2.6716  0.5904
15746TIP3   OH268728   1.414   5.210   3.624  0.2207  0.0198  0.3830
15746TIP3    H168729   1.451   5.281   3.571  0.1947  0.4427  0.9255
15746TIP3    H268730   1.343   5.175   3.569  0.7514 -0.1222 -0.2235
15747TIP3   OH268731   1.191   3.028   1.428  0.0124 -0.2525 -0.0811
15747TIP3    H168732   1.279   3.016   1.463 -0.3819 -1.7201  0.4904
15747TIP3    H268733   1.135   3.034   1.505 -0.4109  0.5548 -0.4402
15748TIP3   OH268734   3.763   2.172  15.715 -0.7497  1.0324  0.8183
15748TIP3    H168735   3.785   2.195  15.624 -0.7424 -0.5287  0.3967
15748TIP3    H268736   3.847   2.172  15.760 -0.2520 -1.3512  0.0395
15749TIP3   OH268737   0.986   0.543  16.061 -0.2777  0.3762 -0.6492
15749TIP3    H168738   1.059   0.544  15.999  0.0314  2.3385 -0.3110
15749TIP3    H268739   0.934   0.619  16.037 -1.2137  0.0438  0.2908
15750TIP3   OH268740   1.740   2.341  11.103  0.2884  0.1524  0.2564
15750TIP3    H168741   1.680   2.360  11.030  0.3231  2.0820  0.6809
15750TIP3    H268742   1.703   2.387  11.178  2.5998  1.9539  0.3896
15751TIP3   OH268743   4.614   1.340   4.695 -0.0848  0.3925 -0.2026
15751TIP3    H168744   4.605   1.319   4.602  0.0204  1.5681 -0.4963
15751TIP3    H268745   4.629   1.435   4.697  0.6745  0.2709  0.9655
15752TIP3   OH268746   1.282   6.304   4.476  0.2516  0.1935  0.1822
15752TIP3    H168747   1.281   6.393   4.442  1.9896  0.1875  0.0294
15752TIP3    H268748   1.291   6.249   4.398  1.6749  0.0436  0.4227
15753TIP3   OH268749   1.898   4.583   2.142  0.1921  0.1894 -0.1532
15753TIP3    H168750   1.811   4.547   2.160 -0.0889  0.7671 -0.3266
15753TIP3    H268751   1.882   4.674   2.119  0.5783 -0.3133 -2.7418
15754TIP3   OH268752   6.049   6.371   3.078  0.0241  0.2339 -0.3377
15754TIP3    H168753   6.021   6.290   3.035  1.8928  0.6097 -2.4288
15754TIP3    H268754   5.970   6.427   3.076 -0.6897 -0.7573 -0.8076
15755TIP3   OH268755   2.772   2.109  14.244 -0.0833 -0.2157 -0.1569
15755TIP3    H168756   2.767   2.129  14.150 -0.7798  0.4176 -0.0005
15755TIP3    H268757   2.682   2.087  14.268  0.2707 -1.3563  0.1663
15756TIP3   OH268758   6.725   5.923  14.266 -0.0468  0.7631 -0.4474
15756TIP3    H168759   6.664   5.984  14.225 -0.3005  1.3387  0.7404
15756TIP3    H268760   6.679   5.889  14.342  0.5107 -0.0678 -0.4643
15757TIP3   OH268761   0.141   4.660  14.642  0.1568 -0.5369  0.5897
15757TIP3    H168762   0.132   4.659  14.547  1.3297  0.7545  0.4386
15757TIP3    H268763   0.222   4.611  14.658  2.1630  2.4941  0.5574
15758TIP3   OH268764   2.750   2.861   0.325  0.5516  0.0314 -0.8787
15758TIP3    H168765   2.683   2.905   0.378  0.7924 -0.6631  0.0249
15758TIP3    H268766   2.810   2.822   0.389  0.0345 -2.1125 -1.5946
15759TIP3   OH268767   0.075   6.759   5.711  0.4241  0.2085 -0.3613
15759TIP3    H168768   0.070   6.778   5.618  1.8747  2.1744 -0.1192
15759TIP3    H268769   0.168   6.745   5.728  0.2801  0.6076  0.8904
15760TIP3   OH268770   2.380   6.353  13.648 -0.2282 -0.2363  0.5125
15760TIP3    H168771   2.384   6.383  13.557 -1.6341 -0.7038  0.2729
15760TIP3    H268772   2.469   6.325  13.668  0.6462  2.0451  0.0566
15761TIP3   OH268773   3.639   3.028   1.906 -0.0111 -0.1126 -0.1008
15761TIP3    H168774   3.554   2.989   1.930 -0.6788 -0.7023 -3.0216
15761TIP3    H268775   3.703   2.964   1.936 -0.7519 -0.7753  0.1294
15762TIP3   OH268776   4.993   2.208  11.981 -0.3011  0.0477 -0.7301
15762TIP3    H168777   4.994   2.130  12.037  0.1256  0.3345 -0.3237
15762TIP3    H268778   4.945   2.181  11.903  1.4942 -1.2433 -1.4614
15763TIP3   OH268779   4.619   6.555  16.955 -0.2656 -0.6063 -0.0605
15763TIP3    H168780   4.679   6.488  16.987  0.9210 -0.1104 -1.1778
15763TIP3    H268781   4.571   6.512  16.884 -0.1678 -0.5554 -0.1581
15764TIP3   OH268782   6.278   2.541   3.772 -0.6238 -0.0337  0.4661
15764TIP3    H168783   6.359   2.589   3.790  0.0361 -0.3660 -1.3258
15764TIP3    H268784   6.290   2.508   3.683 -1.9867 -1.6456  0.8299
15765TIP3   OH268785   2.335   3.800  12.870 -1.2516 -0.6961 -0.3746
15765TIP3    H168786   2.403   3.765  12.812 -0.9892 -2.1559  0.7555
15765TIP3    H268787   2.319   3.888  12.837  1.0339 -0.3768 -0.8225
15766TIP3   OH268788   5.769   0.867  14.270  0.2031  0.0781  0.5146
15766TIP3    H168789   5.827   0.879  14.346  1.2033 -1.3082  0.0210
15766TIP3    H268790   5.768   0.772  14.256  0.0019  0.3026 -1.1873
15767TIP3   OH268791   0.280   1.392   3.225 -0.1551  0.3051 -0.1630
15767TIP3    H168792   0.371   1.368   3.243  0.8013  3.0202 -0.9725
15767TIP3    H268793   0.275   1.397   3.129 -0.6597  1.8586 -0.0737
15768TIP3   OH268794   4.381   0.184   3.221 -0.9749 -0.1346 -0.6984
15768TIP3    H168795   4.463   0.140   3.198 -0.1182  1.8429 -1.6262
15768TIP3    H268796   4.335   0.193   3.137 -2.8592 -2.4130 -0.0421
15769TIP3   OH268797   5.414   3.218   1.943 -0.0636 -0.7082  0.1632
15769TIP3    H168798   5.464   3.137   1.932  2.4650  0.7321  0.3957
15769TIP3    H268799   5.377   3.235   1.857  2.0707 -0.4734 -0.7711
15770TIP3   OH268800   1.643   2.886  14.727  0.3833 -0.6043 -0.0109
15770TIP3    H168801   1.715   2.899  14.789 -0.6867  0.0245  1.1477
15770TIP3    H268802   1.680   2.831  14.658  1.7955 -0.7984  0.8641
15771TIP3   OH268803   0.244   4.613   2.666  0.7177  0.3005 -0.0360
15771TIP3    H168804   0.176   4.672   2.700 -0.1827 -0.6436 -0.1622
15771TIP3    H268805   0.287   4.663   2.597  1.6705  1.7509  1.5297
15772TIP3   OH268806   1.405   5.519  14.639  0.2293  0.2573 -0.1771
15772TIP3    H168807   1.395   5.579  14.712 -0.8142  0.9430 -0.8657
15772TIP3    H268808   1.368   5.565  14.564  1.9086 -0.1354 -1.3043
15773TIP3   OH268809   2.423   6.525   3.308  0.0984 -0.0690 -0.0631
15773TIP3    H168810   2.395   6.595   3.366 -0.8283 -2.1456  2.1386
15773TIP3    H268811   2.377   6.542   3.226 -0.9458  1.2799  0.7705
15774TIP3   OH268812   0.760   2.556   4.066 -0.2339  0.0980  0.7376
15774TIP3    H168813   0.766   2.470   4.107 -2.6992 -0.9829 -0.9238
15774TIP3    H268814   0.843   2.566   4.019  0.9588 -0.3841  2.6315
15775TIP3   OH268815   1.566   1.826  15.840  0.2799 -0.4429 -0.3163
15775TIP3    H168816   1.497   1.869  15.889  2.6275  1.8133  1.3061
15775TIP3    H268817   1.604   1.763  15.901 -0.2272 -1.6246 -1.1718
15776TIP3   OH268818   4.310   6.788  11.628  0.0791  0.4483 -0.1247
15776TIP3    H168819   4.358   6.828  11.700  1.0717  0.3128 -0.6870
15776TIP3    H268820   4.377   6.771  11.561 -0.7517  0.2188 -0.9198
15777TIP3   OH268821   6.115   1.947  15.919 -0.4729  0.1651 -0.5605
15777TIP3    H168822   6.155   1.971  16.002 -0.7126 -1.5557  0.1009
15777TIP3    H268823   6.165   1.871  15.890 -2.1769 -1.0092 -0.5442
15778TIP3   OH268824   0.625   3.185  16.398  0.4319  0.2517 -0.2102
15778TIP3    H168825   0.608   3.095  16.372  0.6976  0.3499 -0.7418
15778TIP3    H268826   0.637   3.232  16.316  2.4267  0.3517  0.0808
15779TIP3   OH268827   4.185   1.766   5.401  0.5718 -0.5129  0.6273
15779TIP3    H168828   4.172   1.761   5.496  0.6028  2.6825  0.8921
15779TIP3    H268829   4.280   1.772   5.390  0.5393 -0.2778  0.4581
15780TIP3   OH268830   1.881   4.540  13.800 -0.0864 -0.2007 -0.3054
15780TIP3    H168831   1.896   4.632  13.779  1.2560 -0.1104  0.8667
15780TIP3    H268832   1.962   4.496  13.774 -0.2722 -0.8634  0.1953
15781TIP3   OH268833   4.603   0.170  11.564 -0.4738  0.1669  0.0023
15781TIP3    H168834   4.640   0.141  11.648 -0.2336 -0.7630 -0.4089
15781TIP3    H268835   4.673   0.223  11.525 -0.5829  0.5941  0.3902
15782TIP3   OH268836   2.682   6.183  14.185 -0.3200  0.4184  0.5620
15782TIP3    H168837   2.704   6.263  14.137 -1.9848 -0.9802 -2.8626
15782TIP3    H268838   2.650   6.214  14.269  2.4651  3.0865  0.8156
15783TIP3   OH268839   4.737   2.351  15.639 -0.0257  0.4318  0.2115
15783TIP3    H168840   4.643   2.363  15.625 -0.4537 -2.8145 -0.4310
15783TIP3    H268841   4.772   2.331  15.552  1.4190  2.0607  0.3606
15784TIP3   OH268842   3.210   3.423   3.438  0.4476  0.1548 -0.2335
15784TIP3    H168843   3.268   3.433   3.362  1.3813 -1.7727  0.1647
15784TIP3    H268844   3.266   3.443   3.513  1.2479 -3.3077  0.2889
15785TIP3   OH268845   3.248   2.417   6.410  0.3869  0.2920  0.1166
15785TIP3    H168846   3.216   2.429   6.499  0.6784  0.8786  0.1455
15785TIP3    H268847   3.218   2.495   6.363  0.3056  0.0268 -0.2846
15786TIP3   OH268848   2.891   4.008  11.578 -0.4461 -0.0007 -0.2526
15786TIP3    H168849   2.905   4.039  11.488 -0.1681  0.2790 -0.1121
15786TIP3    H268850   2.810   4.051  11.605 -0.5877 -0.1688 -0.4059
15787TIP3   OH268851   6.564   3.515  11.970  0.2102  0.5173  0.3648
15787TIP3    H168852   6.518   3.598  11.984  0.1416  1.0151 -2.3641
15787TIP3    H268853   6.531   3.484  11.886  3.0974 -0.3183 -0.5454
15788TIP3   OH268854   2.686   5.711  15.370 -0.5731  0.4346  0.3463
15788TIP3    H168855   2.775   5.678  15.354 -1.5941 -1.9555 -1.0126
15788TIP3    H268856   2.677   5.709  15.466  0.3302 -0.8582  0.4371
15789TIP3   OH268857   0.668   2.974   1.945 -0.1507 -0.0130  0.3441
15789TIP3    H168858   0.668   2.880   1.923  2.3262  0.0342 -0.0905
15789TIP3    H268859   0.691   3.017   1.863 -0.2496  0.9229  0.7974
15790TIP3   OH268860   0.528   0.738   2.640  0.3876  0.1185 -0.7893
15790TIP3    H168861   0.541   0.739   2.735  1.8445 -0.7080 -0.9465
15790TIP3    H268862   0.614   0.715   2.604 -0.0193  0.9002 -2.3415
15791TIP3   OH268863   3.461   1.111  12.027 -0.2827  0.3023 -0.0304
15791TIP3    H168864   3.397   1.040  12.026 -0.4003  0.2331  3.0109
15791TIP3    H268865   3.514   1.096  11.949 -0.6630 -2.7967  0.1560
15792TIP3   OH268866   2.634   1.635   2.252  0.5012 -0.0016  0.8388
15792TIP3    H168867   2.694   1.610   2.182 -0.4263  0.0745 -0.0159
15792TIP3    H268868   2.559   1.674   2.207  2.1255  5.2754  2.0453
15793TIP3   OH268869   4.189   0.383  15.576 -0.1309  0.1793  0.0654
15793TIP3    H168870   4.215   0.475  15.583  0.0026  0.1739 -0.3235
15793TIP3    H268871   4.236   0.351  15.499 -0.9014  0.0411 -0.3642
15794TIP3   OH268872   6.789   0.095  16.122 -0.3721  0.7362 -0.0228
15794TIP3    H168873   6.768   0.006  16.096 -0.1172  0.2824  1.2719
15794TIP3    H268874   6.784   0.146  16.041  2.3578 -0.9478 -1.4062
15795TIP3   OH268875   4.105   2.169  15.150 -0.4372 -0.3975 -0.9217
15795TIP3    H168876   4.189   2.128  15.131 -0.3951  0.0002 -1.6123
15795TIP3    H268877   4.042   2.123  15.094 -0.4997  0.0268 -1.2020
15796TIP3   OH268878   2.017   0.452  15.975 -0.3688  0.0327  0.0637
15796TIP3    H168879   2.104   0.423  15.947  0.7714  1.7391  1.5940
15796TIP3    H268880   1.982   0.378  16.024 -0.4057 -1.1898 -1.7109
15797TIP3   OH268881   6.613   4.929   6.340  0.1570 -0.7354  0.2808
15797TIP3    H168882   6.676   4.874   6.387 -0.3079  0.4599  2.4481
15797TIP3    H268883   6.580   4.989   6.407 -0.6416  1.0288 -1.6123
15798TIP3   OH268884   0.927   1.217   4.373  0.6377  0.0789 -0.2018
15798TIP3    H168885   0.917   1.230   4.467 -0.8026 -0.3302 -0.2675
15798TIP3    H268886   0.939   1.122   4.362  2.4838  0.3032 -0.3266
15799TIP3   OH268887   6.122   2.073  12.274  0.3630  0.4657  0.8826
15799TIP3    H168888   6.041   2.106  12.234 -0.9012 -0.3743  2.5925
15799TIP3    H268889   6.133   1.986  12.236  0.3358  0.4873  0.8238
15800TIP3   OH268890   4.130   5.894   3.192 -0.5218  0.1810 -0.5083
15800TIP3    H168891   4.208   5.931   3.232  0.1696 -2.9985  1.3968
15800TIP3    H268892   4.162   5.828   3.131 -1.7120 -0.9527  0.0491
15801TIP3   OH268893   2.403   5.805   0.747  0.3749 -0.2913 -0.1128
15801TIP3    H168894   2.459   5.802   0.669 -2.6532  1.5740 -2.5731
15801TIP3    H268895   2.412   5.894   0.780  0.4379 -0.6126  0.7611
15802TIP3   OH268896   2.327   3.089   0.607  0.5106 -0.1387  0.2757
15802TIP3    H168897   2.379   3.078   0.686 -1.1065  2.5541  1.9030
15802TIP3    H268898   2.355   3.173   0.571 -0.2359 -0.3418 -0.8490
15803TIP3   OH268899   0.605   4.319  11.930  0.0680 -0.0152 -0.4610
15803TIP3    H168900   0.669   4.281  11.991  0.0614  0.8815  0.1229
15803TIP3    H268901   0.640   4.406  11.910 -0.2023 -0.0966 -1.3369
15804TIP3   OH268902   1.050   5.057  11.405  0.3953  0.5819 -0.3869
15804TIP3    H168903   1.140   5.029  11.390  1.0526  3.5030 -2.8833
15804TIP3    H268904   1.056   5.122  11.475  0.5631  1.8991 -1.5706
15805TIP3   OH268905   6.302   2.797   2.459  0.0646 -0.7414 -0.0943
15805TIP3    H168906   6.287   2.824   2.550 -1.0014 -1.1878 -0.1233
15805TIP3    H268907   6.217   2.763   2.430  0.1065  0.3352 -1.5856
15806TIP3   OH268908   1.367   2.600  15.010 -0.1637 -0.0133  0.4174
15806TIP3    H168909   1.437   2.543  15.043 -1.3578 -1.0701  1.2165
15806TIP3    H268910   1.398   2.688  15.029  0.6049 -0.4886  1.4959
15807TIP3   OH268911   1.244   5.487  10.463  0.0172  0.4663 -0.1916
15807TIP3    H168912   1.276   5.423  10.399 -0.5427 -1.8497  1.7330
15807TIP3    H268913   1.175   5.442  10.511  0.3735  2.1106  2.0444
15808TIP3   OH268914   2.744   5.927  12.322 -0.1974  0.1084 -0.0134
15808TIP3    H168915   2.828   5.928  12.275  0.6566  1.2919  1.4318
15808TIP3    H268916   2.732   5.836  12.347 -0.8729 -0.6444 -2.7661
15809TIP3   OH268917   2.511   2.882  11.413  0.4275  0.0551 -0.4349
15809TIP3    H168918   2.579   2.815  11.419 -1.4529 -1.9861 -0.5385
15809TIP3    H268919   2.502   2.915  11.502  1.4255  0.2469 -0.3927
15810TIP3   OH268920   3.789   3.560   3.272  0.1182 -0.6270  0.1542
15810TIP3    H168921   3.722   3.626   3.251 -0.6734 -0.8453  1.8295
15810TIP3    H268922   3.753   3.478   3.237 -0.5444 -0.7572  1.1215
15811TIP3   OH268923   1.682   1.838  13.886  0.2253  1.0488 -0.0209
15811TIP3    H168924   1.710   1.846  13.795 -0.2451  0.6143 -0.2027
15811TIP3    H268925   1.728   1.761  13.918 -2.4864 -1.1285 -0.9975
15812TIP3   OH268926   3.413   6.306   5.261 -0.3557  0.2692  0.1869
15812TIP3    H168927   3.356   6.308   5.338 -0.3166  0.0506  0.2226
15812TIP3    H268928   3.470   6.230   5.276  0.3774  0.8528  0.4690
15813TIP3   OH268929   2.997   0.782   4.069 -0.0731 -0.0103  0.5809
15813TIP3    H168930   3.022   0.692   4.085 -0.1447  0.0893  1.2741
15813TIP3    H268931   2.943   0.806   4.145 -0.2826  0.5251  0.2708
15814TIP3   OH268932   6.743   4.965  14.685 -0.2728  0.2387 -0.3658
15814TIP3    H168933   6.677   4.897  14.671 -1.1519  1.3793 -2.3227
15814TIP3    H268934   6.714   5.038  14.629  2.0473  1.2123 -0.4289
15815TIP3   OH268935   2.423   5.452   2.998 -0.2222 -0.3549  0.5851
15815TIP3    H168936   2.376   5.521   2.952 -1.7326 -2.1721 -0.7268
15815TIP3    H268937   2.508   5.447   2.952 -1.6246 -2.0192 -2.0678
15816TIP3   OH268938   2.612   0.494   3.603  0.1213  0.3003 -0.0661
15816TIP3    H168939   2.683   0.547   3.565 -0.7694 -0.0194 -2.3807
15816TIP3    H268940   2.605   0.419   3.544 -2.4553  0.5756 -0.2028
15817TIP3   OH268941   3.507   1.512   5.516 -0.0679  0.1094 -0.0771
15817TIP3    H168942   3.484   1.552   5.599  0.9852  1.3133 -0.3300
15817TIP3    H268943   3.427   1.516   5.464 -0.2414  1.0005  0.2536
15818TIP3   OH268944   6.564   0.297   2.721 -0.3108  0.1274  0.0444
15818TIP3    H168945   6.646   0.281   2.673 -1.4849 -1.4066 -1.5728
15818TIP3    H268946   6.553   0.392   2.719  0.2281  0.1982 -1.8889
15819TIP3   OH268947   0.851   4.950  12.884  0.0277  0.0033 -0.5601
15819TIP3    H168948   0.838   4.864  12.845  1.0792  0.0996 -1.1667
15819TIP3    H268949   0.852   5.010  12.810  0.4868  0.3847 -0.2549
15820TIP3   OH268950   4.420   5.081   3.478 -0.3614  0.0706 -0.3101
15820TIP3    H168951   4.494   5.078   3.417 -0.2934 -1.3102 -0.1819
15820TIP3    H268952   4.410   5.174   3.498  3.6695  0.1886  2.4315
15821TIP3   OH268953   4.257   5.419  14.246 -0.1382  0.0638  0.2323
15821TIP3    H168954   4.224   5.329  14.240 -1.4323  0.3827  1.8501
15821TIP3    H268955   4.343   5.416  14.205 -0.4990 -1.7275 -0.4830
15822TIP3   OH268956   4.635   1.320  12.222  0.0361  0.6025 -0.1706
15822TIP3    H168957   4.703   1.282  12.167  0.3784 -0.4440  0.9474
15822TIP3    H268958   4.556   1.269  12.203  0.1718  0.1965  0.3683
15823TIP3   OH268959   0.390   3.202  12.378  0.0073  0.1504  0.3892
15823TIP3    H168960   0.432   3.141  12.438  0.5568  0.2878  0.1490
15823TIP3    H268961   0.425   3.288  12.403  0.7099  0.1365 -0.5264
15824TIP3   OH268962   0.599   6.212   0.682 -0.3336  0.1599 -0.3650
15824TIP3    H168963   0.666   6.148   0.657 -1.2897 -0.7916 -0.5655
15824TIP3    H268964   0.633   6.251   0.762 -0.1121 -1.2384  0.2639
15825TIP3   OH268965   0.943   5.809   5.886  0.4125 -0.0586 -0.2615
15825TIP3    H168966   0.983   5.840   5.968  0.3491  0.3852 -0.3970
15825TIP3    H268967   1.014   5.812   5.822  0.2885  0.2445 -0.3837
15826TIP3   OH268968   4.207   6.113  11.990 -0.6139 -0.2756  0.7286
15826TIP3    H168969   4.123   6.143  11.954 -0.6089 -1.2287 -0.1224
15826TIP3    H268970   4.210   6.020  11.969  1.0496 -0.0785 -0.0421
15827TIP3   OH268971   2.171   2.117  14.094  0.1745 -0.2776  0.6577
15827TIP3    H168972   2.178   2.126  14.189  0.7248  0.0773  0.5828
15827TIP3    H268973   2.161   2.207  14.062 -0.4226 -0.4260  0.4094
15828TIP3   OH268974   5.202   0.040  13.923 -0.1619 -0.1991 -0.0138
15828TIP3    H168975   5.211   0.108  13.990  0.6183 -0.7714  0.4812
15828TIP3    H268976   5.164  -0.035  13.969 -1.7422  0.1153 -0.7233
15829TIP3   OH268977   3.484   2.330   5.721  0.4375  0.0490 -0.6744
15829TIP3    H168978   3.467   2.243   5.686 -0.5978 -0.5205  1.1022
15829TIP3    H268979   3.398   2.367   5.737  0.8738  0.9238 -0.2696
15830TIP3   OH268980   1.878   3.090   1.606  0.7298  0.9117  0.3240
15830TIP3    H168981   1.872   3.164   1.667  1.2359  1.5241 -0.3538
15830TIP3    H268982   1.971   3.083   1.586  0.7397 -0.2099  0.7243
15831TIP3   OH268983   6.834   3.516  13.318  0.5551  0.1398  0.4834
15831TIP3    H168984   6.864   3.460  13.246 -0.5968  0.8637 -0.5807
15831TIP3    H268985   6.838   3.459  13.395 -1.1262 -1.6237 -0.6517
15832TIP3   OH268986   5.937   1.237   1.678 -0.5845  0.0521  0.3748
15832TIP3    H168987   6.027   1.269   1.686  0.1916 -1.3951 -1.8050
15832TIP3    H268988   5.883   1.316   1.689  1.0123  1.2373  0.0530
15833TIP3   OH268989   5.341   6.368   2.993 -0.1666 -0.5935 -0.5564
15833TIP3    H168990   5.355   6.339   3.083 -2.0431  1.8316  0.6433
15833TIP3    H268991   5.346   6.288   2.941 -0.7329 -2.3434  1.9076
15834TIP3   OH268992   0.888   4.658   2.876 -0.3984 -0.4358 -0.1008
15834TIP3    H168993   0.803   4.664   2.831 -1.0706 -1.5482  0.9484
15834TIP3    H268994   0.865   4.652   2.969  0.7141 -2.3467  0.1149
15835TIP3   OH268995   3.826   3.518  17.004 -0.5121  0.0865 -0.2050
15835TIP3    H168996   3.823   3.610  16.981  1.0381  0.0215 -0.7742
15835TIP3    H268997   3.780   3.513  17.088  1.1241  1.7217  0.8607
15836TIP3   OH268998   4.787   6.639  11.782  0.7243 -0.6356  0.1110
15836TIP3    H168999   4.789   6.597  11.696  0.4241 -0.2015 -0.1058
15836TIP3    H269000   4.879   6.654  11.803  0.7690  1.9956 -1.4790
15837TIP3   OH269001   4.862   6.489  14.544 -0.2420 -0.1137 -0.2910
15837TIP3    H169002   4.855   6.511  14.637 -0.7501 -0.2006 -0.3018
15837TIP3    H269003   4.846   6.572  14.498  0.5302  0.0352 -0.2961
15838TIP3   OH269004   2.229   0.174   0.110  0.0375  0.2049  0.8284
15838TIP3    H169005   2.145   0.205   0.142 -1.1153 -1.0376 -0.8529
15838TIP3    H269006   2.257   0.108   0.174 -0.1959  0.6867  1.4367
15839TIP3   OH269007   1.310   5.111  13.330  0.0453  0.1744  0.4456
15839TIP3    H169008   1.309   5.053  13.254  0.2163  0.7123  0.0264
15839TIP3    H269009   1.239   5.079  13.386  0.2773 -0.5633  0.3180
15840TIP3   OH269010   2.965   3.531   3.600  0.2092 -0.0836 -0.0359
15840TIP3    H169011   3.044   3.513   3.549 -0.3477  3.4723 -2.4778
15840TIP3    H269012   2.997   3.556   3.687  1.7135  0.3891 -0.7036
15841TIP3   OH269013   1.671   0.652   4.369 -0.7927  0.7243 -0.6692
15841TIP3    H169014   1.728   0.598   4.314 -0.9417  2.7359 -2.9750
15841TIP3    H269015   1.729   0.721   4.403 -1.0321  0.3865  0.4727
15842TIP3   OH269016   5.777   3.691   0.134 -0.0724 -0.7663 -0.5320
15842TIP3    H169017   5.762   3.628   0.205  0.5147  0.3138  0.5803
15842TIP3    H269018   5.718   3.763   0.154  2.2356  0.9265  0.6338
15843TIP3   OH269019   3.230   1.781   3.111  0.3216  0.2147 -0.4022
15843TIP3    H169020   3.272   1.793   3.026 -0.0713  0.7682 -0.5213
15843TIP3    H269021   3.146   1.826   3.103  0.6414  1.0099  0.5642
15844TIP3   OH269022   0.861   3.517  11.365 -0.2838  0.4811  0.0571
15844TIP3    H169023   0.900   3.602  11.345  1.8795 -0.3919  0.2937
15844TIP3    H269024   0.858   3.471  11.280 -1.6872  0.8627 -0.1153
15845TIP3   OH269025   0.876   1.385  13.479 -0.1541  0.0273 -0.4798
15845TIP3    H169026   0.906   1.475  13.494 -0.9620  0.2870 -0.3807
15845TIP3    H269027   0.884   1.343  13.565 -0.1407  0.1176 -0.4362
15846TIP3   OH269028   4.938   0.233  11.956 -0.5605  0.6224 -0.3545
15846TIP3    H169029   4.885   0.294  12.008 -0.1618  1.1193 -0.5191
15846TIP3    H269030   4.884   0.213  11.880 -2.7617 -2.9860  1.8637
15847TIP3   OH269031   3.140   0.706  16.346 -0.7165  0.1665  0.2927
15847TIP3    H169032   3.144   0.620  16.388 -0.4222  0.5083  0.9904
15847TIP3    H269033   3.184   0.765  16.408 -1.3345  0.9062  0.0472
15848TIP3   OH269034   0.364   3.693   5.850  0.0578 -0.5338  0.3795
15848TIP3    H169035   0.394   3.733   5.768 -2.1947 -0.9859 -0.7354
15848TIP3    H269036   0.425   3.726   5.916  0.3851  1.9398 -1.0407
15849TIP3   OH269037   2.850   5.367  15.865 -0.2044  0.2732  0.1756
15849TIP3    H169038   2.818   5.419  15.939  0.0258 -0.3605  0.7407
15849TIP3    H269039   2.865   5.430  15.795 -0.0203  0.9491  0.8129
15850TIP3   OH269040   4.825   5.441  12.069 -0.3996 -0.2797  0.0153
15850TIP3    H169041   4.827   5.501  12.144 -2.8928 -0.0399 -0.0319
15850TIP3    H269042   4.750   5.384  12.085  2.0474 -3.7740  0.2321
15851TIP3   OH269043   3.840   0.764  14.701 -0.1765  1.0321 -0.2893
15851TIP3    H169044   3.890   0.706  14.644  0.8236  1.8078 -0.2272
15851TIP3    H269045   3.749   0.736  14.690  0.2872 -0.6323 -0.1431
15852TIP3   OH269046   3.401   1.606   2.338  0.2695  0.0149 -0.2004
15852TIP3    H169047   3.437   1.670   2.276 -0.6561  1.0575  0.3038
15852TIP3    H269048   3.478   1.558   2.370  1.3996  2.6176  1.3654
15853TIP3   OH269049   4.897   0.841   2.955 -0.3500 -0.2023 -0.4064
15853TIP3    H169050   4.973   0.829   3.012  1.7148  1.6248 -2.5649
15853TIP3    H269051   4.832   0.884   3.011  1.3799  1.0428  0.7807
15854TIP3   OH269052   0.126   0.193   2.888 -0.0627 -0.0832  0.2663
15854TIP3    H169053   0.136   0.276   2.841  0.8062  0.8019  1.9158
15854TIP3    H269054   0.050   0.207   2.945 -1.8075 -1.5370 -1.5705
15855TIP3   OH269055   1.782   4.222   3.513  0.7687  0.3793  0.3238
15855TIP3    H169056   1.843   4.193   3.445 -0.2519  2.0154 -1.3816
15855TIP3    H269057   1.790   4.317   3.515 -0.4086  0.4947  1.3405
15856TIP3   OH269058   6.018   5.076   2.676 -0.8836  0.0049 -0.7800
15856TIP3    H169059   6.013   4.983   2.656 -3.2764 -0.3877  1.2566
15856TIP3    H269060   5.978   5.119   2.600  0.1483 -0.5757 -1.6864
15857TIP3   OH269061   2.174   3.294   5.812 -0.2400 -0.4612  0.2551
15857TIP3    H169062   2.154   3.309   5.719 -0.5522 -3.7367 -0.3449
15857TIP3    H269063   2.094   3.320   5.858 -1.1307 -1.3344 -0.7319
15858TIP3   OH269064   1.798   2.457   0.525  0.3352 -0.2320  0.4895
15858TIP3    H169065   1.784   2.450   0.431  0.8137  0.0269  0.3973
15858TIP3    H269066   1.824   2.369   0.552  1.2854 -0.0478  0.1943
15859TIP3   OH269067   4.097   1.437   2.047  0.3252 -0.3552  0.1153
15859TIP3    H169068   4.092   1.341   2.051  0.5894 -0.3395  0.8491
15859TIP3    H269069   4.110   1.456   1.954 -2.9495 -0.8782 -0.5979
15860TIP3   OH269070   2.025   3.122  13.936 -0.0442 -0.4675  0.7233
15860TIP3    H169071   2.073   3.056  13.885 -0.2613  0.6371 -0.9969
15860TIP3    H269072   2.086   3.195  13.943 -0.9909  0.4746 -0.4267
15861TIP3   OH269073   5.332   4.125   3.685 -0.1644  0.6104 -1.2695
15861TIP3    H169074   5.340   4.036   3.720 -1.0097  1.6484  1.8740
15861TIP3    H269075   5.239   4.147   3.698  0.4217  2.6202 -0.1321
15862TIP3   OH269076   6.482   5.630   3.522  0.1597  1.0282  0.1192
15862TIP3    H169077   6.550   5.633   3.454  0.4251  0.9814  0.3855
15862TIP3    H269078   6.519   5.680   3.595  0.0925  0.6196  0.4337
15863TIP3   OH269079   0.326   5.534   5.552 -0.3120  0.1603  0.1292
15863TIP3    H169080   0.409   5.518   5.507 -0.0793  1.0251  0.2179
15863TIP3    H269081   0.352   5.569   5.637 -0.7675  0.1874  0.2580
15864TIP3   OH269082   1.504   2.679  11.356  0.5420 -0.1438 -0.1971
15864TIP3    H169083   1.443   2.683  11.282 -0.1024 -0.1522  0.3303
15864TIP3    H269084   1.577   2.626  11.324  0.9050  0.9538 -1.2921
15865TIP3   OH269085   1.406   3.844  14.124  0.0872 -0.6253  0.4491
15865TIP3    H169086   1.369   3.758  14.103 -0.2777 -0.2143 -0.6806
15865TIP3    H269087   1.501   3.830  14.125  0.0391 -0.9943  0.0379
15866TIP3   OH269088   1.772   4.235   2.584  0.2510  0.2876 -0.4574
15866TIP3    H169089   1.779   4.140   2.574 -0.6102  0.3594 -2.0937
15866TIP3    H269090   1.813   4.271   2.505 -1.1762  1.1905 -0.8239
15867TIP3   OH269091   0.477   2.554   1.605 -0.1680 -0.2293 -0.0925
15867TIP3    H169092   0.465   2.467   1.644  1.2569 -0.1193  0.6513
15867TIP3    H269093   0.448   2.543   1.514 -1.3930 -1.0819  0.3621
15868TIP3   OH269094   1.539   3.377   3.426 -0.6214  0.6709 -0.0609
15868TIP3    H169095   1.489   3.453   3.395 -1.3888  0.3380  0.3435
15868TIP3    H269096   1.490   3.345   3.502  0.2938  0.4315  0.4517
15869TIP3   OH269097   1.248   4.540  12.606  0.3342 -0.5892 -0.1264
15869TIP3    H169098   1.227   4.600  12.535 -0.7685 -0.1068  0.5769
15869TIP3    H269099   1.163   4.514  12.641  0.8040 -2.2913 -0.1754
15870TIP3   OH269100   6.119   4.615   4.855  0.3834 -0.0239 -0.4343
15870TIP3    H169101   6.191   4.553   4.862  2.1833  1.8129 -1.4649
15870TIP3    H269102   6.066   4.583   4.782  1.3082 -0.3494 -0.9766
15871TIP3   OH269103   3.475   0.154  11.145  0.5334  0.0219 -0.3015
15871TIP3    H169104   3.483   0.151  11.050 -0.4345  2.0061 -0.5028
15871TIP3    H269105   3.559   0.121  11.177  1.3674  0.5122 -1.8764
15872TIP3   OH269106   0.309   3.256  10.430  0.5662 -0.4261 -0.3924
15872TIP3    H169107   0.290   3.168  10.463 -0.1660  0.1408  0.7741
15872TIP3    H269108   0.225   3.302  10.436  0.7426  0.1149 -1.7986
15873TIP3   OH269109   2.900   1.927   4.199 -0.2088 -0.2187  0.0249
15873TIP3    H169110   2.909   2.021   4.215  1.2330 -0.2209 -0.5843
15873TIP3    H269111   2.982   1.903   4.154 -1.6606 -1.2318 -2.2601
15874TIP3   OH269112   3.145   5.907  15.084  0.2259 -0.0435 -0.5086
15874TIP3    H169113   3.179   5.843  15.146  0.4396  1.3232  0.8584
15874TIP3    H269114   3.072   5.862  15.040 -1.3279 -0.4429  2.2323
15875TIP3   OH269115   0.368   0.096   1.976  0.0164  0.1566  0.2644
15875TIP3    H169116   0.390   0.187   1.997 -0.3117  0.7971 -1.8547
15875TIP3    H269117   0.309   0.103   1.901 -0.4107 -1.8035  0.3673
15876TIP3   OH269118   4.129   5.807  14.427  0.3599 -0.5653 -0.5798
15876TIP3    H169119   4.046   5.832  14.387  0.7604  0.2656 -0.9175
15876TIP3    H269120   4.191   5.871  14.395  1.3085 -1.6494 -0.9716
15877TIP3   OH269121   5.452   0.818   3.318 -0.1544  0.0289 -0.1125
15877TIP3    H169122   5.536   0.787   3.286  0.2687  0.3078  0.6918
15877TIP3    H269123   5.465   0.829   3.413 -0.9799  0.4340 -0.0356
15878TIP3   OH269124   0.594   6.301   3.849  0.5339 -0.3239  0.3403
15878TIP3    H169125   0.572   6.215   3.883 -2.2799 -0.3797 -1.3167
15878TIP3    H269126   0.607   6.288   3.755  0.0770  1.0370  0.0577
15879TIP3   OH269127   6.470   3.242  14.655  0.0142 -0.5253  0.1337
15879TIP3    H169128   6.557   3.282  14.655 -0.2724  0.1098  0.4681
15879TIP3    H269129   6.424   3.285  14.583 -0.4050  0.0035  0.7113
15880TIP3   OH269130   0.632   0.828   5.588  0.1648 -0.2099  0.3444
15880TIP3    H169131   0.637   0.759   5.654 -2.2530 -0.4146  0.4029
15880TIP3    H269132   0.710   0.882   5.604  0.9063 -1.6176  1.7665
15881TIP3   OH269133   4.868   6.257   4.053  0.0610  0.1934  0.1426
15881TIP3    H169134   4.943   6.274   4.111 -1.1510 -0.8622  2.1594
15881TIP3    H269135   4.833   6.343   4.032  2.1042  0.7433 -1.2866
15882TIP3   OH269136   5.013   4.648  12.628 -0.0003  0.1143 -0.9846
15882TIP3    H169137   5.054   4.714  12.573 -0.7921  2.0763  0.6501
15882TIP3    H269138   5.050   4.663  12.715 -2.0336  0.1045 -0.0626
15883TIP3   OH269139   2.302   0.720   0.134  0.6698 -0.0300 -0.3931
15883TIP3    H169140   2.371   0.761   0.187 -0.8866  0.9061  1.0232
15883TIP3    H269141   2.240   0.790   0.116 -1.4451 -1.4023  1.0163
15884TIP3   OH269142   1.593   6.830   5.555 -0.3370 -0.7788  0.6851
15884TIP3    H169143   1.611   6.843   5.462 -0.9036 -0.4559  0.6109
15884TIP3    H269144   1.537   6.753   5.558 -2.2866  0.5447  0.5087
15885TIP3   OH269145   5.526   4.843   0.436  0.3068  0.0341 -0.0659
15885TIP3    H169146   5.531   4.914   0.373  0.9078  0.4610  0.4442
15885TIP3    H269147   5.569   4.878   0.514 -0.5389 -0.4318  0.6250
15886TIP3   OH269148   3.598   1.189   2.531 -0.2541 -0.5545 -0.2337
15886TIP3    H169149   3.629   1.271   2.493 -0.5948 -1.1700 -1.8950
15886TIP3    H269150   3.553   1.144   2.460 -0.4900 -1.9892  0.7691
15887TIP3   OH269151   1.841   1.958  14.769  0.0450 -0.8571  0.2194
15887TIP3    H169152   1.764   2.010  14.743  0.3363 -0.9770 -0.9348
15887TIP3    H269153   1.907   2.023  14.793  1.3751 -0.4060 -3.8416
15888TIP3   OH269154   4.804   0.269  11.423 -0.2901  0.0986  0.1215
15888TIP3    H169155   4.800   0.336  11.355  2.1976  0.0713 -0.1090
15888TIP3    H269156   4.897   0.250  11.434 -0.8594 -3.5344 -0.0223
15889TIP3   OH269157   0.117   6.676  11.988 -0.7071  0.0594  0.0570
15889TIP3    H169158   0.171   6.600  12.007 -0.5972  0.4626  1.4405
15889TIP3    H269159   0.162   6.720  11.916  1.1140  0.6438  1.4763
15890TIP3   OH269160   1.695   5.135  15.853  0.1306  1.1302 -0.1760
15890TIP3    H169161   1.720   5.044  15.844  1.3642  1.4544 -0.2259
15890TIP3    H269162   1.631   5.150  15.784 -2.1278 -0.3436  1.4236
15891TIP3   OH269163   6.542   2.811   4.079  0.4494 -0.1633 -0.0069
15891TIP3    H169164   6.629   2.847   4.065  0.4827 -0.6331 -1.1383
15891TIP3    H269165   6.524   2.826   4.172  0.6533  2.2723 -0.3113
15892TIP3   OH269166   4.958   1.788   2.474 -0.1262 -0.7019  0.0611
15892TIP3    H169167   4.964   1.704   2.520  1.1633 -0.8395 -0.3138
15892TIP3    H269168   5.019   1.779   2.400  1.4655  1.2103  1.0474
15893TIP3   OH269169   6.180   4.256  12.042 -0.0350 -0.1996  0.4404
15893TIP3    H169170   6.094   4.292  12.065 -0.9994 -1.7815 -0.4663
15893TIP3    H269171   6.204   4.302  11.961 -0.4225 -0.3277  0.2503
15894TIP3   OH269172   2.012   2.423  16.808 -0.5140 -0.0633  0.3273
15894TIP3    H169173   1.946   2.427  16.739 -0.7163 -2.8875  0.2323
15894TIP3    H269174   2.090   2.389  16.764 -0.5093 -1.4626  1.3266
15895TIP3   OH269175   1.135   0.455   5.164  0.6049 -0.3286 -0.5526
15895TIP3    H169176   1.054   0.421   5.203  0.9339 -1.2676 -0.6526
15895TIP3    H269177   1.199   0.455   5.236 -0.2258  3.4447  0.4071
15896TIP3   OH269178   2.182   3.588   4.840  0.9542  0.1352 -0.2224
15896TIP3    H169179   2.152   3.504   4.804 -0.9225  1.2189 -1.3406
15896TIP3    H269180   2.178   3.575   4.935 -0.4918 -0.6944 -0.3508
15897TIP3   OH269181   0.709   3.168  17.043  0.5500 -0.2703 -0.4132
15897TIP3    H169182   0.771   3.219  17.095  1.5930 -0.8009 -1.1070
15897TIP3    H269183   0.755   3.086  17.024 -0.6086 -0.9428 -0.4062
15898TIP3   OH269184   3.991   0.312  16.255 -0.5292 -0.1359 -0.0248
15898TIP3    H169185   4.057   0.316  16.186 -0.3416  2.2367  0.2089
15898TIP3    H269186   4.031   0.258  16.323 -0.4608 -1.9736 -1.4456
15899TIP3   OH269187   2.386   1.409   3.286  0.8062 -0.0061  0.6198
15899TIP3    H169188   2.389   1.492   3.237  1.0305 -0.5776 -0.3557
15899TIP3    H269189   2.431   1.429   3.368  0.7488  0.8796  0.4518
15900TIP3   OH269190   4.569   4.393   0.553 -0.2467  0.0508  0.0604
15900TIP3    H169191   4.495   4.409   0.496 -0.4944 -1.4785 -0.0845
15900TIP3    H269192   4.583   4.298   0.549  0.0833 -0.0326  2.0716
15901TIP3   OH269193   5.053   1.245  14.895  0.0039  0.1045  0.6857
15901TIP3    H169194   5.061   1.221  14.988 -0.7360  0.3152  0.8153
15901TIP3    H269195   5.001   1.326  14.897  1.1383  0.8739  0.1684
15902TIP3   OH269196   1.309   5.926   4.585 -0.6097  0.4858 -0.5491
15902TIP3    H169197   1.395   5.897   4.558 -1.3233 -1.5709 -0.7730
15902TIP3    H269198   1.313   5.927   4.681 -0.6020 -0.5302 -0.5313
15903TIP3   OH269199   4.976   4.208  11.647 -0.8212  0.0376  0.3498
15903TIP3    H169200   4.974   4.214  11.551 -1.3254 -0.5331  0.3180
15903TIP3    H269201   5.037   4.136  11.664 -1.2367 -0.2996  0.4305
15904TIP3   OH269202   4.141   5.675  11.251 -0.0348 -0.4683  0.5150
15904TIP3    H169203   4.152   5.713  11.164 -0.4795  0.4737  0.8497
15904TIP3    H269204   4.177   5.587  11.244  1.2482  0.0886 -0.2444
15905TIP3   OH269205   3.147   6.447   2.204  0.1579  0.0061  0.6466
15905TIP3    H169206   3.216   6.503   2.240 -0.0040  0.5074  0.1853
15905TIP3    H269207   3.075   6.455   2.266  0.3882 -0.2496  0.9513
15906TIP3   OH269208   5.416   3.245   5.342  0.3686 -0.1728 -0.5277
15906TIP3    H169209   5.506   3.256   5.371  0.0546 -0.7371  0.7747
15906TIP3    H269210   5.371   3.210   5.419 -0.8735 -0.2759 -1.2743
15907TIP3   OH269211   6.522   2.792  11.104 -0.5147  0.7571  0.1719
15907TIP3    H169212   6.470   2.821  11.179 -1.4231  0.1177 -0.1956
15907TIP3    H269213   6.577   2.868  11.083 -0.4947  1.0618  1.2591
15908TIP3   OH269214   6.668   1.059  13.769 -0.2479  0.0758  0.6116
15908TIP3    H169215   6.707   1.110  13.840 -0.6682  1.6259 -0.2130
15908TIP3    H269216   6.657   0.971  13.805  1.5129  0.2773  1.7427
15909TIP3   OH269217   3.871   6.572   2.922 -0.1915  0.3172  0.0603
15909TIP3    H169218   3.803   6.586   2.988  1.4172  1.3609  1.5695
15909TIP3    H269219   3.894   6.480   2.930  0.1752  0.4919  1.1749
15910TIP3   OH269220   0.895   6.469  14.906  0.0704  0.1221  0.0451
15910TIP3    H169221   0.947   6.389  14.895 -0.9592 -0.5188 -0.2288
15910TIP3    H269222   0.887   6.480  15.001  0.1522 -0.1394  0.0835
15911TIP3   OH269223   3.155   4.151   2.804 -0.0096 -0.0071 -0.4217
15911TIP3    H169224   3.187   4.191   2.723 -0.5316  0.5516 -0.3652
15911TIP3    H269225   3.186   4.209   2.873  0.5825 -0.5778 -0.1953
15912TIP3   OH269226   3.495   0.505   1.244 -1.0201  0.3919  0.6153
15912TIP3    H169227   3.532   0.417   1.242 -0.9175  0.3889  1.8368
15912TIP3    H269228   3.505   0.533   1.335 -0.1358  2.0675  0.0378
15913TIP3   OH269229   1.296   1.083  13.325  0.0775  0.0022 -0.4921
15913TIP3    H169230   1.304   1.093  13.230 -1.7037 -0.3781 -0.7364
15913TIP3    H269231   1.207   1.114  13.344  0.2579 -0.3264  0.9882
15914TIP3   OH269232   3.589   1.967   0.702 -0.6805 -0.1477  0.1113
15914TIP3    H169233   3.675   1.933   0.725 -0.1284  2.4647  2.5548
15914TIP3    H269234   3.529   1.921   0.761 -0.6815 -0.5298 -0.1845
15915TIP3   OH269235   5.377   6.046  13.036 -0.5978 -0.0012  0.1964
15915TIP3    H169236   5.304   6.074  12.980 -0.6290  2.2022  1.2335
15915TIP3    H269237   5.386   6.116  13.100  2.7110  0.0164 -0.1139
15916TIP3   OH269238   4.525   4.648  11.586 -0.1877  0.1299  0.0920
15916TIP3    H169239   4.481   4.627  11.504 -0.8710 -1.3569  0.7925
15916TIP3    H269240   4.553   4.564  11.621  0.3791  0.7554  1.2267
15917TIP3   OH269241   6.132   2.106  10.969 -0.1171 -0.8830  0.2180
15917TIP3    H169242   6.211   2.155  10.990  0.6710 -2.0079 -0.0352
15917TIP3    H269243   6.151   2.016  10.998 -1.1233 -1.2615 -0.2533
15918TIP3   OH269244   3.968   2.832   0.227 -0.0360  0.1093  0.1491
15918TIP3    H169245   4.016   2.758   0.263  1.2838 -0.0276 -1.7146
15918TIP3    H269246   4.037   2.892   0.197 -0.9218 -0.1566 -2.7567
15919TIP3   OH269247   1.290   3.509   3.847 -0.5047 -0.0041  0.1484
15919TIP3    H169248   1.318   3.455   3.921 -0.0045 -0.1231 -0.1165
15919TIP3    H269249   1.283   3.598   3.883  1.6008  0.3013 -0.0507
15920TIP3   OH269250   1.150   5.451  12.923 -0.2684  0.0713 -0.3329
15920TIP3    H169251   1.093   5.527  12.938 -0.1137  0.2672 -0.7113
15920TIP3    H269252   1.235   5.478  12.960  0.3771  0.9250 -2.3209
15921TIP3   OH269253   3.772   3.263   2.097  0.0471  0.6848 -0.8356
15921TIP3    H169254   3.736   3.346   2.066 -0.5437  0.8283  0.2011
15921TIP3    H269255   3.711   3.235   2.165  0.3895 -0.4685 -0.9831
15922TIP3   OH269256   4.018   1.988  16.097 -0.2124  0.0439  0.7624
15922TIP3    H169257   3.949   2.030  16.046  0.4591  1.1833  0.7641
15922TIP3    H269258   4.081   2.058  16.115  1.1661 -1.0455  0.3864
15923TIP3   OH269259   4.057   4.901  13.817 -0.1510  0.1577 -0.3650
15923TIP3    H169260   3.984   4.911  13.756  0.3129 -0.9389 -1.1313
15923TIP3    H269261   4.119   4.970  13.792 -0.3070  0.2073 -0.6120
15924TIP3   OH269262   0.242   0.081  12.879 -0.4428 -0.1165  0.5086
15924TIP3    H169263   0.156   0.120  12.890  0.6618  2.3441  1.0861
15924TIP3    H269264   0.290   0.107  12.957  0.8682 -1.3582  0.1561
15925TIP3   OH269265   5.348   6.319   4.908  0.2605  0.3245 -0.5199
15925TIP3    H169266   5.279   6.255   4.927  1.7261 -1.6961 -1.6271
15925TIP3    H269267   5.328   6.352   4.821  1.5502 -1.6300 -1.6475
15926TIP3   OH269268   4.857   6.095  12.091 -0.0450 -0.8339 -1.0092
15926TIP3    H169269   4.923   6.115  12.158  0.1212 -1.2332 -1.0563
15926TIP3    H269270   4.774   6.095  12.139 -0.0025 -0.4387 -0.9301
15927TIP3   OH269271   1.068   3.984  14.617  0.3840  1.0794  0.2207
15927TIP3    H169272   1.059   4.020  14.529 -0.7558 -0.8685 -0.5307
15927TIP3    H269273   1.159   3.955  14.621  0.5943  1.6700 -0.1071
15928TIP3   OH269274   1.011   0.884   3.259 -0.3587  0.1494  0.4768
15928TIP3    H169275   1.040   0.859   3.171 -0.4762  0.7324  0.2660
15928TIP3    H269276   0.916   0.884   3.254 -0.3711  2.2290 -0.0105
15929TIP3   OH269277   6.485   3.963   3.159  0.6568 -0.0163  0.1719
15929TIP3    H169278   6.575   3.970   3.127  0.6680  0.2734  0.2681
15929TIP3    H269279   6.442   3.905   3.096  0.8363  0.0722 -0.0323
15930TIP3   OH269280   2.353   2.888  16.108  0.1231 -0.1715  0.0652
15930TIP3    H169281   2.433   2.879  16.057 -0.4294  0.4289 -0.9446
15930TIP3    H269282   2.382   2.889  16.199  1.0387 -2.3600 -0.1538
15931TIP3   OH269283   3.931   4.346  13.937  0.0587 -0.0734  0.8182
15931TIP3    H169284   3.869   4.414  13.964 -0.8355 -1.2765  1.8827
15931TIP3    H269285   4.005   4.395  13.901 -0.9261  1.4361  0.7481
15932TIP3   OH269286   0.548   5.458   3.725 -0.0228  0.8044  0.2378
15932TIP3    H169287   0.641   5.443   3.714 -0.0553  1.0628 -0.4541
15932TIP3    H269288   0.527   5.528   3.663 -0.4641  1.5166  1.1671
15933TIP3   OH269289   3.972   6.812   4.216 -0.3564  0.7180 -0.5439
15933TIP3    H169290   4.049   6.867   4.200  0.4849 -0.6036 -1.2926
15933TIP3    H269291   3.929   6.851   4.292  2.3040  0.2277  1.3540
15934TIP3   OH269292   3.392   4.503  13.698  0.0236  0.1293 -0.6599
15934TIP3    H169293   3.441   4.585  13.702 -0.0139  0.1653 -0.9319
15934TIP3    H269294   3.456   4.437  13.672  0.2184 -0.0662  0.2800
15935TIP3   OH269295   3.359   3.897   3.168  0.1750  0.2332  0.0396
15935TIP3    H169296   3.319   3.911   3.254 -3.1492  1.3826 -1.4955
15935TIP3    H269297   3.413   3.975   3.154  0.9540 -0.0825  1.1203
15936TIP3   OH269298   0.005   4.979   0.939 -0.2557 -0.3682  0.0512
15936TIP3    H169299   0.055   4.997   1.018  1.1832 -0.7766 -0.7262
15936TIP3    H269300  -0.046   4.900   0.961  1.0669 -1.2159  0.1986
15937TIP3   OH269301   5.548   1.830  16.975 -0.0007  0.1174  0.0238
15937TIP3    H169302   5.518   1.919  16.954  0.4804  0.7350  1.7496
15937TIP3    H269303   5.641   1.841  16.996  0.1665 -0.8831 -0.1577
15938TIP3   OH269304   3.353   0.580  11.647 -0.2262  0.2881 -0.2293
15938TIP3    H169305   3.384   0.668  11.669 -0.3827  0.4626 -0.6917
15938TIP3    H269306   3.432   0.525  11.651 -0.1275  0.4467  0.0514
15939TIP3   OH269307   6.367   4.505   2.395 -0.1454  0.1779 -0.2466
15939TIP3    H169308   6.319   4.430   2.358  1.5127 -2.2099  2.0562
15939TIP3    H269309   6.310   4.539   2.464 -0.8367  0.9747 -1.1933
15940TIP3   OH269310   0.544   1.351   3.301 -0.6508  0.0862 -0.2753
15940TIP3    H169311   0.567   1.427   3.355 -0.5784  0.8271 -1.3192
15940TIP3    H269312   0.619   1.341   3.242 -1.0500 -0.2442 -0.7312
15941TIP3   OH269313   4.831   0.845  10.714  0.1420  0.0137 -0.1512
15941TIP3    H169314   4.882   0.874  10.639  2.8631 -0.9549  1.1924
15941TIP3    H269315   4.799   0.758  10.689 -0.8795  0.5987 -0.9730
15942TIP3   OH269316   4.915   4.823   6.229  0.2357 -0.0978 -0.2861
15942TIP3    H169317   4.824   4.796   6.244  0.0468  0.3536 -0.6071
15942TIP3    H269318   4.952   4.832   6.317  0.3733 -1.6071 -0.1595
15943TIP3   OH269319   3.219   0.454   5.598  0.3394 -0.2773 -0.0658
15943TIP3    H169320   3.195   0.541   5.566 -1.1417 -0.3865  0.6357
15943TIP3    H269321   3.310   0.442   5.572  0.8188  1.8048  0.5023
15944TIP3   OH269322   4.148   0.546  14.649 -0.0539  0.5190 -0.5360
15944TIP3    H169323   4.123   0.602  14.575 -0.1396  0.5461 -0.4870
15944TIP3    H269324   4.243   0.541  14.644  0.0909  1.8524  0.3045
15945TIP3   OH269325   1.356   0.795   0.167 -0.5567 -0.1703 -0.9847
15945TIP3    H169326   1.438   0.755   0.197 -1.6163 -2.4793 -0.9583
15945TIP3    H269327   1.378   0.832   0.081  0.7969  0.3648 -0.4388
15946TIP3   OH269328   4.229   0.521   6.194  0.6697 -0.0424 -0.6625
15946TIP3    H169329   4.169   0.505   6.266  0.0144 -1.1205 -1.4195
15946TIP3    H269330   4.257   0.612   6.205 -0.0360  0.0446  0.4781
15947TIP3   OH269331   1.445   4.811   4.555  0.3617  0.4003  0.3254
15947TIP3    H169332   1.396   4.750   4.500 -1.1799  0.1468  1.8779
15947TIP3    H269333   1.440   4.895   4.509  1.3469 -0.3016 -1.1581
15948TIP3   OH269334   6.441   5.690  13.155  0.0428  0.2022  0.0994
15948TIP3    H169335   6.523   5.709  13.111  1.4339  1.5204  2.9931
15948TIP3    H269336   6.426   5.596  13.140  0.4725  0.5325 -2.8510
15949TIP3   OH269337   4.792   1.384   3.208  0.6527  0.6831 -0.1510
15949TIP3    H169338   4.715   1.423   3.165  0.9223  0.4295 -0.8925
15949TIP3    H269339   4.842   1.346   3.136  0.5872 -0.7028  0.5108
15950TIP3   OH269340   2.220   2.004   0.862 -0.1722  0.1289  0.0259
15950TIP3    H169341   2.270   2.060   0.920 -0.6458 -0.3770  0.9426
15950TIP3    H269342   2.278   1.929   0.845  0.0291  0.3551 -0.2973
15951TIP3   OH269343   0.959   2.254  16.293  0.2086  0.4499 -0.1292
15951TIP3    H169344   0.924   2.166  16.310  0.9416  0.5719  2.3600
15951TIP3    H269345   1.054   2.242  16.296  0.3183  1.2319 -0.4110
15952TIP3   OH269346   3.738   3.312  16.617 -0.0656  0.1156 -0.1447
15952TIP3    H169347   3.787   3.381  16.661  1.0951  0.0035 -1.2201
15952TIP3    H269348   3.803   3.265  16.565 -1.0823 -0.8954 -0.5487
15953TIP3   OH269349   1.114   6.127   3.394  0.1656  0.2048 -0.5871
15953TIP3    H169350   1.135   6.086   3.478 -1.0724 -0.6614 -0.6747
15953TIP3    H269351   1.199   6.157   3.360  0.8778 -0.7456  0.2899
15954TIP3   OH269352   3.389   3.574  11.063 -0.3168 -0.4189 -0.3678
15954TIP3    H169353   3.482   3.586  11.083 -0.2427 -1.9239  0.2923
15954TIP3    H269354   3.371   3.638  10.994  0.7866  1.0793  0.6596
15955TIP3   OH269355   3.449   4.661   5.163  0.4457  1.4015  0.1760
15955TIP3    H169356   3.458   4.615   5.247  1.1716  0.1738 -0.5289
15955TIP3    H269357   3.386   4.609   5.114 -1.1811  2.9919  0.4938
15956TIP3   OH269358   2.500   5.894  11.901  0.0816 -0.9281  0.5819
15956TIP3    H169359   2.443   5.820  11.877 -0.7216  0.3993 -1.8779
15956TIP3    H269360   2.571   5.892  11.836  0.7216 -0.2397  1.2421
15957TIP3   OH269361   2.842   5.124  15.488  0.3529 -0.2806 -0.4715
15957TIP3    H169362   2.883   5.126  15.402  1.7184 -0.1230  0.1562
15957TIP3    H269363   2.748   5.117  15.470  0.5631  0.4097 -1.9627
15958TIP3   OH269364   4.179   1.456   0.964  0.3896 -0.4737  0.2440
15958TIP3    H169365   4.156   1.368   0.994  2.8216 -0.9223  0.9560
15958TIP3    H269366   4.100   1.487   0.920 -1.0641 -2.3863  1.3434
15959TIP3   OH269367   6.053   3.088   0.057  0.6855  0.5355 -0.1466
15959TIP3    H169368   6.043   3.179   0.028 -1.1858  0.4475  0.1138
15959TIP3    H269369   6.115   3.050  -0.005  0.2832  1.5830 -1.2269
15960TIP3   OH269370   1.720   1.212  12.377  0.4330 -0.3113  0.6313
15960TIP3    H169371   1.795   1.156  12.400 -0.8848 -1.0851  3.5397
15960TIP3    H269372   1.644   1.154  12.385 -0.7604  1.2903  1.3047
15961TIP3   OH269373   6.675   2.665  14.063 -0.4459 -0.0769 -0.0129
15961TIP3    H169374   6.604   2.728  14.075  0.1118  0.7351 -0.8076
15961TIP3    H269375   6.708   2.648  14.151 -0.8277  0.4920  0.2436
15962TIP3   OH269376   2.607   1.627  14.050 -0.0991 -0.1074  0.1868
15962TIP3    H169377   2.640   1.692  14.113 -0.4662 -1.4682  1.8260
15962TIP3    H269378   2.632   1.543  14.086  0.4659 -0.9416 -1.9665
15963TIP3   OH269379   6.242   4.980  11.369  0.0019  0.1877 -0.7209
15963TIP3    H169380   6.299   5.031  11.427  2.8917 -1.5972 -1.8079
15963TIP3    H269381   6.171   4.950  11.427  1.7334  0.0462  1.4849
15964TIP3   OH269382   4.793   0.748   2.044 -0.1888 -0.5001 -0.0221
15964TIP3    H169383   4.858   0.815   2.022 -1.2339  0.6282  0.2346
15964TIP3    H269384   4.709   0.794   2.042 -0.9151 -1.7614  0.3634
15965TIP3   OH269385   0.673   6.238  11.965  0.7564  0.0458 -0.5505
15965TIP3    H169386   0.685   6.305  11.898  0.3543 -0.1316 -0.8044
15965TIP3    H269387   0.751   6.183  11.958  0.4116 -0.3632 -1.3297
15966TIP3   OH269388   1.614   3.548  17.060 -0.6069  0.0384 -0.0920
15966TIP3    H169389   1.662   3.517  17.137 -0.1228  0.2813 -0.2921
15966TIP3    H269390   1.552   3.477  17.041 -0.8807  0.0693  0.6477
15967TIP3   OH269391   2.117   1.253  14.977  0.4537  0.8479  0.0179
15967TIP3    H169392   2.064   1.219  14.905 -2.6102  0.7310  2.1250
15967TIP3    H269393   2.206   1.255  14.943 -0.4705 -1.4341 -2.9471
15968TIP3   OH269394   6.466   3.398  15.531 -0.1041  0.3726  0.0495
15968TIP3    H169395   6.395   3.443  15.576 -1.0871 -0.1874 -0.8962
15968TIP3    H269396   6.422   3.338  15.471  1.1762 -0.5442 -0.0039
15969TIP3   OH269397   2.647   4.207   3.636  0.0901  0.1634 -0.3636
15969TIP3    H169398   2.708   4.187   3.708  0.0848 -0.3002 -0.4866
15969TIP3    H269399   2.671   4.146   3.567  0.3464  0.8579 -0.9069
15970TIP3   OH269400   0.820   5.473  13.186 -0.0575 -0.5318  0.1458
15970TIP3    H169401   0.901   5.422  13.179  0.4297 -0.1171  2.0609
15970TIP3    H269402   0.753   5.408  13.209  0.3526 -0.4962  1.5263
15971TIP3   OH269403   5.471   5.482   2.007  0.5912 -0.5168 -0.3587
15971TIP3    H169404   5.498   5.574   2.009 -1.0204 -0.0323  0.2569
15971TIP3    H269405   5.400   5.479   1.944 -1.0376 -0.8220  1.4140
15972TIP3   OH269406   3.021   1.584   1.450 -0.0997  0.7225 -0.2790
15972TIP3    H169407   3.089   1.577   1.383 -0.3089 -2.8827 -0.3332
15972TIP3    H269408   2.947   1.536   1.413 -0.0127 -2.0178  2.6266
15973TIP3   OH269409   4.694   0.583   6.074 -0.0522 -0.4045  0.3770
15973TIP3    H169410   4.612   0.543   6.104 -1.2824  2.4084  1.0582
15973TIP3    H269411   4.718   0.644   6.144  1.3171  0.5680 -0.8757
15974TIP3   OH269412   1.944   2.176   5.857 -0.1123  0.1060  0.0797
15974TIP3    H169413   1.953   2.264   5.820  1.5554  0.0358  0.2410
15974TIP3    H269414   1.868   2.182   5.915 -0.3149  1.3009 -0.2855
15975TIP3   OH269415   3.279   4.262  12.828  0.2060 -0.5725 -0.0007
15975TIP3    H169416   3.350   4.197  12.831  1.6417  0.9696  0.5881
15975TIP3    H269417   3.307   4.326  12.763 -0.7351 -0.0105  0.1239
15976TIP3   OH269418   0.154   0.873  11.707 -0.4666 -0.3635  0.5781
15976TIP3    H169419   0.178   0.933  11.777 -0.8788 -2.3815  2.5403
15976TIP3    H269420   0.085   0.818  11.744 -1.4080 -0.8974 -1.7441
15977TIP3   OH269421   3.746   3.760   4.889 -0.9121 -0.1694 -0.3010
15977TIP3    H169422   3.744   3.670   4.856 -1.7602 -0.6645  1.0062
15977TIP3    H269423   3.833   3.770   4.927 -0.2764  0.0836 -1.7590
15978TIP3   OH269424   3.746   2.160   5.064 -0.5399 -0.4007 -0.2211
15978TIP3    H169425   3.759   2.066   5.070 -1.3384 -0.5694 -0.9996
15978TIP3    H269426   3.658   2.174   5.099 -0.7340 -0.0487 -0.8317
15979TIP3   OH269427   4.780   6.674   2.198 -1.1615  0.1156  0.1209
15979TIP3    H169428   4.848   6.612   2.223 -0.0167  1.2835  0.0314
15979TIP3    H269429   4.698   6.631   2.221 -0.3294 -0.5468  2.0534
15980TIP3   OH269430   6.227   4.522  15.870  0.4301  0.1430 -0.0919
15980TIP3    H169431   6.305   4.573  15.890  0.8522 -0.3473 -0.4529
15980TIP3    H269432   6.169   4.537  15.944  0.5586  1.1053 -0.1745
15981TIP3   OH269433   2.588   2.035  13.523 -0.1186  0.2416 -0.2182
15981TIP3    H169434   2.598   2.065  13.432  0.8948  0.4595 -0.0513
15981TIP3    H269435   2.564   1.942  13.515  2.8496 -0.6108 -0.7607
15982TIP3   OH269436   4.372   1.490   6.545 -0.7766  0.2845  0.3331
15982TIP3    H169437   4.310   1.466   6.476 -0.1726  1.3404 -0.6150
15982TIP3    H269438   4.325   1.553   6.599 -1.1115 -0.2419  0.6701
15983TIP3   OH269439   5.188   6.116   4.978  0.1689  0.2052 -0.2563
15983TIP3    H169440   5.102   6.078   5.000  0.4118  0.2574  0.8444
15983TIP3    H269441   5.246   6.085   5.047  0.6597  1.5372 -0.0429
15984TIP3   OH269442   5.847   6.295   4.300 -0.3226  0.3680  0.3665
15984TIP3    H169443   5.758   6.283   4.268  0.3242 -3.1415 -0.5053
15984TIP3    H269444   5.849   6.251   4.384  1.1451 -2.0804 -0.8380
15985TIP3   OH269445   4.017   1.428  12.511  0.1117 -0.2134 -0.3263
15985TIP3    H169446   3.971   1.511  12.501 -1.9754 -1.1366  1.0111
15985TIP3    H269447   4.103   1.453  12.545 -0.2989  1.4173 -0.3954
15986TIP3   OH269448   6.304   5.153   5.593  0.6425 -0.4112  0.5179
15986TIP3    H169449   6.265   5.194   5.671 -0.1731  0.9162 -0.5525
15986TIP3    H269450   6.395   5.136   5.619  0.0666 -1.1654  2.1785
15987TIP3   OH269451   5.127   2.279   0.738  0.5968 -0.2792  0.3963
15987TIP3    H169452   5.129   2.228   0.819  1.2945  0.9824  1.2096
15987TIP3    H269453   5.035   2.277   0.711  0.3474 -0.7027  1.2386
15988TIP3   OH269454   0.384   6.198  16.263 -0.3140  0.0430 -0.1618
15988TIP3    H169455   0.442   6.273  16.270 -0.3701  0.1592 -0.8934
15988TIP3    H269456   0.443   6.123  16.254 -0.2253  0.3607 -3.0637
15989TIP3   OH269457   2.714   3.443  12.050 -0.2094  0.1937  0.0620
15989TIP3    H169458   2.694   3.534  12.071 -0.8966  0.3054 -1.0174
15989TIP3    H269459   2.628   3.401  12.042  0.0935 -0.4394  0.0710
15990TIP3   OH269460   2.828   0.284  14.519  0.5707  0.3781 -0.2312
15990TIP3    H169461   2.873   0.350  14.571  0.0832  1.0509 -0.6371
15990TIP3    H269462   2.828   0.320  14.430 -0.5378  0.2798 -0.2822
15991TIP3   OH269463   4.762   5.363  12.384  0.5424  0.3515  0.2336
15991TIP3    H169464   4.801   5.277  12.401 -1.0123 -0.1831  1.3866
15991TIP3    H269465   4.827   5.425  12.417  0.8851 -0.4613  1.1622
15992TIP3   OH269466   3.339   3.551   5.592 -0.6322 -0.2464  0.5843
15992TIP3    H169467   3.378   3.501   5.664  1.0990  0.5178  0.2273
15992TIP3    H269468   3.377   3.512   5.513 -0.8430  0.3062  0.2051
15993TIP3   OH269469   4.006   5.695   2.993 -0.0282 -0.1724 -0.2208
15993TIP3    H169470   3.946   5.747   2.939 -0.5224 -0.4113  0.1002
15993TIP3    H269471   3.978   5.709   3.083  2.2187  2.1034  0.2536
15994TIP3   OH269472   3.744   2.498  14.593  0.7893  0.2248 -0.0713
15994TIP3    H169473   3.675   2.457  14.541  0.7546 -0.2458  0.3407
15994TIP3    H269474   3.822   2.445  14.576  0.7525  0.0019  0.4363
15995TIP3   OH269475   6.157   2.804  14.483  0.2871  0.5941  0.6153
15995TIP3    H169476   6.199   2.853  14.413 -0.2031  2.3284  1.4653
15995TIP3    H269477   6.221   2.805  14.555  0.2947 -0.0784  0.6221
15996TIP3   OH269478   2.635   0.712  16.994 -0.6714  0.1701 -0.4543
15996TIP3    H169479   2.714   0.660  16.979 -0.8267  0.1334 -1.1773
15996TIP3    H269480   2.621   0.760  16.913 -1.7826 -0.3593 -0.6057
15997TIP3   OH269481   3.068   6.625   1.276 -0.1913  0.1481 -0.4828
15997TIP3    H169482   3.047   6.706   1.230  1.9405  0.1967 -1.4609
15997TIP3    H269483   3.122   6.576   1.215  2.0904 -0.1469  1.6089
15998TIP3   OH269484   1.125   4.977   0.745  0.0482 -0.1134 -0.3770
15998TIP3    H169485   1.079   5.007   0.666 -0.1994  2.5988  0.6736
15998TIP3    H269486   1.098   5.040   0.813  2.2624 -0.7956  1.2231
15999TIP3   OH269487   0.091   5.172  13.669  0.4663 -0.2029  0.4090
15999TIP3    H169488   0.093   5.252  13.721 -0.3842 -0.2365  0.5001
15999TIP3    H269489   0.014   5.124  13.701 -0.1850 -0.1335 -0.9862
16000TIP3   OH269490   4.603   5.314   1.351 -0.0827  0.4774 -0.0393
16000TIP3    H169491   4.567   5.225   1.345 -1.1284  0.7875  1.2396
16000TIP3    H269492   4.584   5.341   1.441  1.1267  1.6275 -0.1046
16001TIP3   OH269493   4.886   1.497  14.930  0.2652 -0.5505  0.2943
16001TIP3    H169494   4.809   1.454  14.967  0.0494 -0.3374  0.1002
16001TIP3    H269495   4.851   1.551  14.858  0.8498 -2.0753 -1.1916
16002TIP3   OH269496   6.367   3.062  15.195  0.0048 -0.0545 -0.5814
16002TIP3    H169497   6.343   2.970  15.187 -0.3014 -0.2109  1.5185
16002TIP3    H269498   6.410   3.083  15.112  0.9762 -2.3554 -0.7436
16003TIP3   OH269499   4.484   1.218   2.639  0.1406  0.2811  0.1131
16003TIP3    H169500   4.426   1.176   2.575 -0.8285 -0.2795  1.3356
16003TIP3    H269501   4.438   1.211   2.722  1.5388  0.6870  0.9572
16004TIP3   OH269502   6.640   3.901   3.686  0.3921 -0.3107 -0.2392
16004TIP3    H169503   6.615   3.993   3.677 -1.7767 -0.8426 -0.0138
16004TIP3    H269504   6.561   3.857   3.717  1.0996 -2.4167 -1.2548
16005TIP3   OH269505   6.121   2.059   5.502 -0.3128 -0.2765  0.3057
16005TIP3    H169506   6.160   2.127   5.557 -1.6385  0.1131  0.8293
16005TIP3    H269507   6.049   2.024   5.555 -0.3581 -1.3192 -0.3988
16006TIP3   OH269508   4.441   2.788  16.087 -0.5287 -0.2794 -0.2766
16006TIP3    H169509   4.362   2.841  16.095 -0.6214 -0.4927  0.2402
16006TIP3    H269510   4.410   2.701  16.061 -0.7667 -1.1774  2.6504
16007TIP3   OH269511   3.192   0.235  14.689 -0.0452 -0.7438  0.3834
16007TIP3    H169512   3.208   0.320  14.647  1.0175 -1.4487 -0.7004
16007TIP3    H269513   3.275   0.215  14.733 -0.4036 -1.0823  0.9128
16008TIP3   OH269514   6.248   1.717  14.555 -0.2697 -0.5493 -0.0684
16008TIP3    H169515   6.164   1.702  14.598 -0.2784  0.1887  0.1765
16008TIP3    H269516   6.268   1.809  14.572  1.4016 -1.1337  1.3134
16009TIP3   OH269517   4.352   1.253   0.018  0.1545  0.4235  0.4459
16009TIP3    H169518   4.355   1.305  -0.063  1.3176  1.6654  1.2268
16009TIP3    H269519   4.436   1.208   0.021 -0.2690 -0.3765  0.4985
16010TIP3   OH269520   1.325   3.023  17.112 -0.0177 -0.1440 -1.0572
16010TIP3    H169521   1.375   3.057  17.186  1.3325  0.2499 -2.0983
16010TIP3    H269522   1.264   3.092  17.090 -0.2328 -0.1496 -0.4956
16011TIP3   OH269523   0.880   3.288   1.609 -0.1717 -0.3328 -0.1146
16011TIP3    H169524   0.957   3.336   1.578  0.2826 -0.6638  0.4763
16011TIP3    H269525   0.833   3.351   1.663 -1.6895  0.6900 -2.4676
16012TIP3   OH269526   6.234   5.264   5.848 -0.3876  0.2035  0.1923
16012TIP3    H169527   6.167   5.274   5.915  0.5380  1.7008  0.9518
16012TIP3    H269528   6.298   5.204   5.885 -0.0748  0.7228  0.5059
16013TIP3   OH269529   2.173   1.576   5.189 -0.1482 -0.0021 -0.0082
16013TIP3    H169530   2.183   1.637   5.262 -1.2487  0.0102  0.1491
16013TIP3    H269531   2.248   1.518   5.196 -0.1185  0.1378  1.0068
16014TIP3   OH269532   5.858   4.809  11.400  0.7055  0.2021  0.3248
16014TIP3    H169533   5.942   4.822  11.443  1.9117 -2.0363 -1.1338
16014TIP3    H269534   5.839   4.893  11.359  2.3182  0.7335  0.5906
16015TIP3   OH269535   5.756   5.318   6.341  0.2883 -0.8041  0.3657
16015TIP3    H169536   5.719   5.253   6.282  1.2151  1.2214 -2.6363
16015TIP3    H269537   5.851   5.302   6.338  0.3681 -0.5229  1.1247
16016TIP3   OH269538   0.488   3.275   0.024 -0.2940 -0.1786 -0.0268
16016TIP3    H169539   0.554   3.259  -0.043 -0.2787 -1.2879  0.2364
16016TIP3    H269540   0.483   3.193   0.073 -0.9838  0.3032  0.7330
16017TIP3   OH269541   6.549   5.488   0.181 -0.1530 -0.3758  0.0272
16017TIP3    H169542   6.601   5.491   0.262 -1.3563  0.9641  0.7860
16017TIP3    H269543   6.605   5.529   0.115  1.8690 -3.6561 -0.5327
16018TIP3   OH269544   4.452   4.039   6.355 -0.0097 -0.4931 -0.2119
16018TIP3    H169545   4.482   4.100   6.422  1.1035 -1.6444  0.3988
16018TIP3    H269546   4.357   4.038   6.362  0.1020 -0.8774  1.6489
16019TIP3   OH269547   5.040   2.071   2.881 -0.5676  0.0358  0.2053
16019TIP3    H169548   5.123   2.105   2.846 -1.3203  2.4461  0.5249
16019TIP3    H269549   4.979   2.077   2.808 -0.6797 -0.8940  0.2142
16020TIP3   OH269550   4.121   3.508  12.559 -0.2145  0.3141 -0.7576
16020TIP3    H169551   4.065   3.447  12.607  1.0471  1.0427  1.8594
16020TIP3    H269552   4.194   3.454  12.528 -1.4206 -0.3086 -2.6639
16021TIP3   OH269553   0.565   2.989  11.939  0.5127 -0.1110  0.2287
16021TIP3    H169554   0.582   3.059  12.001 -0.0477 -1.0443  1.4947
16021TIP3    H269555   0.621   2.917  11.969 -0.1318 -0.7344 -0.0304
16022TIP3   OH269556   1.848   2.778  15.705 -0.1611 -0.4975 -0.0480
16022TIP3    H169557   1.912   2.847  15.725  0.4268 -0.9223 -0.4515
16022TIP3    H269558   1.797   2.769  15.786  0.7267 -0.6227  0.5081
16023TIP3   OH269559   6.123   2.542  16.640 -0.0750 -0.3615  0.0578
16023TIP3    H169560   6.152   2.554  16.550  0.7195 -0.6441  0.2653
16023TIP3    H269561   6.088   2.627  16.666 -0.4995 -0.3365 -0.5817
16024TIP3   OH269562   4.633   1.905  17.092 -0.0260 -0.1041 -0.0955
16024TIP3    H169563   4.602   1.918  17.002  1.2638  0.1954 -0.5036
16024TIP3    H269564   4.553   1.886  17.141 -0.8915  0.8270 -1.0882
16025TIP3   OH269565   1.115   3.412   1.493 -0.5462 -0.3394  0.1564
16025TIP3    H169566   1.089   3.504   1.504  0.1598 -0.2301  0.9692
16025TIP3    H269567   1.210   3.415   1.488 -0.5331 -1.0164 -0.0305
16026TIP3   OH269568   2.126   6.337   3.337 -0.2066  0.1560 -0.2473
16026TIP3    H169569   2.185   6.404   3.303 -1.1439  0.9944 -0.2549
16026TIP3    H269570   2.100   6.286   3.260  0.7422 -0.4329 -0.1990
16027TIP3   OH269571   2.583   1.697  11.752  0.7488 -0.1465  0.3851
16027TIP3    H169572   2.508   1.756  11.760  1.4044  0.4832  2.3191
16027TIP3    H269573   2.637   1.737  11.684 -0.1143 -0.0043 -0.2324
16028TIP3   OH269574   1.202   0.811   0.886 -0.5783  0.6064  0.1299
16028TIP3    H169575   1.201   0.734   0.829  0.1013  0.5510  0.1939
16028TIP3    H269576   1.293   0.839   0.888 -0.3422 -0.0915  2.1245
16029TIP3   OH269577   0.465   2.912   5.768 -0.0468  0.1615  0.5143
16029TIP3    H169578   0.480   2.899   5.675 -1.8268 -0.0267  0.2217
16029TIP3    H269579   0.373   2.935   5.775 -0.2003 -0.7783  2.3082
16030TIP3   OH269580   3.487   1.623  12.829 -0.6641  0.1618 -0.0969
16030TIP3    H169581   3.453   1.578  12.906  0.6415 -1.8863 -0.6309
16030TIP3    H269582   3.422   1.606  12.761 -0.5830 -0.2285 -0.0802
16031TIP3   OH269583   6.576   2.723   1.760  0.5419  0.6874 -0.2292
16031TIP3    H169584   6.626   2.791   1.804  0.1807  0.6814  0.2038
16031TIP3    H269585   6.631   2.645   1.766 -0.6923 -0.0900  2.8719
16032TIP3   OH269586   1.233   1.490   3.604  0.0188  0.1808 -0.2138
16032TIP3    H169587   1.141   1.468   3.585 -0.3886 -2.3929  3.5579
16032TIP3    H269588   1.283   1.418   3.567  0.3055  0.5164 -0.4807
16033TIP3   OH269589   1.210   5.001  13.583  0.4689 -0.2383  0.1241
16033TIP3    H169590   1.279   5.055  13.622  0.8485  0.5733 -1.5586
16033TIP3    H269591   1.137   5.008  13.643  1.2027  0.5065  0.9575
16034TIP3   OH269592   4.538   5.278   1.015 -0.8129 -0.2020 -0.0868
16034TIP3    H169593   4.447   5.273   1.043 -0.3117  0.7633  1.9022
16034TIP3    H269594   4.584   5.315   1.090  0.5017  3.8018 -2.5841
16035TIP3   OH269595   1.572   5.654   3.917 -0.2864  0.5748  0.5904
16035TIP3    H169596   1.535   5.736   3.950 -0.4076  0.1444  1.5598
16035TIP3    H269597   1.665   5.658   3.941  0.5332  1.8898 -2.2967
16036TIP3   OH269598   1.566   4.688  14.575  0.4383  0.3290 -0.5687
16036TIP3    H169599   1.533   4.616  14.521  0.3098 -0.9666  1.1629
16036TIP3    H269600   1.656   4.700  14.545 -0.8531  2.7052 -4.1160
16037TIP3   OH269601   4.899   5.415  16.341 -0.5481 -0.4139 -0.2073
16037TIP3    H169602   4.828   5.420  16.278 -1.3666 -0.8186  0.6525
16037TIP3    H269603   4.977   5.441  16.292 -1.1041 -1.0147 -1.4476
16038TIP3   OH269604   5.601   4.741   1.473 -0.0401 -0.0473 -0.8073
16038TIP3    H169605   5.680   4.793   1.486 -1.1370  1.4623  0.1830
16038TIP3    H269606   5.545   4.763   1.548 -2.1635  0.4036 -2.4315
16039TIP3   OH269607   3.087   1.212   3.591 -0.4699  1.0052  0.7071
16039TIP3    H169608   3.124   1.171   3.513 -1.1754 -0.4740  1.0960
16039TIP3    H269609   3.130   1.167   3.664 -1.2693  0.9385  1.1546
16040TIP3   OH269610   4.721   1.570   2.524  0.3267 -0.1404 -0.4109
16040TIP3    H169611   4.768   1.585   2.442  3.4814  0.7661  1.3688
16040TIP3    H269612   4.677   1.654   2.542 -0.4580 -0.3739 -1.1758
16041TIP3   OH269613   6.020   3.625  13.181  0.0182 -0.4879 -0.7432
16041TIP3    H169614   6.044   3.713  13.154  0.7049 -0.5587 -0.4061
16041TIP3    H269615   6.091   3.570  13.147  1.6895 -0.4258  2.2373
16042TIP3   OH269616   1.453   0.924   5.015  0.0116 -0.4211  0.1496
16042TIP3    H169617   1.397   0.954   5.087 -0.6251 -1.3255  0.0529
16042TIP3    H269618   1.530   0.980   5.020 -0.1497 -0.2735  1.3576
16043TIP3   OH269619   3.500   1.039  14.643  0.3862 -0.0900 -0.3045
16043TIP3    H169620   3.572   1.097  14.617  1.4993 -1.2930 -0.0314
16043TIP3    H269621   3.541   0.976  14.702 -1.1175 -0.2438  0.6018
16044TIP3   OH269622   5.488   5.235   4.224  0.6480  0.9385  0.5078
16044TIP3    H169623   5.395   5.213   4.217  1.0607 -0.3691 -2.3929
16044TIP3    H269624   5.492   5.328   4.198  0.4723 -0.2818 -5.4609
16045TIP3   OH269625   4.587   5.252  15.448  0.3841 -0.1779  0.2409
16045TIP3    H169626   4.603   5.182  15.511 -0.6914 -0.8619 -0.2148
16045TIP3    H269627   4.674   5.280  15.420  0.8379 -1.9539 -0.2324
16046TIP3   OH269628   5.176   4.162   5.598  0.0622 -0.1885 -0.0329
16046TIP3    H169629   5.202   4.234   5.541  3.2106  0.2738  1.7699
16046TIP3    H269630   5.124   4.203   5.667  0.2839  0.0445 -0.0047
16047TIP3   OH269631   2.354   3.651   5.419 -0.8699  0.2840 -0.4103
16047TIP3    H169632   2.383   3.587   5.354 -0.7375 -0.6470  0.5506
16047TIP3    H269633   2.435   3.684   5.458 -0.9361  1.0539 -0.8964
16048TIP3   OH269634   1.957   2.565  11.524 -0.4124 -0.2719  0.2294
16048TIP3    H169635   1.905   2.556  11.604 -0.7162 -0.0039  0.0622
16048TIP3    H269636   2.040   2.521  11.545  0.5741  2.0323  1.6374
16049TIP3   OH269637   3.921   1.111   4.442 -0.0702 -0.0916  0.2715
16049TIP3    H169638   3.933   1.028   4.396  0.2121 -0.0898  0.3437
16049TIP3    H269639   3.993   1.115   4.504 -0.6276 -0.2435  0.9384
16050TIP3   OH269640   4.025   4.723   0.396  0.0127 -0.1797 -0.0764
16050TIP3    H169641   4.065   4.721   0.309  0.8790  1.1446  0.2593
16050TIP3    H269642   4.097   4.704   0.456 -0.4429 -0.4611  0.3853
16051TIP3   OH269643   1.884   1.558   5.288  0.0262 -0.3552 -0.5751
16051TIP3    H169644   1.842   1.508   5.219  0.0802  0.5274 -1.2710
16051TIP3    H269645   1.971   1.519   5.298  0.7459  0.6890 -2.3564
16052TIP3   OH269646   2.546   1.476  17.071 -0.3693 -0.2106  0.1924
16052TIP3    H169647   2.529   1.569  17.085 -1.9695 -0.6160  1.1747
16052TIP3    H269648   2.572   1.443  17.157  0.1493 -0.6825 -0.1410
16053TIP3   OH269649   5.076   3.793   0.138  0.4068  0.5629  0.6205
16053TIP3    H169650   5.000   3.740   0.161  0.7272 -0.2408 -0.1466
16053TIP3    H269651   5.041   3.882   0.127 -0.2702  0.3615  1.0948
16054TIP3   OH269652   2.796   4.110  16.012  0.3541  0.2349 -0.2475
16054TIP3    H169653   2.718   4.077  15.967 -0.7963 -0.9533  2.3877
16054TIP3    H269654   2.784   4.205  16.014 -1.6383  0.0300  0.9949
16055TIP3   OH269655   5.234   4.555   5.187  0.0295 -0.2466  0.0355
16055TIP3    H169656   5.311   4.518   5.144  0.3117  0.2381  0.1111
16055TIP3    H269657   5.228   4.644   5.152 -0.8027 -0.4456 -0.3603
16056TIP3   OH269658   5.437   0.562   1.026  0.1355  0.0804  0.4136
16056TIP3    H169659   5.412   0.647   1.062 -0.2841  0.0664  0.1552
16056TIP3    H269660   5.385   0.553   0.946 -1.3043 -1.2900  1.4370
16057TIP3   OH269661   1.661   0.729  10.999  0.1147  0.8501 -0.3464
16057TIP3    H169662   1.665   0.735  10.904  2.4933  1.3796 -0.2736
16057TIP3    H269663   1.705   0.807  11.031  1.1174 -0.2606  1.1488
16058TIP3   OH269664   5.848   2.281  16.587 -0.2787 -0.5525  0.1661
16058TIP3    H169665   5.781   2.232  16.540  1.0563 -2.5065  0.1972
16058TIP3    H269666   5.815   2.286  16.677 -1.9530  1.5584 -0.4888
16059TIP3   OH269667   3.394   2.724  15.333  0.1549 -0.3667 -0.0999
16059TIP3    H169668   3.372   2.813  15.359  0.4998 -0.2937 -0.0554
16059TIP3    H269669   3.470   2.733  15.276  0.3729 -0.6520  0.1387
16060TIP3   OH269670   6.439   2.537   5.618  0.1900 -0.0762 -0.4675
16060TIP3    H169671   6.463   2.496   5.701 -0.2235 -1.1858 -0.8788
16060TIP3    H269672   6.350   2.570   5.631 -0.5210 -1.7105 -0.9576
16061TIP3   OH269673   3.665   0.352   1.594 -0.4204 -0.1726  0.4189
16061TIP3    H169674   3.677   0.259   1.572  1.1675  0.7120 -3.1260
16061TIP3    H269675   3.749   0.392   1.575 -1.4139  2.2232  0.7318
16062TIP3   OH269676   0.999   1.485   4.422 -0.3787  0.4766 -0.3110
16062TIP3    H169677   1.088   1.459   4.448 -0.7318 -1.0266 -0.5588
16062TIP3    H269678   0.949   1.404   4.420 -2.2230  1.4704  1.4478
16063TIP3   OH269679   4.996   0.985  13.011 -0.0306 -0.1727 -0.0800
16063TIP3    H169680   4.930   0.975  12.943 -0.6130  1.0745  0.2743
16063TIP3    H269681   5.047   0.904  13.008 -1.9914 -1.4576  0.1135
16064TIP3   OH269682   6.158   6.675   3.908 -0.8594  0.1297 -0.0500
16064TIP3    H169683   6.196   6.588   3.903 -0.5148  0.3261 -1.9032
16064TIP3    H269684   6.070   6.661   3.942  0.4691 -0.4230  3.5457
16065TIP3   OH269685   1.958   1.161  14.779 -0.3976 -0.3446  0.4576
16065TIP3    H169686   1.879   1.211  14.760 -1.1230 -1.1099  1.3248
16065TIP3    H269687   1.927   1.072  14.795  0.2849 -0.1816  3.3156
16066TIP3   OH269688   0.364   2.499   5.635  0.0948 -0.0641  0.5974
16066TIP3    H169689   0.278   2.482   5.595  0.0647 -0.3760  0.7942
16066TIP3    H269690   0.364   2.594   5.651  0.2045  0.1077 -0.3609
16067TIP3   OH269691   4.780   3.823   4.833  0.4330 -0.2829 -0.2517
16067TIP3    H169692   4.806   3.857   4.747  2.7770 -0.1755  0.4315
16067TIP3    H269693   4.842   3.864   4.894 -1.2324 -0.2896  1.5266
16068TIP3   OH269694   5.602   4.951  11.249  0.2686 -0.0529 -0.1646
16068TIP3    H169695   5.622   4.889  11.179 -1.9474 -0.4354 -0.5196
16068TIP3    H269696   5.557   5.023  11.205 -1.0238 -0.2293  0.8147
16069TIP3   OH269697   4.645   1.883  16.408 -0.0249  0.2209 -0.0686
16069TIP3    H169698   4.674   1.804  16.454 -0.9861  0.1818  0.4976
16069TIP3    H269699   4.612   1.940  16.478  0.5689  1.0914 -0.4802
16070TIP3   OH269700   4.485   2.413  15.525  0.0247 -0.0402 -0.1530
16070TIP3    H169701   4.527   2.484  15.476 -0.1629  0.6125  0.6171
16070TIP3    H269702   4.391   2.428  15.513 -0.0134 -0.1954 -0.0478
16071TIP3   OH269703   5.412   4.216   6.036 -0.4780 -0.2508  0.0145
16071TIP3    H169704   5.379   4.271   6.107 -0.0653 -1.2669  1.0369
16071TIP3    H269705   5.507   4.230   6.037 -0.3805 -0.8584  0.2109
16072TIP3   OH269706   4.030   2.071  13.090  0.0530 -0.5332  0.0620
16072TIP3    H169707   4.021   2.075  12.995 -2.6859 -1.1308  0.2365
16072TIP3    H269708   4.022   1.979  13.112  1.4753 -0.4996  0.8523
16073TIP3   OH269709   4.230   0.726  14.320  0.0894 -0.0076  0.3019
16073TIP3    H169710   4.226   0.674  14.240 -1.1369  0.2065  0.2088
16073TIP3    H269711   4.324   0.741  14.334  0.3434 -0.4374 -0.8282
16074TIP3   OH269712   2.303   6.421  14.750  0.7328 -0.1845  0.8478
16074TIP3    H169713   2.229   6.434  14.691 -0.1924 -0.7022  1.8721
16074TIP3    H269714   2.327   6.509  14.779  0.4354 -0.0291  0.6188
16075TIP3   OH269715   3.590   3.256  16.026  0.1763 -0.6225 -0.0477
16075TIP3    H169716   3.674   3.267  15.982  1.0022  0.3344  1.6895
16075TIP3    H269717   3.559   3.170  15.997  1.5102 -0.7905 -1.0738
16076TIP3   OH269718   4.132   3.777   4.727  0.1140 -0.0211 -0.3393
16076TIP3    H169719   4.170   3.691   4.745  1.7235  0.7010 -0.0505
16076TIP3    H269720   4.151   3.829   4.805 -1.3010  0.4677 -0.2879
16077TIP3   OH269721   4.321   5.625  15.816  0.8963 -0.1218  0.6508
16077TIP3    H169722   4.340   5.573  15.894 -1.4757  0.1691  1.4795
16077TIP3    H269723   4.407   5.636  15.774  2.1665 -0.7661  2.8917
16078TIP3   OH269724   1.275   1.526   0.094  0.2363 -0.0202  0.3835
16078TIP3    H169725   1.224   1.559   0.168  0.7343  0.7926  0.3781
16078TIP3    H269726   1.283   1.601   0.035  1.8242  0.0324  0.6183
16079TIP3   OH269727   6.524   0.715   2.445  0.2739  0.4357 -0.0564
16079TIP3    H169728   6.429   0.703   2.456  0.3475  0.7398  1.1265
16079TIP3    H269729   6.558   0.627   2.432 -0.3554  0.4856 -2.3908
16080TIP3   OH269730   2.605   0.701   4.091  0.0278  0.2017 -0.0863
16080TIP3    H169731   2.516   0.672   4.108  0.3796 -1.5443 -0.9959
16080TIP3    H269732   2.619   0.683   3.998  1.8299 -1.0228  0.3789
16081TIP3   OH269733   3.398   0.607   5.327 -0.4426  0.0885  0.0995
16081TIP3    H169734   3.353   0.611   5.243 -0.8192 -0.7289  0.2469
16081TIP3    H269735   3.345   0.662   5.385 -0.4741  0.2342 -0.0646
16082TIP3   OH269736   0.556   3.806   4.979  0.3502  0.8513 -0.2223
16082TIP3    H169737   0.624   3.806   5.047 -0.5996 -1.9191  0.8618
16082TIP3    H269738   0.479   3.842   5.022 -0.5444 -1.8456  0.6462
16083TIP3   OH269739   1.569   6.537   5.380 -0.6324  0.2428  0.1043
16083TIP3    H169740   1.600   6.611   5.328  1.9664  0.4089  1.7184
16083TIP3    H269741   1.600   6.460   5.332  0.8406  0.3717  0.7940
16084TIP3   OH269742   0.858   0.255  14.523 -0.2470  0.2455  0.2103
16084TIP3    H169743   0.856   0.335  14.470 -0.1033  0.2369  0.1914
16084TIP3    H269744   0.788   0.267  14.587 -0.2856  0.3469  0.1494
16085TIP3   OH269745   0.071   3.758   0.243  0.2434  0.1300 -0.1021
16085TIP3    H169746   0.164   3.743   0.232  0.2935  0.2550  0.1467
16085TIP3    H269747   0.047   3.817   0.171  0.0884 -0.9478 -0.9603
16086TIP3   OH269748   0.578   6.587  15.218  0.4148  0.2212 -0.7171
16086TIP3    H169749   0.620   6.669  15.246  2.1785 -0.2500 -1.8394
16086TIP3    H269750   0.636   6.518  15.250  0.2712 -0.4832 -1.9184
16087TIP3   OH269751   5.763   1.061   1.545 -0.2869 -0.4243  0.6072
16087TIP3    H169752   5.845   1.111   1.552  0.6871 -1.9283  0.6252
16087TIP3    H269753   5.747   1.053   1.451  0.1270 -0.9071  0.5680
16088TIP3   OH269754   4.196   2.937  17.032  0.2860 -0.0486 -0.3203
16088TIP3    H169755   4.201   2.848  17.067  1.9615  0.1520  0.0506
16088TIP3    H269756   4.116   2.939  16.981  0.4591 -1.9124 -0.7154
16089TIP3   OH269757   3.073   2.301   4.810  0.1381 -0.1182 -0.1664
16089TIP3    H169758   3.101   2.346   4.890  1.8882  0.0708 -0.8324
16089TIP3    H269759   3.029   2.222   4.840  1.6645 -0.5608  1.0023
16090TIP3   OH269760   1.530   2.074  11.052 -0.4612 -0.3420 -0.0033
16090TIP3    H169761   1.520   1.986  11.014  0.4019 -0.0186 -1.0182
16090TIP3    H269762   1.487   2.132  10.989 -0.5567  0.0224  0.3983
16091TIP3   OH269763   2.288   4.504  15.995 -0.0586  0.4181  0.3047
16091TIP3    H169764   2.200   4.538  16.012 -0.5729 -0.9835  0.5738
16091TIP3    H269765   2.283   4.412  16.019  1.6888  0.4649  1.0059
16092TIP3   OH269766   5.927   2.623   5.587  0.0461  0.4897  0.2471
16092TIP3    H169767   5.930   2.546   5.644 -0.5533 -0.4965 -0.9974
16092TIP3    H269768   5.852   2.607   5.529  2.8880 -0.4920 -3.4854
16093TIP3   OH269769   3.040   4.782  12.687 -0.8962 -0.2297 -0.1629
16093TIP3    H169770   2.963   4.804  12.739  0.3734  1.2199  1.2622
16093TIP3    H269771   3.028   4.830  12.605 -1.5782 -0.1498 -0.0217
16094TIP3   OH269772   5.868   3.234   2.486 -0.9251 -0.8094  0.2852
16094TIP3    H169773   5.906   3.319   2.462 -2.1804 -0.1985  0.3644
16094TIP3    H269774   5.864   3.235   2.582 -0.9003 -0.9760  0.2882
16095TIP3   OH269775   3.724   0.493  14.360  0.2598 -0.4491  0.4711
16095TIP3    H169776   3.714   0.408  14.403 -0.7701 -0.8492 -0.5024
16095TIP3    H269777   3.818   0.501  14.346  0.4773 -0.9183  1.5539
16096TIP3   OH269778   1.848   4.347  14.702  0.2499  0.2530 -0.3055
16096TIP3    H169779   1.835   4.288  14.776 -4.3213  1.3571  0.0550
16096TIP3    H269780   1.902   4.418  14.736 -0.7428  0.1207  1.6666
16097TIP3   OH269781   6.724   2.639  16.641  0.5111  0.2426  0.0230
16097TIP3    H169782   6.741   2.549  16.666 -0.4613  0.2302  0.6906
16097TIP3    H269783   6.714   2.686  16.724  2.5697  1.3009 -0.2792
16098TIP3   OH269784   2.925   4.592  15.842  0.0606  0.2468 -0.6554
16098TIP3    H169785   2.958   4.675  15.877 -1.5077  0.9213 -0.6529
16098TIP3    H269786   2.958   4.589  15.753  0.8390  0.4624 -0.3777
16099TIP3   OH269787   1.658   0.744  13.155 -0.4415  0.3971 -0.5472
16099TIP3    H169788   1.602   0.791  13.093 -0.5994 -0.3150 -0.9568
16099TIP3    H269789   1.608   0.666  13.179 -0.0405  0.2558 -0.1455
16100TIP3   OH269790   2.418   1.178  14.894 -0.0514  0.2812 -0.2793
16100TIP3    H169791   2.495   1.201  14.946  0.1447 -0.3334 -0.2910
16100TIP3    H269792   2.453   1.151  14.809 -0.2234 -0.6380 -0.0708
16101TIP3   OH269793   0.101   5.049  15.865  0.1265  0.7469 -0.6492
16101TIP3    H169794   0.187   5.063  15.905  0.1779 -1.1186 -0.0138
16101TIP3    H269795   0.093   4.954  15.858 -2.8669  0.6742  1.5446
16102TIP3   OH269796   4.073   3.580   3.936 -0.4756 -0.0805 -0.0271
16102TIP3    H169797   4.091   3.666   3.972  0.1939  0.7482 -2.2015
16102TIP3    H269798   4.017   3.597   3.860 -0.7945 -1.6293 -0.1808
16103TIP3   OH269799   5.140   3.130   0.417 -0.8380  0.2098  0.2298
16103TIP3    H169800   5.145   3.133   0.321 -0.0265  0.8818  0.2793
16103TIP3    H269801   5.174   3.044   0.440 -0.6196  0.2127 -0.0706
16104TIP3   OH269802   0.132   4.459   5.139 -0.0101 -0.3968  0.1020
16104TIP3    H169803   0.082   4.456   5.220  0.1188 -0.0068  0.1994
16104TIP3    H269804   0.111   4.378   5.094 -0.4602 -0.3922  0.3028
16105TIP3   OH269805   6.369   0.032  11.086 -0.7122  0.0558  0.8490
16105TIP3    H169806   6.276   0.035  11.110 -0.7174 -0.4396  0.8988
16105TIP3    H269807   6.414   0.071  11.161 -0.7127 -1.6343  1.7852
16106TIP3   OH269808   4.625   1.527   3.498 -0.3868 -0.4189  0.1155
16106TIP3    H169809   4.717   1.526   3.524 -0.5073  0.5314  0.6669
16106TIP3    H269810   4.615   1.611   3.452 -0.6149 -1.2459 -1.3786
16107TIP3   OH269811   5.462   0.128   4.947 -0.2147  0.0014 -0.3381
16107TIP3    H169812   5.529   0.143   4.881  0.3446 -1.6106 -0.1883
16107TIP3    H269813   5.475   0.037   4.974 -2.7914 -0.5476 -0.6605
16108TIP3   OH269814   1.337   4.665   1.909 -0.5655 -0.1924  0.1042
16108TIP3    H169815   1.253   4.636   1.944 -1.2338  1.1535 -0.3362
16108TIP3    H269816   1.330   4.650   1.814 -0.3446  0.0240  0.0532
16109TIP3   OH269817   0.332   5.567   0.265 -0.7017 -0.2363  0.8660
16109TIP3    H169818   0.375   5.484   0.248  1.8971  1.2272 -0.3763
16109TIP3    H269819   0.343   5.581   0.359  3.0379  0.6565  0.4723
16110TIP3   OH269820   2.236   2.365   3.390  0.5199  0.1437  0.5041
16110TIP3    H169821   2.160   2.352   3.446  1.0507 -1.1225  0.9570
16110TIP3    H269822   2.213   2.442   3.337 -0.5228  0.5717  1.5282
16111TIP3   OH269823   3.832   2.095  13.355  0.6955 -0.4915  0.7485
16111TIP3    H169824   3.868   2.183  13.364  2.2498 -0.9100 -0.9173
16111TIP3    H269825   3.774   2.101  13.279  0.5585 -0.8483  0.8234
16112TIP3   OH269826   4.550   3.395   2.549  0.5371 -0.1874 -0.1608
16112TIP3    H169827   4.611   3.406   2.477  0.9265  0.4558  0.2660
16112TIP3    H269828   4.478   3.455   2.529  0.6246 -0.0406 -0.0330
16113TIP3   OH269829   1.047   6.648  14.429  0.1737 -0.6293 -0.1794
16113TIP3    H169830   0.965   6.608  14.398 -0.2747 -0.8598  1.2416
16113TIP3    H269831   1.075   6.703  14.356 -0.2655 -1.9555 -1.4137
16114TIP3   OH269832   6.035   3.917   3.359  0.2094  0.6148  0.3254
16114TIP3    H169833   5.966   3.859   3.390 -0.0389 -0.5685 -2.2120
16114TIP3    H269834   5.997   4.005   3.363 -0.8937  0.1472  0.3824
16115TIP3   OH269835   3.742   1.306  10.454  0.0137 -0.6629 -0.6246
16115TIP3    H169836   3.720   1.396  10.430 -0.7554 -0.6562  0.0477
16115TIP3    H269837   3.834   1.296  10.428  0.2374  0.4508 -0.3429
16116TIP3   OH269838   2.840   2.172  12.240  0.0937  0.0702 -0.1671
16116TIP3    H169839   2.841   2.192  12.146 -1.4746 -2.8394 -0.9191
16116TIP3    H269840   2.931   2.177  12.267  0.9267 -1.3208 -2.4384
16117TIP3   OH269841   6.274   4.255   2.701 -0.4739  0.2971  0.1278
16117TIP3    H169842   6.337   4.245   2.772 -0.1920 -1.1571 -0.2869
16117TIP3    H269843   6.234   4.341   2.716 -0.0808  0.2322  1.7412
16118TIP3   OH269844   6.243   4.779   5.680  0.1978  0.1164  0.3231
16118TIP3    H169845   6.148   4.773   5.669  0.1959 -0.6955  0.7199
16118TIP3    H269846   6.256   4.850   5.743  0.0235  2.2798 -1.9064
16119TIP3   OH269847   6.817   2.739  13.450 -0.0246 -0.5125  0.3354
16119TIP3    H169848   6.836   2.833  13.446  1.1330 -0.6512  1.6514
16119TIP3    H269849   6.759   2.730  13.525 -0.0562 -0.8653  0.2680
16120TIP3   OH269850   3.351   6.770   5.885  0.5415  0.0165 -0.4031
16120TIP3    H169851   3.436   6.811   5.896 -0.2521  1.3146  1.1818
16120TIP3    H269852   3.307   6.823   5.818 -0.3464  1.6422  1.3847
16121TIP3   OH269853   0.597   0.882   0.902 -0.4948 -0.6029 -0.1798
16121TIP3    H169854   0.633   0.799   0.870 -0.2816  0.1258 -1.9111
16121TIP3    H269855   0.566   0.927   0.823 -0.3595  1.0873  0.6950
16122TIP3   OH269856   4.800   1.114   1.227 -0.3642  0.4634  0.1703
16122TIP3    H169857   4.788   1.049   1.296  2.1976  2.3164  2.6370
16122TIP3    H269858   4.894   1.113   1.209 -0.2197  3.2778  0.2282
16123TIP3   OH269859   3.935   4.770   6.149  0.0152  0.5284 -0.1813
16123TIP3    H169860   3.939   4.686   6.194  0.5125  0.3362 -0.5664
16123TIP3    H269861   3.986   4.829   6.203  0.8961  0.2165 -0.6442
16124TIP3   OH269862   5.341   1.581   0.362 -0.3926 -0.3814 -0.0155
16124TIP3    H169863   5.430   1.616   0.358  0.8749 -3.3560 -0.4482
16124TIP3    H269864   5.300   1.609   0.280  0.3394  0.5167 -0.0874
16125TIP3   OH269865   2.262   6.480   3.096  0.3396 -0.0126  0.0338
16125TIP3    H169866   2.319   6.539   3.048 -0.9401 -0.5604 -2.3089
16125TIP3    H269867   2.174   6.501   3.064 -0.3328 -1.8916  0.5372
16126TIP3   OH269868   3.357   6.612  13.266  0.1563  0.0788  0.3864
16126TIP3    H169869   3.411   6.676  13.313 -0.1238  0.6889 -0.1119
16126TIP3    H269870   3.270   6.651  13.262 -0.1660 -0.5977  0.5840
16127TIP3   OH269871   4.892   1.223  15.340 -0.8730  0.2953 -0.6575
16127TIP3    H169872   4.958   1.169  15.382 -0.4588 -0.0050 -1.6651
16127TIP3    H269873   4.830   1.161  15.302 -0.3122  0.4702 -1.9535
16128TIP3   OH269874   5.578   2.248   4.937  0.4581  0.1419  0.1008
16128TIP3    H169875   5.638   2.322   4.951  1.0561 -0.4304  0.6582
16128TIP3    H269876   5.496   2.277   4.976  0.2753  1.0462 -0.9127
16129TIP3   OH269877   1.521   5.548  10.571 -0.5175  0.2633  0.0655
16129TIP3    H169878   1.524   5.507  10.657 -1.3357  0.1815  0.0666
16129TIP3    H269879   1.435   5.523  10.536 -0.6850  1.2702 -0.2776
16130TIP3   OH269880   1.646   6.652  11.769  0.2628  0.4059  0.0410
16130TIP3    H169881   1.673   6.612  11.686 -0.5739  0.7628 -0.4141
16130TIP3    H269882   1.723   6.644  11.826  1.1087  0.8284 -1.0108
16131TIP3   OH269883   5.009   5.642   3.453  0.1957  0.3112 -0.1449
16131TIP3    H169884   4.960   5.720   3.428  1.1528  0.7298 -0.7726
16131TIP3    H269885   5.001   5.583   3.378 -0.1468 -0.0119  0.1442
16132TIP3   OH269886   5.131   4.780  11.466 -0.2358  0.3761  0.1634
16132TIP3    H169887   5.045   4.778  11.425 -1.2449 -0.7725  2.1903
16132TIP3    H269888   5.188   4.733  11.404 -0.7416  2.1567 -1.7375
16133TIP3   OH269889   6.671   4.363  11.539  0.2079  0.1379 -0.2464
16133TIP3    H169890   6.653   4.271  11.520 -0.3074  0.0286  0.7169
16133TIP3    H269891   6.725   4.392  11.466 -0.0084 -0.8035 -0.8011
16134TIP3   OH269892   5.003   3.608  16.856 -0.1179 -0.1341 -0.7185
16134TIP3    H169893   5.013   3.518  16.886  1.2590  0.5339  1.0790
16134TIP3    H269894   5.076   3.621  16.795 -0.6411 -0.3766 -1.4086
16135TIP3   OH269895   0.401   3.684   1.209  0.5014 -0.0111 -0.1439
16135TIP3    H169896   0.445   3.737   1.143  2.0841 -0.3233  0.6009
16135TIP3    H269897   0.419   3.730   1.291  0.3167 -0.7125  0.2898
16136TIP3   OH269898   4.278   1.180  14.534 -1.0508  0.9236  0.7218
16136TIP3    H169899   4.316   1.266  14.517 -1.6430  0.7754 -1.8110
16136TIP3    H269900   4.304   1.127  14.458  0.2383 -1.5329  2.6930
16137TIP3   OH269901   4.977   0.669   0.739 -0.7899 -0.0734  0.6445
16137TIP3    H169902   5.003   0.752   0.779 -2.4186  0.1581  1.2985
16137TIP3    H269903   4.891   0.687   0.700  0.4119 -0.4630 -2.5009
16138TIP3   OH269904   3.100   5.259   1.571  0.1992  0.6063  0.0354
16138TIP3    H169905   3.019   5.240   1.525  0.8343  0.6657 -1.1259
16138TIP3    H269906   3.167   5.265   1.503  1.2994 -0.0222  1.0086
16139TIP3   OH269907   4.600   3.532  13.918 -0.0499 -0.2959 -0.4760
16139TIP3    H169908   4.589   3.458  13.860 -2.4655  0.1399 -0.6638
16139TIP3    H269909   4.530   3.523  13.983 -0.4760  1.8325 -0.5667
16140TIP3   OH269910   6.073   2.982   4.958 -0.0135 -0.4613  0.2717
16140TIP3    H169911   6.069   3.049   5.025 -0.1771 -0.2783  0.0806
16140TIP3    H269912   6.097   2.902   5.005  0.7852 -0.1476  0.4097
16141TIP3   OH269913   3.297   0.818  10.607 -0.4089 -0.2537 -0.4979
16141TIP3    H169914   3.203   0.834  10.617 -0.6180 -2.2487  1.7754
16141TIP3    H269915   3.302   0.731  10.566  0.4135 -0.5890  0.2927
16142TIP3   OH269916   3.164   2.077  16.237 -0.5018  0.0866 -0.0518
16142TIP3    H169917   3.198   2.062  16.149 -1.2727 -0.9336 -0.1969
16142TIP3    H269918   3.238   2.058  16.295  0.4977  2.3295 -0.5003
16143TIP3   OH269919   1.261   5.846   0.673  0.5145 -0.5070 -0.1279
16143TIP3    H169920   1.248   5.941   0.674  0.6261 -0.4962  0.2342
16143TIP3    H269921   1.342   5.834   0.624 -0.0062 -0.4817 -1.0246
16144TIP3   OH269922   0.879   1.295  13.740  0.1829 -0.2478  0.0357
16144TIP3    H169923   0.903   1.361  13.805 -1.3327 -0.8432  1.2541
16144TIP3    H269924   0.810   1.244  13.782 -0.1135 -1.3145 -1.6637
16145TIP3   OH269925   4.137   2.841  15.100 -0.0056  0.1775 -0.6354
16145TIP3    H169926   4.112   2.786  15.174 -0.1439 -0.4478 -1.1403
16145TIP3    H269927   4.179   2.781  15.039  1.6122  0.9583 -0.3647
16146TIP3   OH269928   0.850   5.596   5.469  0.3216  0.2744  0.5561
16146TIP3    H169929   0.835   5.685   5.502  3.2737  0.9988  0.2280
16146TIP3    H269930   0.855   5.542   5.548 -1.6650  0.2851  0.7515
16147TIP3   OH269931   0.919   4.483   4.880  1.0797  0.2577 -0.1799
16147TIP3    H169932   0.870   4.474   4.798  1.4964  0.3453 -0.4434
16147TIP3    H269933   0.974   4.560   4.866 -0.3593  1.5623  0.9667
16148TIP3   OH269934   0.169   3.095   0.766  0.4093 -0.5570  0.4977
16148TIP3    H169935   0.198   3.084   0.857  0.3768  1.5652  0.8258
16148TIP3    H269936   0.102   3.163   0.771 -0.6885 -1.4714 -0.9526
16149TIP3   OH269937   6.210   5.338   1.664 -0.4968  0.3425 -0.0752
16149TIP3    H169938   6.168   5.275   1.604 -1.3786  0.8074  0.0315
16149TIP3    H269939   6.176   5.314   1.750 -0.8613  0.9698 -0.0368
16150TIP3   OH269940   2.230   1.645  11.609 -0.3030  0.2186  0.6800
16150TIP3    H169941   2.160   1.688  11.561 -1.9833 -1.5986  1.3428
16150TIP3    H269942   2.237   1.695  11.690 -1.7937 -0.3071  1.1793
16151TIP3   OH269943   5.788   1.247  11.583  0.3496 -0.2874  0.9067
16151TIP3    H169944   5.798   1.270  11.491 -1.1541 -1.5566  0.3815
16151TIP3    H269945   5.800   1.329  11.630  1.0415  0.3971 -0.4181
16152TIP3   OH269946   4.550   1.067   0.117 -0.3581  0.2471  0.6414
16152TIP3    H169947   4.569   0.994   0.057  1.2347  0.9191  0.2732
16152TIP3    H269948   4.604   1.050   0.194  1.6698  2.0180 -0.2710
16153TIP3   OH269949   5.040   4.261   3.273 -0.1345 -0.4105  0.3426
16153TIP3    H169950   5.040   4.348   3.233  0.9594  0.0432  1.2494
16153TIP3    H269951   4.974   4.212   3.225 -0.3198  0.7298 -0.6125
16154TIP3   OH269952   5.057   2.051   1.180  0.3002 -0.0704 -0.2797
16154TIP3    H169953   5.143   2.023   1.148  1.2767  0.3745  1.7676
16154TIP3    H269954   5.023   1.976   1.227 -0.6710 -0.3875 -1.4331
16155TIP3   OH269955   4.065   1.837   1.148  0.0596 -0.3141  0.0325
16155TIP3    H169956   3.996   1.817   1.212 -0.9728  0.3567 -0.8330
16155TIP3    H269957   4.106   1.917   1.182  1.6696 -1.6884  1.5019
16156TIP3   OH269958   0.486   5.079  10.383 -0.0535  0.3009 -0.1999
16156TIP3    H169959   0.525   5.128  10.311  2.4668 -1.9202 -0.5328
16156TIP3    H269960   0.480   5.142  10.455  2.3400  1.3582 -0.8021
16157TIP3   OH269961   4.229   6.698  11.887  0.6252  0.7201 -0.0078
16157TIP3    H169962   4.237   6.677  11.795 -0.3255  1.0993 -0.1950
16157TIP3    H269963   4.298   6.762  11.904  0.4674  1.0482 -0.5884
16158TIP3   OH269964   0.918   0.318   5.229  0.0279 -0.3583 -0.4490
16158TIP3    H169965   0.836   0.368   5.235  0.9983  1.1575  1.0521
16158TIP3    H269966   0.929   0.280   5.316  0.9936 -0.4514 -0.6029
16159TIP3   OH269967   2.337   1.575  15.085  0.3159 -0.3992 -0.0897
16159TIP3    H169968   2.303   1.650  15.036 -3.0457 -1.7975 -0.1683
16159TIP3    H269969   2.390   1.527  15.022 -1.5578 -0.6376 -1.5569
16160TIP3   OH269970   2.642   1.973  17.077 -0.1961  0.0582 -0.6486
16160TIP3    H169971   2.668   1.881  17.078 -1.4707 -0.3563 -2.0842
16160TIP3    H269972   2.667   2.006  17.164  0.0524 -1.6975 -0.0132
16161TIP3   OH269973   2.673   1.789   4.099 -0.5083 -0.1265 -0.2374
16161TIP3    H169974   2.676   1.711   4.154  1.3292  0.8800  1.1987
16161TIP3    H269975   2.764   1.817   4.091 -0.8242  0.4436 -2.8910
16162TIP3   OH269976   5.995   3.025   1.091  0.1873  0.4576 -0.4320
16162TIP3    H169977   6.008   3.085   1.165  1.5485 -0.9082  0.4940
16162TIP3    H269978   5.988   2.939   1.132  3.5891 -0.6946 -1.9525
16163TIP3   OH269979   2.911   0.546  13.046 -0.3537  0.7198  0.1458
16163TIP3    H169980   2.948   0.505  12.968 -1.4122  0.7338 -0.3765
16163TIP3    H269981   2.816   0.540  13.034 -0.5600  2.7768  0.3105
16164TIP3   OH269982   3.054   0.347  14.107 -0.7027  0.3346 -0.0857
16164TIP3    H169983   3.108   0.367  14.184 -1.5029  0.4957  0.4496
16164TIP3    H269984   3.095   0.269  14.069 -1.0562 -0.5445  1.2708
16165TIP3   OH269985   2.855   5.576   5.008  0.2525  0.2242 -0.8024
16165TIP3    H169986   2.913   5.500   5.015 -0.4661 -0.2238  0.4314
16165TIP3    H269987   2.891   5.626   4.933  0.4973 -1.5005 -1.8855
16166TIP3   OH269988   0.446   5.966  13.083 -0.5596  0.1076 -0.2803
16166TIP3    H169989   0.423   6.001  12.997 -4.1260 -1.9627 -0.3297
16166TIP3    H269990   0.424   6.037  13.144  0.1817  0.8820 -0.8837
16167TIP3   OH269991   5.791   4.882   2.966 -0.1224 -0.1231  0.2980
16167TIP3    H169992   5.717   4.882   3.027  0.3416 -2.6737  0.9564
16167TIP3    H269993   5.845   4.808   2.993  2.1608  1.0216 -0.8243
16168TIP3   OH269994   6.430   0.691  14.975  0.4669 -0.6407 -0.1373
16168TIP3    H169995   6.336   0.708  14.982  0.4702  0.4248 -1.9800
16168TIP3    H269996   6.443   0.608  15.022 -1.2101 -0.3297  0.9453
16169TIP3   OH269997   3.554   5.615   2.685  0.1960  0.0375  0.1314
16169TIP3    H169998   3.470   5.574   2.664  0.0098  0.9047 -0.8856
16169TIP3    H269999   3.619   5.547   2.668 -0.2587 -0.4823  0.4426
16170TIP3   OH270000   3.248   4.275   4.473  0.0286 -0.5935 -0.4161
16170TIP3    H170001   3.176   4.331   4.500  2.2513  3.0165 -1.3306
16170TIP3    H270002   3.277   4.233   4.554 -2.8679 -2.0903 -0.0022
16171TIP3   OH270003   2.374   4.149  14.958  0.0518 -0.0336 -0.2198
16171TIP3    H170004   2.442   4.207  14.922  0.4196  1.1077  2.1354
16171TIP3    H270005   2.418   4.065  14.970  1.2653  0.8129  1.7090
16172TIP3   OH270006   6.613   3.357  13.562  0.4397  0.6061 -0.4238
16172TIP3    H170007   6.583   3.425  13.623  2.1534  1.6883 -0.7058
16172TIP3    H270008   6.706   3.347  13.582  0.6524 -0.2403 -1.7382
16173TIP3   OH270009   2.024   6.571  15.840 -0.2787  0.0740  0.4414
16173TIP3    H170010   2.108   6.539  15.873  1.3336  0.9672 -2.4985
16173TIP3    H270011   1.964   6.497  15.852  1.2244 -1.0301  1.4572
16174TIP3   OH270012   3.306   5.057  13.971 -0.4190  0.0111  0.1386
16174TIP3    H170013   3.396   5.029  13.988 -0.2184  0.2855 -0.4321
16174TIP3    H270014   3.314   5.117  13.897 -0.9303  0.9658  0.8394
16175TIP3   OH270015   6.564   1.343  16.004  0.0530 -0.8716  0.0548
16175TIP3    H170016   6.577   1.250  16.026  0.9242 -0.4923  1.2439
16175TIP3    H270017   6.469   1.355  16.009 -0.0085 -1.5205  0.6938
16176TIP3   OH270018   6.492   1.264  14.762 -0.0146 -0.5263 -0.4939
16176TIP3    H170019   6.412   1.300  14.723 -1.9023 -1.0477  2.5524
16176TIP3    H270020   6.511   1.186  14.711 -0.0577  0.7976 -2.6736
16177TIP3   OH270021   5.505   3.834  14.850  0.1791 -1.1094  0.1978
16177TIP3    H170022   5.417   3.852  14.816 -0.2511 -0.9713  1.3182
16177TIP3    H270023   5.531   3.916  14.892  1.0798 -0.9779 -0.5979
16178TIP3   OH270024   2.126   5.874   2.730 -0.1653 -0.3045 -0.0894
16178TIP3    H170025   2.032   5.892   2.738 -0.2474 -0.2199 -1.0798
16178TIP3    H270026   2.135   5.831   2.645  0.7152 -0.1385 -0.0888
16179TIP3   OH270027   5.365   1.918   3.169  0.2328  0.2054  0.0793
16179TIP3    H170028   5.330   1.832   3.191 -2.0550  0.7812 -0.9373
16179TIP3    H270029   5.288   1.970   3.144  1.6617  2.1627 -0.5875
16180TIP3   OH270030   2.286   3.884   5.653 -0.2753 -0.3658  0.4463
16180TIP3    H170031   2.333   3.860   5.733 -0.0706 -0.6937  0.2317
16180TIP3    H270032   2.353   3.920   5.595 -0.5593  0.6083  0.7142
16181TIP3   OH270033   1.845   0.820   2.803 -0.1743 -0.0948  0.3706
16181TIP3    H170034   1.880   0.909   2.809  1.0201 -0.4677 -0.5993
16181TIP3    H270035   1.805   0.816   2.717  2.3373 -1.3054 -0.8494
16182TIP3   OH270036   2.644   4.789   0.266 -0.0316 -0.2422  0.0159
16182TIP3    H170037   2.568   4.733   0.244  0.7683 -1.3766  0.0452
16182TIP3    H270038   2.626   4.871   0.221 -1.5650 -0.2739  0.4904
16183TIP3   OH270039   5.635   1.820   4.275  0.1872  0.3533 -0.3561
16183TIP3    H170040   5.697   1.800   4.345  0.3659  0.5598 -0.4568
16183TIP3    H270041   5.638   1.915   4.266 -0.1560  0.3654 -0.3518
16184TIP3   OH270042   6.222   3.100   0.446 -0.0750 -0.0660  0.1516
16184TIP3    H170043   6.313   3.117   0.422 -0.0920 -0.3399 -0.1101
16184TIP3    H270044   6.226   3.072   0.537  0.0699  0.2213  0.2361
16185TIP3   OH270045   4.946   2.557   4.459 -0.2416 -0.0626  0.5076
16185TIP3    H170046   4.982   2.618   4.523  1.4079 -0.5696  0.1216
16185TIP3    H270047   4.974   2.593   4.374  0.7196 -1.3099  0.2771
16186TIP3   OH270048   3.753   3.965   0.719  0.0532  0.2581 -0.4661
16186TIP3    H170049   3.777   4.053   0.690 -0.1106  0.8448  1.0895
16186TIP3    H270050   3.695   3.932   0.650  2.0767  0.3438 -2.3258
16187TIP3   OH270051   0.407   2.881   5.025 -0.1282  0.0893  0.4174
16187TIP3    H170052   0.460   2.879   4.945 -0.1117 -0.4918  0.4399
16187TIP3    H270053   0.453   2.942   5.082  0.8142 -0.8102  0.6379
16188TIP3   OH270054   0.225   0.043   1.731 -0.5366 -0.1267 -0.1826
16188TIP3    H170055   0.148   0.066   1.678 -0.2157 -2.1402 -1.6600
16188TIP3    H270056   0.297   0.094   1.693 -0.9317  1.1035  0.6485
16189TIP3   OH270057   0.327   6.397   5.297  0.3802 -0.2181 -0.8158
16189TIP3    H170058   0.279   6.322   5.262  0.9419 -1.3263  0.6470
16189TIP3    H270059   0.414   6.363   5.316  0.7907  0.9371 -0.5550
16190TIP3   OH270060   0.696   2.811  15.639  0.1249 -0.3860 -0.4874
16190TIP3    H170061   0.721   2.734  15.587  0.8333  1.1517 -2.5640
16190TIP3    H270062   0.681   2.777  15.727  1.3028 -2.7602 -1.1264
16191TIP3   OH270063   3.598   1.672   1.405 -0.4648  0.5582 -0.0586
16191TIP3    H170064   3.687   1.685   1.438 -0.6761 -0.2105  0.8869
16191TIP3    H270065   3.570   1.758   1.376  1.4234  0.4278 -2.6343
16192TIP3   OH270066   2.204   5.690   1.869  0.1638  0.1263  0.1652
16192TIP3    H170067   2.299   5.698   1.868  0.4955 -1.9566  2.9639
16192TIP3    H270068   2.186   5.618   1.808 -0.0079  2.3132 -2.5394
16193TIP3   OH270069   5.561   5.891  14.511 -0.1290 -0.2489 -0.4685
16193TIP3    H170070   5.472   5.905  14.478 -0.5329  1.1512  1.0827
16193TIP3    H270071   5.579   5.799  14.493 -1.2207 -0.1541 -2.3372
16194TIP3   OH270072   1.059   3.685  14.007  0.3222 -0.4257  1.2027
16194TIP3    H170073   1.135   3.677  14.065 -0.6291 -1.4078  2.3685
16194TIP3    H270074   1.072   3.616  13.942  0.4091 -0.6208  1.4238
16195TIP3   OH270075   0.678   4.097   0.391 -0.0455 -0.2893 -0.4265
16195TIP3    H170076   0.591   4.082   0.428 -1.5083  1.4121 -2.8605
16195TIP3    H270077   0.695   4.018   0.339  0.6247 -1.3008  1.2461
16196TIP3   OH270078   1.470   5.923  12.736 -0.1985 -0.0496  0.6313
16196TIP3    H170079   1.398   5.965  12.689  0.9522  1.5140  0.1833
16196TIP3    H270080   1.517   5.995  12.778 -0.0547 -1.2261  2.6063
16197TIP3   OH270081   6.632   5.506   4.414  0.7744 -0.5850  0.2306
16197TIP3    H170082   6.690   5.508   4.490  1.5430 -1.9599 -0.2694
16197TIP3    H270083   6.588   5.591   4.414  2.0265  0.0935  1.2230
16198TIP3   OH270084   4.996   1.715  12.625 -0.2456 -0.7895  0.3342
16198TIP3    H170085   5.028   1.626  12.611  0.5492 -0.4711  0.0755
16198TIP3    H270086   5.073   1.771  12.612 -1.0829  0.0771 -1.2667
16199TIP3   OH270087   3.665   5.417   6.183  0.5230 -0.1534 -0.3901
16199TIP3    H170088   3.705   5.450   6.103 -1.1209  1.5495 -0.5731
16199TIP3    H270089   3.725   5.444   6.253  0.6307  0.7729 -0.8199
16200TIP3   OH270090   2.859   5.865   4.416  0.7248 -0.3413  0.1907
16200TIP3    H170091   2.903   5.844   4.499  2.2175 -0.2537 -0.5453
16200TIP3    H270092   2.854   5.782   4.370  0.6904 -0.2343  0.0026
16201TIP3   OH270093   2.516   1.125  13.491  0.6320 -0.6923 -0.0594
16201TIP3    H170094   2.582   1.193  13.505 -1.2707  1.0526  0.9483
16201TIP3    H270095   2.486   1.101  13.579 -3.2585  1.9563 -0.4348
16202TIP3   OH270096   2.613   2.865   1.635  0.6000  0.2211  0.0217
16202TIP3    H170097   2.701   2.887   1.604  0.7363  0.1182  0.3285
16202TIP3    H270098   2.554   2.901   1.569  0.8869 -0.0335 -0.3810
16203TIP3   OH270099   1.977   5.388   0.859  0.1733  0.1645 -0.0081
16203TIP3    H170100   2.051   5.335   0.889 -0.9367 -1.1964  0.4494
16203TIP3    H270101   1.920   5.396   0.935 -0.6890  0.2271 -0.6444
16204TIP3   OH270102   2.264   0.497   2.624  0.3819 -0.4744  0.5655
16204TIP3    H170103   2.237   0.518   2.714  1.3756  1.1187  0.5302
16204TIP3    H270104   2.182   0.497   2.574  0.1163  2.2108  0.8483
16205TIP3   OH270105   0.628   0.397  15.675  0.4088  0.5365  0.4249
16205TIP3    H170106   0.673   0.313  15.669  0.5569  0.3788  2.9156
16205TIP3    H270107   0.690   0.454  15.720 -0.3149  1.5355  0.1787
16206TIP3   OH270108   0.156   6.079  16.127 -0.2132 -0.0820 -0.3508
16206TIP3    H170109   0.215   6.108  16.196  1.0136  1.4145 -1.9635
16206TIP3    H270110   0.151   5.984  16.138  1.8239 -0.1488  0.3602
16207TIP3   OH270111   4.922   2.960  14.258 -0.5438 -0.0315  0.0203
16207TIP3    H170112   4.945   3.007  14.338  0.1609 -0.2699 -0.0405
16207TIP3    H270113   4.847   3.009  14.222 -1.5166 -0.5055  1.3326
16208TIP3   OH270114   3.885   5.829  17.162 -0.5478  0.3106  0.2944
16208TIP3    H170115   3.882   5.786  17.077 -1.1152  1.3539 -0.2376
16208TIP3    H270116   3.903   5.759  17.225 -2.7809 -0.9262 -0.3585
16209TIP3   OH270117   4.014   5.931  12.372  0.0983  0.0451  0.0045
16209TIP3    H170118   3.964   5.925  12.454  0.5174  2.0847  0.4727
16209TIP3    H270119   3.947   5.942  12.304 -0.2250 -1.0100  0.1410
16210TIP3   OH270120   1.579   2.060   0.645 -0.2660 -0.5096  0.6294
16210TIP3    H170121   1.553   2.124   0.579  0.8799 -0.6007  0.0694
16210TIP3    H270122   1.529   2.084   0.723  0.7577  1.6011  0.6931
16211TIP3   OH270123   1.741   4.984   0.830 -0.0075 -0.1898  0.0576
16211TIP3    H170124   1.744   5.070   0.872  0.0905  0.9465 -2.1278
16211TIP3    H270125   1.809   4.934   0.874  0.7356  1.2390  0.6098
16212TIP3   OH270126   1.814   6.270  10.988 -0.5217  0.1186  0.7544
16212TIP3    H170127   1.896   6.320  10.977 -0.4814  0.7408  3.2041
16212TIP3    H270128   1.747   6.326  10.948 -0.1677  1.1324  1.5249
16213TIP3   OH270129   0.338   0.287  11.145  0.7448  0.0803  0.2276
16213TIP3    H170130   0.243   0.297  11.138  0.7735  0.8558  0.8263
16213TIP3    H270131   0.370   0.299  11.055  0.3689  0.9546  0.1970
16214TIP3   OH270132   5.319   0.032  12.507 -0.0933 -0.0465  0.3641
16214TIP3    H170133   5.381   0.095  12.545 -1.9822  1.8251  0.5470
16214TIP3    H270134   5.333   0.039  12.413  0.6312 -0.3846  0.4375
16215TIP3   OH270135   4.267   0.317  13.676  0.1146 -0.3159  0.2403
16215TIP3    H170136   4.195   0.376  13.698 -0.6206 -0.2346 -2.1188
16215TIP3    H270137   4.241   0.277  13.593  1.8539 -1.8961  0.3919
16216TIP3   OH270138   0.434   5.256  17.122 -0.4797 -0.6331  0.1700
16216TIP3    H170139   0.424   5.290  17.033 -1.5766  0.3342  0.6304
16216TIP3    H270140   0.345   5.254  17.157 -0.1288 -1.5576  1.0522
16217TIP3   OH270141   0.359   6.175   5.646  0.9049 -0.0226 -0.6997
16217TIP3    H170142   0.271   6.154   5.613  1.9023 -1.0354 -2.9354
16217TIP3    H270143   0.364   6.270   5.641 -0.0293  0.0400 -0.6638
16218TIP3   OH270144   4.712   1.176   5.473  0.4130 -0.4607  0.5040
16218TIP3    H170145   4.673   1.150   5.389 -1.1663 -0.1470  1.1163
16218TIP3    H270146   4.655   1.138   5.539  0.5553  0.8758  1.4360
16219TIP3   OH270147   0.733   3.549   0.323  0.4058  0.1194 -0.1851
16219TIP3    H170148   0.679   3.588   0.254  0.5841 -0.3174 -0.5709
16219TIP3    H270149   0.813   3.601   0.322  1.3146 -1.2121 -1.7825
16220TIP3   OH270150   5.730   0.497   2.259 -0.2729 -0.3637  0.3836
16220TIP3    H170151   5.701   0.405   2.256  0.2975 -0.5299 -1.6153
16220TIP3    H270152   5.749   0.518   2.168 -2.1935  2.3360  0.5001
16221TIP3   OH270153   2.982   1.570   0.376 -0.3296 -0.6125  0.2742
16221TIP3    H170154   2.943   1.549   0.461 -1.5651 -0.0198 -0.1254
16221TIP3    H270155   3.029   1.490   0.352  1.7125 -0.1673  2.3683
16222TIP3   OH270156   2.084   5.075   6.057 -0.0538  0.1039  0.2912
16222TIP3    H170157   2.056   5.048   6.145  0.5266 -2.1396 -0.1417
16222TIP3    H270158   2.129   4.998   6.022 -1.1320  0.5708 -2.3491
16223TIP3   OH270159   1.439   1.852   6.226  0.1790  0.1233 -0.3440
16223TIP3    H170160   1.356   1.897   6.243 -0.0321  0.6823 -2.4941
16223TIP3    H270161   1.414   1.762   6.204  0.4434 -0.5844  2.0511
16224TIP3   OH270162   0.204   2.571   3.023 -0.0955 -0.8621 -0.2127
16224TIP3    H170163   0.152   2.497   3.054 -0.3805 -0.3042  0.6813
16224TIP3    H270164   0.286   2.532   2.992  0.1752 -1.4585  1.1982
16225TIP3   OH270165   1.243   2.104  13.437  0.0481  0.3657  0.1258
16225TIP3    H170166   1.216   2.012  13.444  0.2345  0.3240  0.2875
16225TIP3    H270167   1.190   2.149  13.503 -1.7149  0.7554 -1.4371
16226TIP3   OH270168   3.686   1.929  15.413 -1.0590 -0.1366  0.2764
16226TIP3    H170169   3.728   1.888  15.337 -1.2867  0.9487 -0.4572
16226TIP3    H270170   3.722   1.882  15.488 -2.0806 -2.3499 -0.5596
16227TIP3   OH270171   4.557   1.665   3.276 -0.1273 -0.2942  0.2567
16227TIP3    H170172   4.534   1.604   3.205 -1.6195  1.2647 -0.6551
16227TIP3    H270173   4.618   1.727   3.235  0.4562 -0.4485  0.8692
16228TIP3   OH270174   2.399   5.356  11.833  0.1620  0.2147 -0.2532
16228TIP3    H170175   2.442   5.326  11.753  1.6082  0.7620  0.2938
16228TIP3    H270176   2.305   5.344  11.816  0.5470 -2.6413 -0.8332
16229TIP3   OH270177   5.359   6.000  13.408  0.1067  0.0856 -0.1746
16229TIP3    H170178   5.317   6.047  13.336 -1.3262 -1.2280 -0.2449
16229TIP3    H270179   5.451   5.993  13.380 -0.6108 -1.3772 -2.4914
16230TIP3   OH270180   0.383   3.020   1.888  0.6613 -0.2883 -0.5651
16230TIP3    H170181   0.458   3.029   1.946 -0.0787  0.0125  0.3735
16230TIP3    H270182   0.394   2.933   1.848  0.9451 -0.7092  0.3930
16231TIP3   OH270183   6.199   4.041   2.417 -0.2295  0.1397 -0.0236
16231TIP3    H170184   6.185   3.947   2.427 -1.5889  0.4756  1.6500
16231TIP3    H270185   6.133   4.082   2.474  0.6417  2.0940 -0.3282
16232TIP3   OH270186   1.571   1.378   5.647  0.4397 -0.0942  0.0952
16232TIP3    H170187   1.555   1.466   5.682 -0.0621 -0.6422  1.3214
16232TIP3    H270188   1.652   1.350   5.690 -1.0525 -1.4264  2.2477
16233TIP3   OH270189   1.968   1.876  13.181  0.0285  0.2203  0.4043
16233TIP3    H170190   1.884   1.882  13.136 -0.3710 -0.5870  1.0227
16233TIP3    H270191   1.948   1.833  13.265  0.9346  0.6754  0.8729
16234TIP3   OH270192   2.721   6.460   1.809 -0.3412 -0.6017 -0.0384
16234TIP3    H170193   2.665   6.494   1.739  0.5242 -0.8923 -0.9027
16234TIP3    H270194   2.693   6.507   1.888 -1.3496 -0.2769 -0.5743
16235TIP3   OH270195   5.823   1.842   1.786  0.2345 -1.1542 -0.5438
16235TIP3    H170196   5.878   1.916   1.811  0.4949 -0.8294 -1.9971
16235TIP3    H270197   5.826   1.783   1.862  2.1228 -0.8844 -0.3729
16236TIP3   OH270198   1.622   3.917   6.256  0.2636  0.4069  0.0610
16236TIP3    H170199   1.691   3.984   6.258  1.3689 -0.6896  0.7136
16236TIP3    H270200   1.554   3.954   6.201  0.3698  2.5120  1.2283
16237TIP3   OH270201   0.203   4.856  12.610  0.8251 -0.1945  0.0038
16237TIP3    H170202   0.205   4.761  12.595  0.8494 -0.0224 -1.1646
16237TIP3    H270203   0.147   4.866  12.687  2.5743 -1.2923  1.5197
16238TIP3   OH270204   1.389   3.263   2.406 -0.1567  0.5397  0.6924
16238TIP3    H170205   1.450   3.261   2.333  0.1921 -1.0654  0.9806
16238TIP3    H270206   1.341   3.180   2.400 -0.7155  0.7521  1.7892
16239TIP3   OH270207   4.456   5.775   2.671  0.0778 -0.0319 -0.0469
16239TIP3    H170208   4.379   5.788   2.616 -1.4321 -0.9037  1.7578
16239TIP3    H270209   4.504   5.857   2.664 -1.2494  0.7179 -0.8464
16240TIP3   OH270210   5.651   5.761   4.690  0.0177  0.3500  0.0669
16240TIP3    H170211   5.591   5.734   4.621  0.6526  0.6835 -0.6410
16240TIP3    H270212   5.693   5.680   4.719  0.3917  0.3011 -0.5756
16241TIP3   OH270213   0.603   6.748   5.206  0.3544 -0.2999  0.1493
16241TIP3    H170214   0.661   6.711   5.139 -0.4324  0.8681 -1.2303
16241TIP3    H270215   0.584   6.675   5.264 -0.8501 -2.0224 -2.2493
16242TIP3   OH270216   1.676   3.869  13.441  0.0190  0.7698 -0.2054
16242TIP3    H170217   1.685   3.816  13.362  0.9226 -0.2840  0.5586
16242TIP3    H270218   1.627   3.946  13.414 -1.2319 -0.4044 -1.3919
16243TIP3   OH270219   3.105   5.352  15.661  0.4671  0.2444 -0.2039
16243TIP3    H170220   3.194   5.318  15.672  0.0559 -1.6455 -2.0337
16243TIP3    H270221   3.049   5.282  15.692 -0.4793  2.0711  2.5589
16244TIP3   OH270222   2.037   1.243  13.001  0.4303  0.3897  0.0088
16244TIP3    H170223   2.047   1.204  12.914 -1.1789  0.4431 -0.2376
16244TIP3    H270224   1.994   1.174  13.053 -1.6627  1.4694 -0.1915
16245TIP3   OH270225   4.739   4.774   1.537 -0.2867  0.3159 -0.2782
16245TIP3    H170226   4.807   4.748   1.474  2.8849  2.9770  1.6944
16245TIP3    H270227   4.684   4.835   1.489 -1.3761 -1.7860 -1.8898
16246TIP3   OH270228   2.200   5.998  12.616 -0.3601  0.1429  0.6817
16246TIP3    H170229   2.205   5.933  12.686  1.5742  0.8634  1.2643
16246TIP3    H270230   2.286   5.994  12.573 -0.3021  2.0843  0.5469
16247TIP3   OH270231   2.341   4.908  13.900 -0.2743  0.0300 -0.5554
16247TIP3    H170232   2.269   4.902  13.962 -0.2272 -0.2365 -0.5240
16247TIP3    H270233   2.408   4.958  13.945 -0.2454 -0.1515 -0.3953
16248TIP3   OH270234   6.088   4.061   1.196 -0.1303  0.0974  0.2210
16248TIP3    H170235   6.098   3.967   1.184 -1.2467 -0.2809  1.8863
16248TIP3    H270236   6.028   4.070   1.270 -0.8053  2.1175 -0.4697
16249TIP3   OH270237   2.233   0.782   5.229 -0.3428  0.1334  0.3234
16249TIP3    H170238   2.327   0.795   5.211  0.3111 -2.4617  1.3716
16249TIP3    H270239   2.196   0.754   5.146  0.3628 -1.1854  0.4275
16250TIP3   OH270240   6.195   2.395   2.441 -0.4976  0.5168 -0.4705
16250TIP3    H170241   6.283   2.424   2.464 -0.1135 -0.4953 -0.6014
16250TIP3    H270242   6.155   2.373   2.525 -0.1429 -0.3144 -0.5102
16251TIP3   OH270243   2.417   1.062   5.134  0.3900 -0.1175  0.1312
16251TIP3    H170244   2.343   1.028   5.083 -0.9967  0.2864  1.7472
16251TIP3    H270245   2.406   1.021   5.220  1.9058  0.1896  0.4925
16252TIP3   OH270246   4.027   0.730  16.396  0.6964  0.6275  0.0568
16252TIP3    H170247   4.101   0.675  16.372 -0.2445 -0.3119 -0.7692
16252TIP3    H270248   3.952   0.691  16.351 -0.2447  1.7624  0.5867
16253TIP3   OH270249   2.989   2.019   3.806 -0.0464  0.4060  0.0687
16253TIP3    H170250   2.952   1.950   3.750  0.8433  0.1883 -0.2638
16253TIP3    H270251   2.927   2.091   3.798 -1.5537 -0.6734  1.2218
16254TIP3   OH270252   6.791   0.636  15.796  0.2034  0.5263  0.0134
16254TIP3    H170253   6.816   0.546  15.816 -2.0150 -0.1932 -0.2294
16254TIP3    H270254   6.815   0.648  15.704 -2.7818 -1.1359 -1.1030
16255TIP3   OH270255   4.133   0.291   1.332  0.1782  0.3977  0.1821
16255TIP3    H170256   4.196   0.291   1.260 -0.7830  0.0892 -0.6979
16255TIP3    H270257   4.176   0.340   1.402  0.4439  2.3685 -1.2502
16256TIP3   OH270258   3.285   3.510  13.262  0.6055 -0.8286 -0.4849
16256TIP3    H170259   3.224   3.548  13.198  0.9167 -0.2250 -0.4249
16256TIP3    H270260   3.360   3.568  13.261  0.4074 -0.5302  0.7908
16257TIP3   OH270261   1.659   3.551   5.717  0.0939  0.6294 -0.1912
16257TIP3    H170262   1.580   3.499   5.701  0.6177 -0.6044  0.9914
16257TIP3    H270263   1.729   3.501   5.675  0.6046  0.3327  0.9544
16258TIP3   OH270264   2.343   5.399   5.549 -0.4274 -0.0490 -0.1836
16258TIP3    H170265   2.300   5.476   5.587 -1.5884 -1.0062  0.5413
16258TIP3    H270266   2.418   5.383   5.606  0.0475  0.7502 -0.5625
16259TIP3   OH270267   4.502   1.122   1.801 -0.2510  0.3540  0.2652
16259TIP3    H170268   4.591   1.124   1.836  0.7865 -0.7650 -2.0989
16259TIP3    H270269   4.494   1.203   1.752 -0.3769  0.2354  0.0902
16260TIP3   OH270270   2.686   2.244  13.661  0.4389 -0.3808  0.1313
16260TIP3    H170271   2.604   2.264  13.707  0.8447  2.2038 -0.0881
16260TIP3    H270272   2.672   2.159  13.621 -1.5927 -0.6575  1.3123
16261TIP3   OH270273   4.348   1.139   5.124 -1.0973 -0.5559  0.3305
16261TIP3    H170274   4.347   1.212   5.186  1.5906 -0.5097  0.4704
16261TIP3    H270275   4.396   1.172   5.048  1.8254 -2.5174  1.1011
16262TIP3   OH270276   2.206   1.899   0.097 -0.3287 -0.6992 -0.0896
16262TIP3    H170277   2.194   1.831   0.031  0.0530  0.1755 -1.0879
16262TIP3    H270278   2.299   1.893   0.121  0.2610  0.8187 -1.7618
16263TIP3   OH270279   6.135   4.426   1.748  0.0983  0.0819  0.0702
16263TIP3    H170280   6.058   4.483   1.759  0.2679  0.2335  0.4794
16263TIP3    H270281   6.118   4.352   1.806  0.2497  0.1036  0.1408
16264TIP3   OH270282   4.259   0.657  15.599 -0.2325 -0.2357 -0.3513
16264TIP3    H170283   4.317   0.732  15.584  1.2438 -0.9880  1.2666
16264TIP3    H270284   4.171   0.691  15.581  0.5050  1.4978 -0.9548
16265TIP3   OH270285   5.519   2.958   3.332  0.3762  0.0372  1.1299
16265TIP3    H170286   5.556   3.046   3.335 -1.2736  1.2937 -4.2062
16265TIP3    H270287   5.591   2.903   3.300  0.8226 -0.2202  2.4920
16266TIP3   OH270288   1.287   1.372  14.494 -0.0335 -0.3879  0.2250
16266TIP3    H170289   1.228   1.299  14.510 -1.7236  0.3034 -2.2161
16266TIP3    H270290   1.370   1.331  14.470 -0.4176 -1.4594  0.6512
16267TIP3   OH270291   6.531   6.647   4.688  0.3913 -0.4773  0.4523
16267TIP3    H170292   6.516   6.606   4.602  0.4244 -0.1811  0.3029
16267TIP3    H270293   6.626   6.657   4.693  0.4075 -0.7365  0.6365
16268TIP3   OH270294   4.429   4.438   6.406  0.5836  0.1188 -0.4429
16268TIP3    H170295   4.363   4.389   6.357 -0.2399  1.0177 -0.2579
16268TIP3    H270296   4.472   4.373   6.461 -2.0452 -0.0746  1.5223
16269TIP3   OH270297   3.822   1.803  15.191 -0.3613  0.3608  0.0279
16269TIP3    H170298   3.764   1.727  15.184  0.4071 -0.2850  0.6221
16269TIP3    H270299   3.798   1.858  15.116 -0.1324 -1.0072 -1.0824
16270TIP3   OH270300   1.736   1.029   1.460 -0.0876 -0.0854  0.1685
16270TIP3    H170301   1.681   1.045   1.537  0.2720  0.4799  0.3091
16270TIP3    H270302   1.826   1.027   1.494  0.2894  2.2730 -0.5082
16271TIP3   OH270303   5.474   3.465  16.361  0.2786  0.0673  0.1234
16271TIP3    H170304   5.569   3.460  16.357  0.2284 -3.4793  0.4973
16271TIP3    H270305   5.456   3.530  16.429  2.4934 -0.4531  1.2978
16272TIP3   OH270306   1.554   3.074   0.518 -0.0914  0.0440  0.0436
16272TIP3    H170307   1.482   3.109   0.465  0.4002  2.9371  1.1184
16272TIP3    H270308   1.537   3.107   0.606  3.8675  3.2363 -0.1346
16273TIP3   OH270309   6.021   3.357   5.823  0.4700 -0.4068 -0.2216
16273TIP3    H170310   6.058   3.273   5.847 -0.8024 -1.8433 -2.8659
16273TIP3    H270311   6.062   3.379   5.739  0.1126  1.1661 -0.0130
16274TIP3   OH270312   5.651   0.156  13.412  0.7592  0.1731 -0.4859
16274TIP3    H170313   5.605   0.077  13.439  3.8255 -2.7633 -2.9297
16274TIP3    H270314   5.625   0.169  13.320  1.4807  1.0603 -0.5800
16275TIP3   OH270315   4.720   2.264   4.636 -0.5291 -0.4864  0.2259
16275TIP3    H170316   4.797   2.285   4.582 -0.9364  0.4053 -0.0140
16275TIP3    H270317   4.736   2.173   4.664  1.7043  0.3572  2.0171
16276TIP3   OH270318   5.751   5.702   5.236  0.2573  0.1859 -0.0980
16276TIP3    H170319   5.702   5.761   5.294 -1.3128 -1.3154  0.1781
16276TIP3    H270320   5.704   5.705   5.153  0.1607 -0.6553 -0.0855
16277TIP3   OH270321   3.041   1.172   6.003 -0.6604  0.0787  0.5212
16277TIP3    H170322   3.112   1.140   6.058 -1.2378 -0.5918  0.8986
16277TIP3    H270323   2.968   1.185   6.064 -1.0176  0.2516  0.0597
16278TIP3   OH270324   4.822   5.799  12.070  0.5773 -0.0739 -0.4556
16278TIP3    H170325   4.727   5.787  12.069  0.5139  0.1246  0.8625
16278TIP3    H270326   4.838   5.872  12.011  0.0758 -1.0124 -1.8106
16279TIP3   OH270327   3.971   5.114   0.351 -0.2568 -0.3662 -0.1534
16279TIP3    H170328   4.023   5.043   0.314 -0.9807 -1.4192  0.7792
16279TIP3    H270329   3.910   5.070   0.411 -1.1262  0.9873 -0.0094
16280TIP3   OH270330   1.712   4.015   3.642  0.7823 -0.5451 -0.6962
16280TIP3    H170331   1.716   4.057   3.727  1.0591 -0.4496 -0.7544
16280TIP3    H270332   1.732   4.085   3.580  0.6670 -0.6331 -0.8333
16281TIP3   OH270333   6.155   1.066   2.195 -0.0200 -0.4252  0.4006
16281TIP3    H170334   6.082   1.059   2.133 -0.7543  0.1644  1.1848
16281TIP3    H270335   6.182   1.157   2.190  0.0237 -0.4126  0.8318
16282TIP3   OH270336   0.540   1.734   3.931 -0.1417  0.2907 -0.0448
16282TIP3    H170337   0.623   1.733   3.881 -0.3724 -1.0724 -0.4372
16282TIP3    H270338   0.533   1.646   3.968 -0.8612  0.7502  0.9536
16283TIP3   OH270339   4.567   3.454  10.589  0.4772  0.0599  0.1145
16283TIP3    H170340   4.492   3.410  10.548  0.1541  0.3421  0.3972
16283TIP3    H270341   4.562   3.544  10.558  0.5808  0.1278  0.2937
16284TIP3   OH270342   4.855   5.941  16.889  0.3734  0.9297 -0.0621
16284TIP3    H170343   4.817   5.976  16.969 -3.1545 -1.1785 -0.5731
16284TIP3    H270344   4.941   5.909  16.914 -0.1087  1.4720  2.5473
16285TIP3   OH270345   0.427   3.741   3.505 -0.2340  0.1440  0.1935
16285TIP3    H170346   0.402   3.674   3.569 -0.0200  0.6934  0.8605
16285TIP3    H270347   0.522   3.750   3.514 -0.3750  1.2057  0.7869
16286TIP3   OH270348   4.543   0.873   4.647 -0.4098 -0.4857  0.1649
16286TIP3    H170349   4.603   0.803   4.675 -1.2668 -0.8643  1.0985
16286TIP3    H270350   4.548   0.938   4.717  0.8727  0.7391 -0.9946
16287TIP3   OH270351   1.753   6.249   5.552 -0.5816 -0.0134 -0.4023
16287TIP3    H170352   1.767   6.257   5.458 -2.9451  0.9121 -0.7526
16287TIP3    H270353   1.791   6.330   5.588  1.4613 -0.9321 -0.3284
16288TIP3   OH270354   1.851   6.386   0.232 -0.7218  0.6154  0.1252
16288TIP3    H170355   1.844   6.315   0.297  1.7139 -2.5905 -2.6948
16288TIP3    H270356   1.775   6.373   0.175 -1.8193  2.2103  1.1586
16289TIP3   OH270357   4.229   5.640   5.205  0.4144  0.0661  0.0279
16289TIP3    H170358   4.290   5.567   5.196 -0.2308 -0.5727  0.7091
16289TIP3    H270359   4.176   5.636   5.125  0.1685 -0.4257  0.2089
16290TIP3   OH270360   5.742   5.365   6.615 -0.0351 -0.0782  0.1428
16290TIP3    H170361   5.653   5.342   6.589 -0.1891  0.9566 -0.2647
16290TIP3    H270362   5.793   5.359   6.534 -0.6897  4.0500 -0.8015
16291TIP3   OH270363   4.545   2.197  10.382  0.1925 -0.2403  0.1134
16291TIP3    H170364   4.554   2.101  10.386 -0.3260 -0.3378 -0.7423
16291TIP3    H270365   4.543   2.224  10.474 -0.1391 -1.1068  0.3765
16292TIP3   OH270366   2.922   0.535  11.716 -0.4399 -0.5885  0.1942
16292TIP3    H170367   2.930   0.531  11.621  1.4187 -0.0425  0.2902
16292TIP3    H270368   2.852   0.599  11.732  0.9972  1.3352 -0.8161
16293TIP3   OH270369   1.253   3.984  10.521 -0.2255 -0.1642  0.1623
16293TIP3    H170370   1.246   3.927  10.598  0.4551 -1.2715 -0.5733
16293TIP3    H270371   1.165   4.020  10.510 -0.1712  0.6293  1.8931
16294TIP3   OH270372   0.451   4.034   3.077 -0.2960 -0.0756 -0.6285
16294TIP3    H170373   0.384   4.026   3.009 -0.1678 -0.2815 -0.7329
16294TIP3    H270374   0.421   3.976   3.147  0.7630 -1.7382 -1.4912
16295TIP3   OH270375   4.387   0.648  13.056 -0.1244  0.7753 -0.2035
16295TIP3    H170376   4.308   0.637  13.003 -1.8576  1.6360  1.9990
16295TIP3    H270377   4.407   0.559  13.087  0.8105  0.2965 -2.0716
16296TIP3   OH270378   6.814   0.279   1.232  0.4399  0.2298 -0.0099
16296TIP3    H170379   6.784   0.189   1.223  0.6962  0.2458 -1.2838
16296TIP3    H270380   6.896   0.273   1.280 -0.8642  0.0687  2.3400
16297TIP3   OH270381   0.822   3.692  13.004 -0.7632 -0.1888 -0.3999
16297TIP3    H170382   0.915   3.716  13.003 -1.2460  1.8876 -1.9807
16297TIP3    H270383   0.795   3.706  13.095 -0.1916  2.2406 -0.5329
16298TIP3   OH270384   6.734   5.752  13.645 -0.4599 -0.1402 -0.5658
16298TIP3    H170385   6.730   5.751  13.549 -2.9392  0.0108 -0.5254
16298TIP3    H270386   6.659   5.700  13.673  0.2320 -0.2005  1.3223
16299TIP3   OH270387   3.716   3.598  13.198 -0.0214  0.1219  0.3938
16299TIP3    H170388   3.688   3.507  13.183  1.4143 -0.6883  2.1930
16299TIP3    H270389   3.635   3.645  13.217 -0.7641 -0.8128 -0.3319
16300TIP3   OH270390   6.388   1.949  11.463  0.4080  1.0067  0.5056
16300TIP3    H170391   6.339   1.869  11.480  1.1963  0.0739 -1.3194
16300TIP3    H270392   6.428   1.935  11.377  0.8240  3.2451  0.2713
16301TIP3   OH270393   6.700   4.290  11.010  0.5984 -0.0002  0.0171
16301TIP3    H170394   6.719   4.211  10.960  1.1930 -0.7232  1.3211
16301TIP3    H270395   6.785   4.316  11.046  0.1165  0.1779  1.0722
16302TIP3   OH270396   1.062   4.462  16.346 -0.2395 -0.1668 -0.3561
16302TIP3    H170397   1.006   4.536  16.323  0.6478  0.0602 -1.9547
16302TIP3    H270398   1.070   4.412  16.264 -1.1728 -2.3052  0.7813
16303TIP3   OH270399   2.150   4.829   3.716  0.8357 -0.1938 -0.5375
16303TIP3    H170400   2.129   4.784   3.634 -1.8115  1.1253 -0.6865
16303TIP3    H270401   2.191   4.911   3.688 -0.6877  0.5627 -0.6089
16304TIP3   OH270402   5.113   0.921   2.123 -0.4753  0.5582 -0.5384
16304TIP3    H170403   5.166   0.918   2.044 -1.4459 -0.0304 -1.1803
16304TIP3    H270404   5.122   0.834   2.162 -2.7355 -0.3498 -1.8707
16305TIP3   OH270405   2.392   2.971   5.708 -0.4218  0.9284  0.5459
16305TIP3    H170406   2.392   3.061   5.739  0.4455  1.0533  0.2211
16305TIP3    H270407   2.314   2.964   5.653 -0.5134  1.4694  0.6081
16306TIP3   OH270408   0.365   1.925   0.320 -0.4647 -0.2386  0.4003
16306TIP3    H170409   0.441   1.930   0.378 -0.7664 -0.5451  0.8334
16306TIP3    H270410   0.290   1.936   0.379 -0.7467  0.4197 -0.0648
16307TIP3   OH270411   3.814   6.766  13.321 -0.3214  0.1947 -0.3591
16307TIP3    H170412   3.806   6.682  13.275  0.7284  0.1355 -0.4478
16307TIP3    H270413   3.785   6.831  13.258 -0.5116 -0.0407 -0.5161
16308TIP3   OH270414   3.490   2.682   1.248  0.0917 -0.1345 -0.3422
16308TIP3    H170415   3.545   2.667   1.171  0.3686  1.6547 -0.5492
16308TIP3    H270416   3.441   2.762   1.227 -1.2474 -0.6826  0.5748
16309TIP3   OH270417   1.958   4.299  16.113  0.2632 -0.4130 -0.4635
16309TIP3    H170418   1.926   4.384  16.084  1.3421  0.1200 -0.1605
16309TIP3    H270419   1.938   4.297  16.207 -2.3178 -1.7137 -0.9659
16310TIP3   OH270420   6.806   0.492  11.677  0.3303  0.1471 -0.1887
16310TIP3    H170421   6.902   0.490  11.674  0.3231  0.6263 -0.9839
16310TIP3    H270422   6.786   0.532  11.761  0.8388  0.4225 -0.1920
16311TIP3   OH270423   4.613   6.546   1.668  0.6448  0.4407  0.2952
16311TIP3    H170424   4.705   6.572   1.681  0.4213  0.7420  1.3744
16311TIP3    H270425   4.576   6.544   1.756 -0.2619 -0.1744 -0.0882
16312TIP3   OH270426   3.524   5.071  15.440  0.2519  0.2328 -0.7170
16312TIP3    H170427   3.588   5.140  15.419  1.1170 -0.6034 -0.9074
16312TIP3    H270428   3.461   5.114  15.497  1.0359  1.0675 -0.4490
16313TIP3   OH270429   4.374   0.061   5.787 -0.1925  0.2108  0.0223
16313TIP3    H170430   4.447   0.100   5.739 -1.7516  2.0290 -1.0097
16313TIP3    H270431   4.298   0.110   5.759 -1.4010  0.7034  3.5859
16314TIP3   OH270432   5.081   5.293  14.080 -0.3285 -0.1564 -0.6518
16314TIP3    H170433   5.158   5.236  14.078  0.3815  0.7134  0.6884
16314TIP3    H270434   5.076   5.330  13.992 -1.8474 -3.5479 -2.1765
16315TIP3   OH270435   2.631   1.237  11.934  0.7527 -0.3506 -0.7815
16315TIP3    H170436   2.570   1.255  12.007 -0.0442 -0.6292 -1.3623
16315TIP3    H270437   2.656   1.324  11.902  0.4707 -0.2360 -0.6958
16316TIP3   OH270438   5.766   4.256  10.468 -0.0557 -0.5011 -0.5246
16316TIP3    H170439   5.768   4.313  10.391 -1.0167 -1.5727 -1.3612
16316TIP3    H270440   5.857   4.256  10.499  0.0663  1.0857 -0.7737
16317TIP3   OH270441   4.889   4.204  13.836  0.0568 -0.2852  0.5645
16317TIP3    H170442   4.885   4.197  13.741  0.3839  0.0704  0.5242
16317TIP3    H270443   4.981   4.191  13.858 -0.0728 -0.7202  0.8633
16318TIP3   OH270444   4.643   0.146   4.079  0.4886 -0.8383  0.2861
16318TIP3    H170445   4.639   0.069   4.023  1.7026 -1.2221  0.7132
16318TIP3    H270446   4.728   0.185   4.061 -0.1613  0.4996 -0.0273
16319TIP3   OH270447   5.322   0.996  11.416  0.0003 -0.2962  0.5810
16319TIP3    H170448   5.303   1.043  11.335  0.1455  0.5694  1.0367
16319TIP3    H270449   5.376   1.056  11.467  0.1500 -0.9414  1.2053
16320TIP3   OH270450   2.125   0.645   3.483 -0.1767  0.0814 -0.1835
16320TIP3    H170451   2.140   0.616   3.393 -0.6492  0.0784 -0.2659
16320TIP3    H270452   2.197   0.704   3.503  0.7006 -0.9784 -0.0917
16321TIP3   OH270453   0.905   4.349  15.530  0.3381 -0.2004 -0.0846
16321TIP3    H170454   0.964   4.288  15.487 -1.2433 -3.0198  1.3982
16321TIP3    H270455   0.830   4.356  15.471 -0.2736 -1.2553  0.5152
16322TIP3   OH270456   1.096   5.408   1.245  0.6679 -0.1641  0.3876
16322TIP3    H170457   1.144   5.470   1.190 -0.7396  2.3139  1.7534
16322TIP3    H270458   1.042   5.358   1.184  1.8273 -0.0492 -0.7681
16323TIP3   OH270459   4.139   2.539  16.437  0.0760 -0.0287  0.4510
16323TIP3    H170460   4.125   2.629  16.464  0.4180  0.0142  0.4948
16323TIP3    H270461   4.069   2.489  16.479  0.4460  0.0774  1.2003
16324TIP3   OH270462   6.275   0.482   3.199  0.1991  0.3201  0.2043
16324TIP3    H170463   6.316   0.438   3.124 -1.6792  0.8134 -1.1825
16324TIP3    H270464   6.273   0.415   3.268 -0.3442 -1.0121 -1.0382
16325TIP3   OH270465   5.987   2.175   5.025 -0.2051 -0.3633  0.8768
16325TIP3    H170466   6.029   2.259   5.044 -0.4806  0.1940 -0.8115
16325TIP3    H270467   5.964   2.140   5.111 -0.5728  1.5344  1.6016
16326TIP3   OH270468   6.738   2.720   4.497 -0.5426 -0.5445 -0.0769
16326TIP3    H170469   6.731   2.804   4.543 -1.1721 -0.4542 -0.3336
16326TIP3    H270470   6.784   2.743   4.415 -3.3089  0.1406 -1.5519
16327TIP3   OH270471   2.146   3.420  15.624 -0.1066 -0.0066 -0.4851
16327TIP3    H170472   2.098   3.378  15.695 -0.5213  0.0723 -0.7149
16327TIP3    H270473   2.235   3.431  15.658  0.0119 -1.0690 -0.4237
16328TIP3   OH270474   1.841   3.753   6.183 -0.1431 -0.2175  0.2563
16328TIP3    H170475   1.769   3.722   6.129  0.6842 -0.2753 -0.8303
16328TIP3    H270476   1.799   3.799   6.255 -1.2516  0.2610 -0.6805
16329TIP3   OH270477   1.402   1.030  12.657  0.3371  0.2099  0.5606
16329TIP3    H170478   1.412   1.121  12.683  0.0743  0.8253 -1.3596
16329TIP3    H270479   1.390   1.033  12.562 -1.1047 -1.7220  0.6284
16330TIP3   OH270480   3.200   4.763   1.606  0.3343  0.2181  0.2732
16330TIP3    H170481   3.160   4.845   1.634 -0.4796  0.3741 -1.2479
16330TIP3    H270482   3.293   4.783   1.599  0.1416  1.0258 -0.0988
16331TIP3   OH270483   0.307   5.274   1.250 -0.2058 -0.1227  0.3868
16331TIP3    H170484   0.374   5.216   1.285 -0.9582 -0.5367  1.2002
16331TIP3    H270485   0.324   5.359   1.291  0.6390  0.1339 -0.4740
16332TIP3   OH270486   4.185   5.594   4.842  0.0057 -0.5127 -0.3219
16332TIP3    H170487   4.106   5.618   4.890 -0.4918 -1.3791 -0.6881
16332TIP3    H270488   4.224   5.523   4.894  1.3868  0.9100  0.6812
16333TIP3   OH270489   3.779   1.051   0.788  0.3030 -0.4134  0.1570
16333TIP3    H170490   3.764   0.961   0.817  0.2996 -0.3116  0.4830
16333TIP3    H270491   3.764   1.049   0.694  1.8698 -1.1100 -0.1195
16334TIP3   OH270492   1.858   0.156   4.869  0.0415 -0.3581 -0.4272
16334TIP3    H170493   1.784   0.181   4.924  1.8466  0.9779  1.5476
16334TIP3    H270494   1.902   0.088   4.919  1.3724  0.4351 -0.4870
16335TIP3   OH270495   2.842   6.589  11.237 -0.4417  0.3094  0.0994
16335TIP3    H170496   2.760   6.630  11.211 -1.3962  0.6013  3.2403
16335TIP3    H270497   2.886   6.655  11.291  0.0718 -1.1476  1.5477
16336TIP3   OH270498   5.634   5.230  11.842 -0.0709 -0.2692  0.1787
16336TIP3    H170499   5.725   5.238  11.813 -0.3290 -0.1525 -0.5929
16336TIP3    H270500   5.614   5.316  11.881 -1.1859  1.2986 -3.4707
16337TIP3   OH270501   6.652   0.299  16.805  0.5873 -0.2907  0.3824
16337TIP3    H170502   6.696   0.289  16.721 -2.9784  1.6326 -1.9486
16337TIP3    H270503   6.643   0.210  16.839  2.2104 -1.0999 -1.1686
16338TIP3   OH270504   4.706   3.311  14.958 -0.0445 -0.5780  0.9442
16338TIP3    H170505   4.678   3.355  15.038 -2.5893  1.9776 -1.1356
16338TIP3    H270506   4.762   3.375  14.914 -1.4388 -0.4652 -0.7971
16339TIP3   OH270507   1.754   6.365   3.940 -0.0729  0.3488  0.5545
16339TIP3    H170508   1.847   6.386   3.933  0.1814 -0.5049  1.1633
16339TIP3    H270509   1.734   6.375   4.033 -0.4774  0.0805  0.5013
16340TIP3   OH270510   0.502   6.583  13.132  0.8107  0.1633 -0.2378
16340TIP3    H170511   0.535   6.533  13.207 -0.3802  0.4699  0.5196
16340TIP3    H270512   0.497   6.519  13.061  0.8681 -0.4046  0.2606
16341TIP3   OH270513   3.554   3.486   2.404 -0.3195 -0.4011  0.0873
16341TIP3    H170514   3.623   3.421   2.420  0.9783  0.8921 -0.0373
16341TIP3    H270515   3.598   3.556   2.355 -1.6997  0.5144  0.1030
16342TIP3   OH270516   1.096   2.744   4.879 -0.2574  0.2632  0.3576
16342TIP3    H170517   1.117   2.835   4.858 -0.7179  0.2019 -0.4278
16342TIP3    H270518   1.000   2.739   4.874 -0.2359 -0.2695  0.3349
16343TIP3   OH270519   6.346   4.686  10.972 -0.1275  0.1586 -0.0351
16343TIP3    H170520   6.283   4.700  10.901 -1.0876 -0.7790  0.5989
16343TIP3    H270521   6.292   4.664  11.048  0.9136  0.5663  0.8531
16344TIP3   OH270522   0.378   1.725   3.107 -0.1075  0.4432 -0.4212
16344TIP3    H170523   0.414   1.813   3.098  3.6106 -0.9661 -0.8600
16344TIP3    H270524   0.394   1.683   3.022 -2.6185 -0.4973 -0.5439
16345TIP3   OH270525   1.762   2.898   0.448 -0.1050  0.1946  0.2363
16345TIP3    H170526   1.683   2.944   0.477 -0.0975 -0.8178  2.0141
16345TIP3    H270527   1.733   2.844   0.375 -1.0373 -0.0544  0.7737
16346TIP3   OH270528   5.761   1.014  14.690  0.3153  0.3424 -0.1148
16346TIP3    H170529   5.673   1.027  14.656  1.1562  3.5863 -1.4310
16346TIP3    H270530   5.755   1.035  14.783 -0.4647 -0.5776  0.0585
16347TIP3   OH270531   4.651   2.200   0.320 -0.9016  0.8335 -0.0967
16347TIP3    H170532   4.746   2.207   0.310 -0.7208  0.4090  1.0363
16347TIP3    H270533   4.616   2.213   0.233  0.1683  1.5466 -0.4377
16348TIP3   OH270534   6.394   0.829  16.314 -0.7856 -0.5072  0.1167
16348TIP3    H170535   6.490   0.836  16.315 -0.8925  1.8737 -0.0585
16348TIP3    H270536   6.377   0.736  16.329  1.5411 -0.9882  0.2565
16349TIP3   OH270537   0.787   4.200  15.216  0.2482 -0.3710 -0.0933
16349TIP3    H170538   0.733   4.265  15.260 -0.0946  1.0577 -2.4320
16349TIP3    H270539   0.867   4.247  15.193  0.1672 -0.8702 -1.4680
16350TIP3   OH270540   1.731   6.352   1.758  0.4264  0.0525 -0.2087
16350TIP3    H170541   1.806   6.411   1.753 -0.3313  1.0816  0.3354
16350TIP3    H270542   1.713   6.345   1.852  1.6589 -2.5611 -0.0654
16351TIP3   OH270543   4.514   2.300   3.959  0.0467  0.1394 -0.1100
16351TIP3    H170544   4.425   2.322   3.930  0.4625  0.1163 -1.4851
16351TIP3    H270545   4.562   2.383   3.955 -0.0095  0.2327  1.0336
16352TIP3   OH270546   6.430   4.360  10.980  0.1787  0.1912  0.1339
16352TIP3    H170547   6.444   4.414  10.903  1.0100 -0.5758 -0.2680
16352TIP3    H270548   6.515   4.321  10.999 -0.4262 -1.1500  0.2632
16353TIP3   OH270549   1.587   4.316  11.999  0.0582 -0.0012  0.1082
16353TIP3    H170550   1.550   4.387  11.947  1.1080 -1.0923 -2.3020
16353TIP3    H270551   1.587   4.240  11.940  1.8218 -1.2087  1.5271
16354TIP3   OH270552   6.829   6.685   5.384 -0.4107  0.2173  0.1769
16354TIP3    H170553   6.764   6.615   5.395 -0.0002 -0.6450 -2.2898
16354TIP3    H270554   6.912   6.639   5.376 -0.1927  0.9055 -1.9477
16355TIP3   OH270555   6.213   5.852   2.784 -0.5045  0.3740  0.4484
16355TIP3    H170556   6.202   5.882   2.694 -2.2975  1.2633  0.9247
16355TIP3    H270557   6.237   5.760   2.776  1.6613  1.0018 -0.9598
16356TIP3   OH270558   0.755   3.769   5.176 -0.0930  0.4572 -0.0879
16356TIP3    H170559   0.822   3.775   5.244  0.4441 -0.5442 -0.5149
16356TIP3    H270560   0.713   3.685   5.191  0.2211  0.0898 -1.1542
16357TIP3   OH270561   5.349   5.276  11.756 -0.4416 -0.4230  0.1755
16357TIP3    H170562   5.441   5.267  11.780 -0.0045  3.6844  0.7889
16357TIP3    H270563   5.337   5.217  11.682  3.5039  0.9084 -1.7827
16358TIP3   OH270564   1.928   5.733  14.188  0.1575  0.5829  0.3864
16358TIP3    H170565   1.891   5.650  14.159  0.3548  1.0197 -1.2012
16358TIP3    H270566   2.011   5.709  14.230  0.7815  0.0504 -1.1053
16359TIP3   OH270567   1.629   0.945  12.943 -0.1782  0.4021  0.4610
16359TIP3    H170568   1.543   0.940  12.901  0.3558 -0.2152 -0.6119
16359TIP3    H270569   1.677   0.869  12.910  1.9321  2.4650 -1.6576
16360TIP3   OH270570   2.865   4.938  11.355  0.2366 -0.3885  0.0977
16360TIP3    H170571   2.842   4.932  11.262 -0.7609  0.0855  0.3021
16360TIP3    H270572   2.885   4.848  11.381 -2.2096 -1.0027  0.0844
16361TIP3   OH270573   1.639   3.906  11.752 -0.2203 -0.3517 -0.0274
16361TIP3    H170574   1.598   3.854  11.822 -0.6821 -1.7881 -1.3193
16361TIP3    H270575   1.576   3.906  11.681  1.0237 -0.5549 -1.1723
16362TIP3   OH270576   4.829   4.219   5.341 -0.2003  0.4032 -0.4019
16362TIP3    H170577   4.762   4.244   5.277 -1.2008 -0.2083  0.3851
16362TIP3    H270578   4.785   4.156   5.398  1.5152 -1.2802 -0.8278
16363TIP3   OH270579   1.709   6.342   2.049  0.2666 -0.1664  0.1571
16363TIP3    H170580   1.626   6.294   2.049 -0.2857  0.7599  0.2182
16363TIP3    H270581   1.714   6.382   2.136  0.2697  0.6221 -0.1914
16364TIP3   OH270582   1.513   4.323  15.541  0.5918  0.0734  0.2170
16364TIP3    H170583   1.602   4.318  15.507  0.6334 -3.0594  0.5337
16364TIP3    H270584   1.466   4.375  15.476  1.7687 -1.6201 -2.1515
16365TIP3   OH270585   3.297   4.511  16.177 -0.2433  0.2217  0.1083
16365TIP3    H170586   3.389   4.488  16.184 -0.1262  0.3733 -0.8308
16365TIP3    H270587   3.289   4.552  16.091 -1.0350  0.9152  0.5002
16366TIP3   OH270588   5.462   2.710   1.518 -0.3470 -0.1144  0.4663
16366TIP3    H170589   5.558   2.706   1.509 -0.2881  1.9723 -0.1873
16366TIP3    H270590   5.447   2.780   1.580 -1.4818 -0.3033  0.4179
16367TIP3   OH270591   6.715   4.164  16.505 -0.1127  0.4583 -0.1400
16367TIP3    H170592   6.658   4.168  16.582 -1.9277  1.0540 -1.4536
16367TIP3    H270593   6.717   4.254  16.472  1.4379  0.4024 -0.2657
16368TIP3   OH270594   1.113   1.013   5.422 -0.0164 -0.4479  0.8808
16368TIP3    H170595   1.112   0.932   5.371 -0.9498 -0.3693  0.7631
16368TIP3    H270596   1.204   1.041   5.420  0.0683 -0.7720 -0.2295
16369TIP3   OH270597   1.086   0.615  15.612 -0.0197 -0.2327 -0.1993
16369TIP3    H170598   1.074   0.703  15.576 -0.3991 -0.0273  0.4265
16369TIP3    H270599   1.175   0.615  15.646 -0.3015  0.1899  0.5581
16370TIP3   OH270600   2.853   2.713  16.526  0.1084 -0.0925 -0.3057
16370TIP3    H170601   2.904   2.650  16.474 -0.5015 -0.5140 -0.4022
16370TIP3    H270602   2.764   2.677  16.526 -1.0322  2.3577 -3.0177
16371TIP3   OH270603   6.377   1.480   3.367  0.6410  0.4244  0.3170
16371TIP3    H170604   6.402   1.401   3.415  0.6526  0.4143  0.2945
16371TIP3    H270605   6.449   1.540   3.382  0.0726  0.8697  1.3447
16372TIP3   OH270606   4.306   0.583   5.246  0.1058  0.0733  0.2558
16372TIP3    H170607   4.352   0.665   5.259  2.3860 -0.6114 -2.4088
16372TIP3    H270608   4.214   0.608   5.238  0.6601  2.2972  0.1354
16373TIP3   OH270609   5.930   0.443   2.966  0.6017  0.1863  0.3669
16373TIP3    H170610   5.915   0.397   3.048 -1.0960  0.8168  0.4452
16373TIP3    H270611   5.902   0.381   2.898  1.3562 -0.0766  0.2857
16374TIP3   OH270612   1.824   0.845   2.492  0.0561 -0.2414 -1.2126
16374TIP3    H170613   1.904   0.892   2.468  0.3064 -0.0650 -0.0826
16374TIP3    H270614   1.755   0.910   2.482  0.3384  0.2498 -0.1382
16375TIP3   OH270615   1.866   5.224   5.495 -0.1272  0.1287 -0.2367
16375TIP3    H170616   1.928   5.165   5.451  0.2982  0.9955 -0.8618
16375TIP3    H270617   1.806   5.251   5.425 -0.3906  0.3253  0.0656
16376TIP3   OH270618   3.484   2.898   4.242 -0.4925 -0.1351 -0.0105
16376TIP3    H170619   3.444   2.985   4.238  2.1527  1.1227 -1.3623
16376TIP3    H270620   3.414   2.839   4.213 -1.7921  1.7433 -0.9436
16377TIP3   OH270621   3.406   1.863   4.936 -0.2174  0.0365 -0.2426
16377TIP3    H170622   3.397   1.929   4.867  0.2078  1.2040  0.7867
16377TIP3    H270623   3.437   1.784   4.890 -0.7092  0.5402 -1.4904
16378TIP3   OH270624   1.640   6.759   3.893  0.7175  0.4655 -0.0112
16378TIP3    H170625   1.622   6.669   3.868  1.4839  0.9932 -2.7944
16378TIP3    H270626   1.554   6.802   3.893  0.5049  0.0421  0.0881
16379TIP3   OH270627   0.236   5.441  16.535  0.3128  0.3838 -0.3916
16379TIP3    H170628   0.222   5.390  16.455  3.2747 -2.6131  0.7360
16379TIP3    H270629   0.319   5.486  16.519  0.5887  0.2906  0.7325
16380TIP3   OH270630   5.584   3.830   4.544 -0.3558 -0.0705  0.1575
16380TIP3    H170631   5.507   3.773   4.539 -1.2923  1.2447 -1.7470
16380TIP3    H270632   5.656   3.775   4.514 -0.9717 -0.6892 -0.2467
16381TIP3   OH270633   1.190   4.896  14.983  0.3133  0.4829  0.4613
16381TIP3    H170634   1.157   4.891  15.073 -1.0946 -0.9065 -0.0862
16381TIP3    H270635   1.250   4.822  14.976  1.4045  1.3305  0.6032
16382TIP3   OH270636   0.363   1.035  15.571 -0.0800  0.5456  0.4188
16382TIP3    H170637   0.396   1.124  15.584 -1.1615  1.1070 -0.5085
16382TIP3    H270638   0.368   1.022  15.476 -2.4588  0.6893  0.1987
16383TIP3   OH270639   5.523   2.490   0.413  0.0498  0.7654 -0.3053
16383TIP3    H170640   5.507   2.437   0.335  0.5987  2.4156 -1.5775
16383TIP3    H270641   5.582   2.559   0.384  2.3369  0.0179  2.1616
16384TIP3   OH270642   5.742   2.473   4.839  0.2483  0.2667 -0.0549
16384TIP3    H170643   5.795   2.519   4.904 -1.0079 -0.4432  1.5383
16384TIP3    H270644   5.664   2.527   4.828  0.3297  0.2507 -0.8122
16385TIP3   OH270645   1.074   1.744  15.133 -0.0854 -0.2198  0.2255
16385TIP3    H170646   1.146   1.766  15.192  0.5702 -0.6498 -0.3908
16385TIP3    H270647   0.995   1.771  15.180  0.4558 -0.0216  1.0477
16386TIP3   OH270648   5.834   2.373  13.007 -0.0478 -0.3903 -0.0488
16386TIP3    H170649   5.791   2.290  13.028 -0.3042 -0.3523 -0.4167
16386TIP3    H270650   5.782   2.439  13.053 -0.7276 -0.2866 -0.9383
16387TIP3   OH270651   4.770   4.178   3.594 -0.3863  0.5022  0.5423
16387TIP3    H170652   4.817   4.098   3.569  0.3504  1.0875 -0.0347
16387TIP3    H270653   4.764   4.227   3.512 -3.6169 -0.3033  0.1763
16388TIP3   OH270654   4.873   0.474   5.486  0.5040 -0.1531  0.2605
16388TIP3    H170655   4.820   0.543   5.527  0.5979  0.2730 -0.3216
16388TIP3    H270656   4.864   0.399   5.544 -0.1823  0.1295  0.5258
16389TIP3   OH270657   1.329   1.480   1.754  0.6880  0.3197  0.4655
16389TIP3    H170658   1.313   1.391   1.721 -1.7836  0.1546  1.8838
16389TIP3    H270659   1.328   1.535   1.676 -0.2130 -0.6070 -0.2039
16390TIP3   OH270660   6.836   6.237   1.222 -0.3481 -0.2060  0.6138
16390TIP3    H170661   6.825   6.282   1.306  1.1484  0.6518  0.3853
16390TIP3    H270662   6.838   6.144   1.244  2.0843  0.0579  1.8447
16391TIP3   OH270663   1.903   5.181  13.971  0.4679  0.0154 -0.4634
16391TIP3    H170664   1.890   5.155  13.880  1.5145 -2.8395  0.0971
16391TIP3    H270665   1.818   5.164  14.013 -0.0617  1.4855 -0.9069
16392TIP3   OH270666   0.606   3.059  11.278  0.4803 -0.8023  0.3599
16392TIP3    H170667   0.537   3.095  11.334 -1.6299  0.3029 -2.6731
16392TIP3    H270668   0.685   3.107  11.303 -1.2527  2.7470 -0.3165
16393TIP3   OH270669   2.877   4.213  10.514 -0.1586  0.0616 -0.0645
16393TIP3    H170670   2.789   4.191  10.545  0.6980 -0.6503  2.0458
16393TIP3    H270671   2.918   4.128  10.496  0.3845  0.3437 -0.1897
16394TIP3   OH270672   2.620   5.067  14.338  0.7017 -0.1095 -0.2896
16394TIP3    H170673   2.546   5.008  14.323 -0.2796  1.1368 -0.4897
16394TIP3    H270674   2.666   5.029  14.413  0.2411 -1.2572 -0.5689
16395TIP3   OH270675   0.177   5.603   2.713  0.0596 -0.1262 -0.4360
16395TIP3    H170676   0.107   5.641   2.662  1.2391  2.3435 -0.3595
16395TIP3    H270677   0.204   5.525   2.665 -1.8464 -0.3906 -1.1162
16396TIP3   OH270678   1.996   0.104   2.147  0.7996  0.4535 -0.4099
16396TIP3    H170679   2.086   0.113   2.177  0.9864  0.5765 -0.9979
16396TIP3    H270680   1.944   0.152   2.212  1.1997  0.7646 -0.3197
16397TIP3   OH270681   5.740   5.116   2.826 -0.3233  0.4800 -0.5666
16397TIP3    H170682   5.768   5.055   2.894 -2.2685  2.0965  1.8602
16397TIP3    H270683   5.818   5.170   2.809  0.6169 -0.8966 -0.7587
16398TIP3   OH270684   3.550   6.440  14.715  0.3055  0.0778  0.5565
16398TIP3    H170685   3.641   6.415  14.728 -0.2047 -1.2622  1.7105
16398TIP3    H270686   3.518   6.381  14.647 -0.3677 -1.1361  1.9060
16399TIP3   OH270687   2.809   5.660  14.248  0.2876  0.0242  0.7064
16399TIP3    H170688   2.865   5.606  14.304  0.9951  0.0362  0.0269
16399TIP3    H270689   2.767   5.722  14.308  0.5982 -0.3286  1.2953
16400TIP3   OH270690   2.524   3.053   1.868  0.0880  0.7719  0.0890
16400TIP3    H170691   2.564   2.983   1.817 -2.4328 -0.0815 -0.8230
16400TIP3    H270692   2.486   3.112   1.803  0.1105  1.7285  0.9186
16401TIP3   OH270693   6.825   1.113  10.945  0.1664  0.0617 -0.2878
16401TIP3    H170694   6.803   1.101  11.038 -1.3131 -0.3110 -0.6661
16401TIP3    H270695   6.847   1.025  10.915 -2.4058 -0.4053 -1.0105
16402TIP3   OH270696   3.100   0.850  11.405  0.2550 -0.1424 -0.0625
16402TIP3    H170697   3.053   0.878  11.326  0.2545  0.4845  0.1575
16402TIP3    H270698   3.098   0.754  11.401 -0.4755 -0.1208 -0.3902
16403TIP3   OH270699   6.648   5.296  14.216 -1.0326  0.6453 -0.8228
16403TIP3    H170700   6.673   5.328  14.129 -0.9791  2.1308 -0.2912
16403TIP3    H270701   6.604   5.370  14.257 -1.0620 -0.0354  0.4236
16404TIP3   OH270702   4.697   0.095  13.831 -0.4553 -0.5222 -0.0506
16404TIP3    H170703   4.767   0.050  13.785  0.5832  1.8826 -0.9675
16404TIP3    H270704   4.640   0.129  13.762  0.0538  1.4778  0.4604
16405TIP3   OH270705   0.162   5.761  15.749  0.3518 -0.0526 -0.0471
16405TIP3    H170706   0.191   5.845  15.786 -0.0637  0.6189 -1.1989
16405TIP3    H270707   0.219   5.747  15.674 -0.3410 -0.2027 -0.5605
16406TIP3   OH270708   3.390   0.888   5.307 -0.4024  0.8413  0.4270
16406TIP3    H170709   3.443   0.808   5.311 -3.6774 -1.5496 -0.0225
16406TIP3    H270710   3.410   0.925   5.222  2.1292  1.3350  1.1466
16407TIP3   OH270711   4.374   5.415   6.233 -0.1407  0.3546  0.6333
16407TIP3    H170712   4.353   5.501   6.196  1.7373  0.8522  0.6462
16407TIP3    H270713   4.314   5.355   6.187 -0.5006  1.4691 -0.4235
16408TIP3   OH270714   4.211   3.003   0.245  0.3217  0.7254  0.1277
16408TIP3    H170715   4.227   3.058   0.169  0.3631 -1.2980 -1.4208
16408TIP3    H270716   4.277   2.934   0.238 -1.6604 -1.2823  0.1866
16409TIP3   OH270717   2.609   5.747   2.102  0.1222 -0.0314 -0.2710
16409TIP3    H170718   2.559   5.701   2.034  1.9826 -1.8693 -0.5093
16409TIP3    H270719   2.668   5.804   2.053 -1.0976  1.5064 -0.0180
16410TIP3   OH270720   1.115   2.393  12.645 -0.2131  0.5720  0.3193
16410TIP3    H170721   1.201   2.434  12.653  0.5355 -0.5421 -1.3675
16410TIP3    H270722   1.105   2.342  12.725  1.8790 -1.2977 -0.5050
16411TIP3   OH270723   3.136   5.564   2.830  0.5798 -0.4254 -0.0342
16411TIP3    H170724   3.117   5.619   2.753 -0.8023 -2.4120 -1.2106
16411TIP3    H270725   3.099   5.612   2.903  2.1357  1.6433 -0.5176
16412TIP3   OH270726   0.276   5.795  14.998 -0.0732 -0.3665 -0.3009
16412TIP3    H170727   0.339   5.728  15.026 -0.7868 -1.9537 -2.2127
16412TIP3    H270728   0.329   5.865  14.961  0.6451 -0.5548  0.3576
16413TIP3   OH270729   4.045   6.534  16.896 -0.0592  0.0179 -0.0798
16413TIP3    H170730   3.989   6.460  16.922  0.8439 -0.6264  0.0650
16413TIP3    H270731   4.078   6.510  16.810  0.3755  0.1798  0.0412
16414TIP3   OH270732   6.639   1.973   3.614  0.5508 -0.1102 -0.3247
16414TIP3    H170733   6.719   1.960   3.665  0.2232 -1.3921 -0.0776
16414TIP3    H270734   6.607   1.884   3.598 -0.9152  0.3826 -0.2707
16415TIP3   OH270735   2.585   2.022  11.730 -0.0249 -0.4496  0.1108
16415TIP3    H170736   2.672   1.981  11.724  0.4055  0.3405  0.8589
16415TIP3    H270737   2.601   2.107  11.769 -1.2611 -0.6665  1.1310
16416TIP3   OH270738   3.675   1.312  13.072 -0.3386  0.0228  0.4089
16416TIP3    H170739   3.685   1.230  13.024 -1.3360 -0.7940  1.5253
16416TIP3    H270740   3.583   1.335  13.059 -0.0516  1.0212  0.0572
16417TIP3   OH270741   2.693   4.791   1.084 -0.0783 -0.2199 -0.7215
16417TIP3    H170742   2.669   4.872   1.128  0.7929 -0.7425  0.7936
16417TIP3    H270743   2.615   4.736   1.090 -0.4770  0.2945 -1.2283
16418TIP3   OH270744   4.547   2.290   2.496 -0.7467  0.5546  0.6846
16418TIP3    H170745   4.624   2.248   2.457 -0.4465  0.7173  1.0962
16418TIP3    H270746   4.473   2.241   2.460 -0.4365  0.1788  0.5461
16419TIP3   OH270747   5.391   4.829   3.290 -0.7642  0.8223 -0.4055
16419TIP3    H170748   5.423   4.799   3.206 -1.5094  0.0071 -0.4066
16419TIP3    H270749   5.392   4.751   3.346  0.5594  1.5302  0.6093
16420TIP3   OH270750   6.049   5.547   1.220  0.3976 -0.6694 -0.0189
16420TIP3    H170751   6.138   5.580   1.225  0.3185 -0.2055 -1.2413
16420TIP3    H270752   6.032   5.539   1.126 -1.4753  0.9704  0.1233
16421TIP3   OH270753   6.068   6.691   1.787  0.1965 -0.2419 -0.0774
16421TIP3    H170754   6.032   6.605   1.767 -0.5499  0.5661 -2.4650
16421TIP3    H270755   6.129   6.709   1.716  1.0516  0.8374  0.8834
16422TIP3   OH270756   1.189   2.502   4.763 -0.0006  0.3914 -0.2887
16422TIP3    H170757   1.280   2.522   4.742  0.7040 -1.2813  0.9339
16422TIP3    H270758   1.153   2.585   4.795  0.9136  1.1983 -1.2859
16423TIP3   OH270759   0.108   6.115  14.231 -0.6305  0.0341  0.4305
16423TIP3    H170760   0.140   6.096  14.143 -1.5382  1.4666 -0.2554
16423TIP3    H270761   0.035   6.055  14.244  0.3918 -1.1691  0.8073
16424TIP3   OH270762   3.723   2.580  16.620 -0.3159 -0.3975  0.7627
16424TIP3    H170763   3.637   2.558  16.586 -0.0093 -1.4272  0.6297
16424TIP3    H270764   3.750   2.656  16.568 -1.2805  0.1679  1.0525
16425TIP3   OH270765   0.380   6.046  12.827  0.5619  0.0842 -0.7600
16425TIP3    H170766   0.433   6.019  12.752  1.4973 -0.0861 -0.0607
16425TIP3    H270767   0.363   6.139  12.813  1.1769  0.1771 -0.9341
16426TIP3   OH270768   0.236   2.144   0.110 -0.0817  0.2897  0.1208
16426TIP3    H170769   0.273   2.067   0.152  0.3040 -0.3942 -1.3900
16426TIP3    H270770   0.233   2.121   0.017 -2.1135  1.2247 -0.1017
16427TIP3   OH270771   6.825   3.947   0.595  0.0735  0.1514 -0.0275
16427TIP3    H170772   6.745   3.895   0.604 -0.0997  0.3819 -0.1987
16427TIP3    H270773   6.840   3.951   0.501  0.3389  0.0307  0.0111
16428TIP3   OH270774   2.444   0.454   3.128 -0.0589 -0.4294 -0.1538
16428TIP3    H170775   2.394   0.468   3.208 -0.9126 -2.3697 -0.2756
16428TIP3    H270776   2.521   0.510   3.137  0.5326 -1.5079  2.6441
16429TIP3   OH270777   3.496   3.624  13.654  0.2028 -0.2949  0.0693
16429TIP3    H170778   3.510   3.538  13.613  0.6843  0.2526 -0.9616
16429TIP3    H270779   3.486   3.605  13.747 -0.8828 -1.5847 -0.2762
16430TIP3   OH270780   3.556   2.618   2.387  0.1264  0.3006  0.7644
16430TIP3    H170781   3.471   2.652   2.361  0.9658  1.9699  0.0831
16430TIP3    H270782   3.537   2.532   2.425 -1.7804  0.4029  0.1181
16431TIP3   OH270783   4.708   4.594  12.048  0.0392 -0.9258 -0.0218
16431TIP3    H170784   4.768   4.524  12.074  2.1698  0.5739 -0.6062
16431TIP3    H270785   4.764   4.659  12.006 -2.0604  0.5127 -0.7647
16432TIP3   OH270786   0.584   0.507  13.046  0.0975  0.1277 -0.0184
16432TIP3    H170787   0.629   0.461  12.975  0.3190  1.4969 -0.8015
16432TIP3    H270788   0.492   0.489  13.032  0.1067  0.7309 -0.9231
16433TIP3   OH270789   5.740   4.997   4.526  0.4565 -0.4981 -0.6778
16433TIP3    H170790   5.803   4.928   4.548  0.1641 -0.4554  0.3766
16433TIP3    H270791   5.794   5.073   4.505  0.8111 -0.0135  1.6963
16434TIP3   OH270792   6.598   4.607  11.163  1.0131 -0.9044  0.3809
16434TIP3    H170793   6.584   4.614  11.069  0.9970  0.1396  0.4466
16434TIP3    H270794   6.517   4.641  11.202  1.9546  1.0644  0.7556
16435TIP3   OH270795   6.722   1.522  12.682 -0.9787 -0.0403  0.3321
16435TIP3    H170796   6.628   1.528  12.699 -0.8581  2.1944  0.4746
16435TIP3    H270797   6.748   1.611  12.658  1.0561 -0.6776 -0.0139
16436TIP3   OH270798   6.426   5.973   3.167 -0.9801 -0.5860  0.3026
16436TIP3    H170799   6.512   6.014   3.174 -1.5720  0.8852 -0.5643
16436TIP3    H270800   6.439   5.884   3.199  0.6811 -0.1593  0.9252
16437TIP3   OH270801   1.172   3.354   1.938 -0.3762 -0.0540 -0.2710
16437TIP3    H170802   1.146   3.310   1.857 -4.2822  0.4574  0.5370
16437TIP3    H270803   1.171   3.447   1.916  0.7980  0.0010 -0.1567
16438TIP3   OH270804   5.808   2.518  15.341 -0.1296  0.4460  0.2170
16438TIP3    H170805   5.844   2.601  15.309  2.9820 -0.7748  0.1729
16438TIP3    H270806   5.731   2.503  15.287 -1.1823  3.5460  0.6558
16439TIP3   OH270807   5.212   6.618   3.065  0.2093  0.0646  0.0010
16439TIP3    H170808   5.231   6.533   3.026  2.9448  0.6791 -0.1982
16439TIP3    H270809   5.161   6.598   3.143  1.0308 -1.7924  0.1003
16440TIP3   OH270810   3.904   5.912  13.803  0.4331  0.2526  0.3157
16440TIP3    H170811   3.841   5.984  13.798  0.9044  0.6644  0.1345
16440TIP3    H270812   3.989   5.955  13.798  0.7303 -0.2897  0.6350
16441TIP3   OH270813   6.629   0.463  14.549  0.1488  0.5135  0.0321
16441TIP3    H170814   6.585   0.534  14.597  1.0645  0.8358  0.4134
16441TIP3    H270815   6.632   0.494  14.459 -0.4105  0.4844  0.0007
16442TIP3   OH270816   1.897   3.558   3.413  0.6662 -0.3260 -0.2127
16442TIP3    H170817   1.884   3.530   3.323  1.6654  1.0270 -0.8298
16442TIP3    H270818   1.825   3.619   3.430  0.1169 -1.0550  0.1474
16443TIP3   OH270819   5.235   3.838   2.177 -0.6799  0.7107 -0.3232
16443TIP3    H170820   5.218   3.744   2.178 -1.7617  0.8909  0.3438
16443TIP3    H270821   5.330   3.846   2.176 -0.5515 -0.3910 -2.3236
16444TIP3   OH270822   2.974   6.284   5.269 -0.1755  0.3037 -0.1184
16444TIP3    H170823   2.894   6.331   5.245 -0.2425  0.2164 -0.0645
16444TIP3    H270824   2.962   6.196   5.235 -1.0625 -0.3708  1.7960
16445TIP3   OH270825   4.134   3.210   3.954  0.5301 -0.1126  0.3902
16445TIP3    H170826   4.112   3.200   3.861  2.5412  1.9237 -0.3877
16445TIP3    H270827   4.049   3.210   3.998 -0.8231  2.3886 -1.8767
16446TIP3   OH270828   1.413   6.374  16.077 -0.3319  0.2610 -0.0371
16446TIP3    H170829   1.504   6.371  16.047 -0.2611  1.6057 -0.0300
16446TIP3    H270830   1.373   6.445  16.026 -1.2346  0.0344  0.3347
16447TIP3   OH270831   5.998   0.603  14.704  0.0671  0.2385  0.0119
16447TIP3    H170832   5.943   0.645  14.638  0.3523  0.6260  0.0147
16447TIP3    H270833   6.083   0.648  14.696  0.7480 -1.1102 -0.7708
16448TIP3   OH270834   0.865   3.879   3.903  0.2452  0.1503  0.1085
16448TIP3    H170835   0.890   3.895   3.813 -0.5677  0.6383 -0.0488
16448TIP3    H270836   0.774   3.850   3.898  0.5052 -0.8373  0.7002
16449TIP3   OH270837   2.168   4.658  15.608  0.5013 -0.3224  0.1255
16449TIP3    H170838   2.199   4.747  15.627  0.0746 -0.5485  2.0578
16449TIP3    H270839   2.078   4.657  15.641  0.1140 -1.1542 -0.9038
16450TIP3   OH270840   6.725   3.266  10.940  0.1990  0.7580 -0.3597
16450TIP3    H170841   6.636   3.297  10.920 -0.3350 -0.5314 -0.1085
16450TIP3    H270842   6.773   3.277  10.858 -0.1414  1.6061 -0.4589
16451TIP3   OH270843   2.749   0.282  16.466 -0.8350  0.3299 -0.0688
16451TIP3    H170844   2.654   0.294  16.462 -1.2238 -1.7986  1.0498
16451TIP3    H270845   2.774   0.313  16.553 -0.3822  1.3440 -0.5360
16452TIP3   OH270846   0.412   6.319  11.714 -0.1928  0.0911 -0.1380
16452TIP3    H170847   0.503   6.325  11.685 -0.2740 -0.2800 -0.4814
16452TIP3    H270848   0.360   6.325  11.634 -0.4659  0.1467  0.0391
16453TIP3   OH270849   3.587   0.918  11.267  0.0835  0.3085  0.2770
16453TIP3    H170850   3.678   0.904  11.241  0.8387  3.0250  1.0414
16453TIP3    H270851   3.559   0.834  11.302  2.6014 -0.4164  0.8016
16454TIP3   OH270852   5.395   3.276   0.496 -0.3114 -0.0491  0.0161
16454TIP3    H170853   5.314   3.225   0.506 -0.6716 -0.1306 -2.5742
16454TIP3    H270854   5.366   3.367   0.498 -0.2984 -0.0476  0.1773
16455TIP3   OH270855   3.241   4.633   1.059  0.0609 -0.3478 -0.2574
16455TIP3    H170856   3.165   4.683   1.087 -0.4814 -0.4994 -1.4399
16455TIP3    H270857   3.283   4.606   1.141 -1.0225 -0.0776  0.3988
16456TIP3   OH270858   6.006   4.397   0.417 -0.2254  0.1118  0.6951
16456TIP3    H170859   5.961   4.340   0.478 -0.7745  1.8075  1.9474
16456TIP3    H270860   5.946   4.470   0.402  0.2201  0.1348 -1.2774
16457TIP3   OH270861   5.695   0.425  13.126 -0.5705 -0.6453  0.3414
16457TIP3    H170862   5.774   0.385  13.091 -0.1925  1.1754 -1.0517
16457TIP3    H270863   5.633   0.353  13.135  1.2993 -2.2035  1.8272
16458TIP3   OH270864   5.125   0.108   2.855  0.3933 -0.1917  0.1609
16458TIP3    H170865   5.085   0.192   2.878 -0.5539  0.5368 -3.3978
16458TIP3    H270866   5.057   0.043   2.873  0.6156 -0.0540  1.6051
16459TIP3   OH270867   3.548   6.163   6.005  0.3684 -0.3181  0.3014
16459TIP3    H170868   3.453   6.176   6.010  0.3006 -0.7656  0.2450
16459TIP3    H270869   3.579   6.184   6.093  0.4874  1.8105 -0.2102
16460TIP3   OH270870   4.080   5.758   0.663 -0.2882  0.3889 -0.0308
16460TIP3    H170871   3.990   5.752   0.695  0.3860 -0.4526  1.8685
16460TIP3    H270872   4.102   5.669   0.636  0.0453  0.5440 -0.2700
16461TIP3   OH270873   0.515   2.619  12.903 -0.4432  0.0849  0.2725
16461TIP3    H170874   0.448   2.661  12.957 -1.6803  1.1910 -1.9653
16461TIP3    H270875   0.479   2.533  12.883 -0.2998 -0.0604  0.6320
16462TIP3   OH270876   4.119   5.781  16.890 -0.0971 -0.5430  0.1022
16462TIP3    H170877   4.084   5.870  16.897  0.1737 -0.4678  0.5937
16462TIP3    H270878   4.141   5.770  16.798 -1.4594 -0.6155 -0.2373
16463TIP3   OH270879   1.846   5.671   3.979 -0.8857 -0.5083 -0.2910
16463TIP3    H170880   1.908   5.666   4.052 -1.9002  0.6149  0.6980
16463TIP3    H270881   1.878   5.607   3.916  1.0465 -0.2391  0.3554
16464TIP3   OH270882   3.369   3.864   1.447 -0.2036 -0.1791  0.2506
16464TIP3    H170883   3.322   3.948   1.439 -0.7842 -0.5370 -0.1829
16464TIP3    H270884   3.454   3.880   1.405 -0.8504 -0.2064 -1.1502
16465TIP3   OH270885   0.222   1.243  13.441  0.0939 -0.0292  0.1401
16465TIP3    H170886   0.279   1.268  13.513 -0.9920 -0.9942  1.4042
16465TIP3    H270887   0.211   1.322  13.389  1.4089  0.5241  0.6714
16466TIP3   OH270888   6.040   3.815   2.616 -0.6196 -0.5046  0.8781
16466TIP3    H170889   5.999   3.754   2.677  0.0203 -1.7572  0.0997
16466TIP3    H270890   6.107   3.764   2.571  0.7727  1.0867  1.0249
16467TIP3   OH270891   0.865   5.072   0.908  0.1673  0.0586  0.9163
16467TIP3    H170892   0.949   5.117   0.912  0.2255  0.0454 -0.0100
16467TIP3    H270893   0.805   5.136   0.871 -0.1482 -0.0590  1.2144
16468TIP3   OH270894   4.495   2.438   4.831 -0.1830  0.1354  0.0700
16468TIP3    H170895   4.431   2.478   4.774 -0.4277 -0.1379  0.1499
16468TIP3    H270896   4.527   2.362   4.782  2.3692  1.9642 -1.3100
16469TIP3   OH270897   6.705   0.264   3.576 -0.3771  0.6130  0.3845
16469TIP3    H170898   6.715   0.232   3.666 -1.4191  1.2929  0.7686
16469TIP3    H270899   6.691   0.185   3.524 -0.3164  0.2487  0.9070
16470TIP3   OH270900   5.361   6.682   2.180  0.0505 -0.2163  0.0395
16470TIP3    H170901   5.323   6.606   2.224  0.6752 -0.7425 -0.3120
16470TIP3    H270902   5.326   6.757   2.227  1.1938 -0.7676  1.8760
16471TIP3   OH270903   4.178   1.752   4.778  0.0588  0.2034 -0.0564
16471TIP3    H170904   4.126   1.678   4.810  0.2694 -0.0179 -0.2231
16471TIP3    H270905   4.249   1.712   4.728 -0.7668  0.5513 -1.5778
16472TIP3   OH270906   1.297   4.143  15.446 -0.4208  0.0470  0.4757
16472TIP3    H170907   1.374   4.190  15.478  0.6161 -1.0464 -0.3514
16472TIP3    H270908   1.240   4.136  15.523  0.8785 -0.2637  1.4426
16473TIP3   OH270909   5.658   3.836  12.297  0.8180 -0.4021 -0.8639
16473TIP3    H170910   5.730   3.866  12.353  0.7064 -0.5140 -0.6622
16473TIP3    H270911   5.636   3.749  12.330 -0.3135  0.1703 -0.0629
16474TIP3   OH270912   2.863   2.456  12.344 -0.5911 -0.0980 -0.0592
16474TIP3    H170913   2.778   2.418  12.321 -0.1996 -0.2970 -1.2462
16474TIP3    H270914   2.923   2.381  12.345  0.0310  0.3560 -1.6184
16475TIP3   OH270915   0.747   6.329  17.007  0.4249  0.1772 -0.2152
16475TIP3    H170916   0.804   6.266  17.052 -0.2650 -1.1452 -1.1174
16475TIP3    H270917   0.700   6.374  17.077  0.4066 -0.8330  0.4488
16476TIP3   OH270918   3.604   4.441   2.323  0.1812  1.2796  0.5534
16476TIP3    H170919   3.619   4.475   2.235  1.5026  0.3143  0.3757
16476TIP3    H270920   3.517   4.474   2.347  0.3479  2.6265 -0.5827
16477TIP3   OH270921   6.326   0.407  14.796 -0.2456  0.8315 -0.8546
16477TIP3    H170922   6.397   0.470  14.804  0.3456  0.1872 -0.9853
16477TIP3    H270923   6.355   0.331  14.846 -0.6635  0.4039 -1.2531
16478TIP3   OH270924   6.305   3.852   4.370  0.1597  0.4449  0.7046
16478TIP3    H170925   6.298   3.909   4.446  0.5836 -0.0148  1.1008
16478TIP3    H270926   6.312   3.911   4.296 -0.2754  0.8977  1.0233
16479TIP3   OH270927   3.231   4.147  17.098  0.0522 -0.0741 -0.4948
16479TIP3    H170928   3.313   4.127  17.144 -0.1490 -0.9585 -0.5048
16479TIP3    H270929   3.170   4.078  17.126 -0.0405 -0.7136 -2.1520
16480TIP3   OH270930   4.098   3.109   6.619 -0.5952 -0.1071  0.0421
16480TIP3    H170931   4.055   3.164   6.685 -2.1074 -0.6896 -0.4152
16480TIP3    H270932   4.181   3.154   6.601 -0.1401  0.0899  2.2995
16481TIP3   OH270933   4.119   4.836  16.535 -0.0114 -0.1560  0.5407
16481TIP3    H170934   4.103   4.744  16.511 -1.3643 -0.1388  1.2605
16481TIP3    H270935   4.213   4.841  16.547  0.1905 -1.2350 -0.3599
16482TIP3   OH270936   1.443   2.759  12.582 -0.1489 -0.3961  0.0746
16482TIP3    H170937   1.461   2.680  12.632  0.0810 -0.0550  0.5353
16482TIP3    H270938   1.421   2.727  12.494 -0.9871 -1.0110  0.5046
16483TIP3   OH270939   3.650   3.589  16.610  0.2842  0.2043  0.0064
16483TIP3    H170940   3.599   3.512  16.636 -1.9070  1.7764  0.6965
16483TIP3    H270941   3.658   3.581  16.515 -0.9896 -0.2926 -0.0889
16484TIP3   OH270942   2.170   6.704  15.409 -0.2095 -0.1610  0.1441
16484TIP3    H170943   2.103   6.693  15.342 -1.0039 -1.4847  1.1097
16484TIP3    H270944   2.166   6.797  15.432 -0.5645  0.1135 -0.9562
16485TIP3   OH270945   0.546   3.544   5.333  0.1165 -0.2333  0.3080
16485TIP3    H170946   0.485   3.602   5.379  0.3772  1.7548 -1.6754
16485TIP3    H270947   0.498   3.462   5.322 -1.6737  0.7948  0.0923
16486TIP3   OH270948   4.603   6.302   1.186  0.2470  0.1776 -0.4423
16486TIP3    H170949   4.642   6.261   1.109  0.2663 -0.8391  0.0949
16486TIP3    H270950   4.678   6.337   1.235  0.2593  0.5734 -0.7473
16487TIP3   OH270951   4.658   4.560   6.328  0.6292 -0.5218 -0.2340
16487TIP3    H170952   4.580   4.505   6.314 -0.6810  1.1381  0.1823
16487TIP3    H270953   4.698   4.525   6.407 -0.7188 -0.3366  0.5680
16488TIP3   OH270954   1.226   5.391  14.346  0.5101 -0.1538 -0.8147
16488TIP3    H170955   1.136   5.391  14.313  0.3941 -0.1234 -0.5034
16488TIP3    H270956   1.280   5.387  14.268  0.2433  0.3135 -1.0312
16489TIP3   OH270957   1.895   2.733  16.288  0.0972  0.3636  0.0042
16489TIP3    H170958   1.916   2.674  16.215  3.6873  2.6293 -1.0382
16489TIP3    H270959   1.821   2.785  16.257 -1.1208 -1.4138 -0.2467
16490TIP3   OH270960   0.832   0.425  15.272 -0.3368  0.2408 -0.4205
16490TIP3    H170961   0.887   0.389  15.341  0.1515  0.4179 -0.7128
16490TIP3    H270962   0.880   0.502  15.241 -0.9324  0.6177 -0.4169
16491TIP3   OH270963   5.570   0.729  13.529 -0.3764  0.3389 -0.0553
16491TIP3    H170964   5.566   0.802  13.468  0.0143  0.3643 -0.0506
16491TIP3    H270965   5.641   0.751  13.590  0.0627 -0.2646 -0.3440
16492TIP3   OH270966   0.043   3.012  16.696  0.3916  0.2498  0.1331
16492TIP3    H170967   0.119   3.068  16.714  1.0051 -0.5310 -0.0009
16492TIP3    H270968   0.079   2.924  16.687 -0.6041 -0.2232  0.6258
16493TIP3   OH270969   5.076   1.717   0.947 -0.2514  0.7461 -0.0628
16493TIP3    H170970   5.070   1.805   0.985  0.6131  0.3300  1.0842
16493TIP3    H270971   5.074   1.658   1.022  0.8695 -0.1377 -0.7032
16494TIP3   OH270972   0.183   5.731   3.651  0.1765  0.0294  0.6175
16494TIP3    H170973   0.179   5.784   3.571  3.7257  2.0070  1.5314
16494TIP3    H270974   0.214   5.645   3.621  0.7450  0.5160 -0.2385
16495TIP3   OH270975   5.396   3.744   4.925  0.4222  0.0853  0.7750
16495TIP3    H170976   5.355   3.719   4.842 -0.9503 -0.1483  1.5012
16495TIP3    H270977   5.356   3.828   4.948  0.0543 -0.3327  1.6935
16496TIP3   OH270978   5.424   3.688   1.298  0.2512 -0.3014 -0.2010
16496TIP3    H170979   5.517   3.702   1.284  0.1599  1.1504  0.4696
16496TIP3    H270980   5.419   3.636   1.378  0.4590  0.8257  0.5595
16497TIP3   OH270981   6.826   2.620  11.640 -0.0256 -0.1806 -0.0489
16497TIP3    H170982   6.754   2.612  11.703 -1.1971  1.0326 -1.1924
16497TIP3    H270983   6.836   2.714  11.626  0.6819 -0.4004 -1.1529
16498TIP3   OH270984   0.541   3.681   1.803 -0.2049 -0.1832 -0.0431
16498TIP3    H170985   0.500   3.767   1.793  0.8455  0.1811 -1.5876
16498TIP3    H270986   0.473   3.627   1.843 -1.1683  1.1373  0.1966
16499TIP3   OH270987   5.889   2.038   6.375 -0.4344  0.2909 -0.0206
16499TIP3    H170988   5.917   2.018   6.286 -0.2699  2.2395 -0.4602
16499TIP3    H270989   5.960   2.092   6.410 -1.4749  1.3743  0.4927
16500TIP3   OH270990   2.009   2.526   0.074  0.1875  0.6135  0.1537
16500TIP3    H170991   2.019   2.431   0.060 -2.4685  0.3019 -0.1502
16500TIP3    H270992   2.026   2.564  -0.012  1.2710  0.4278  0.2755
16501TIP3   OH270993   5.602   4.352  11.479  0.2769  0.0987 -0.4269
16501TIP3    H170994   5.678   4.409  11.485  0.0675  0.2626  1.2813
16501TIP3    H270995   5.634   4.266  11.508  0.1057 -0.1426 -0.9414
16502TIP3   OH270996   3.811   3.233   1.818  0.0041 -0.1425  0.3205
16502TIP3    H170997   3.751   3.193   1.756  1.5072  0.4252 -1.5789
16502TIP3    H270998   3.788   3.193   1.902 -1.0805 -2.0855 -0.8242
16503TIP3   OH270999   4.335   2.283   2.948 -0.1703  0.1977 -0.7002
16503TIP3    H171000   4.345   2.353   2.884  1.1722  1.8342  1.1826
16503TIP3    H271001   4.424   2.256   2.969 -0.6486 -1.8057 -1.0460
16504TIP3   OH271002   6.683   3.406  15.370  0.2336  0.0837  0.1955
16504TIP3    H171003   6.760   3.376  15.419  0.7805 -1.3629 -1.4260
16504TIP3    H271004   6.609   3.384  15.426  0.7631 -2.4790  0.0226
16505TIP3   OH271005   5.591   2.862  11.740 -0.5756  0.3546 -0.2838
16505TIP3    H171006   5.659   2.916  11.779 -1.5168  1.7709 -0.5265
16505TIP3    H271007   5.520   2.862  11.804 -1.0998  0.5081 -0.8475
16506TIP3   OH271008   5.146   2.411   1.997  0.2922  0.6858 -0.4220
16506TIP3    H171009   5.121   2.439   1.909 -1.2514  1.0367  0.1054
16506TIP3    H271010   5.176   2.321   1.985  0.8681  0.9856 -1.4124
16507TIP3   OH271011   5.489   0.112   3.724 -0.8295  0.2984  0.0305
16507TIP3    H171012   5.576   0.141   3.753 -0.9168  0.6401 -0.0465
16507TIP3    H271013   5.428   0.175   3.762 -0.9388  0.8153 -0.9492
16508TIP3   OH271014   5.362   4.459  13.891 -0.9109  0.0156 -0.9885
16508TIP3    H171015   5.387   4.523  13.824 -0.9934  1.0480 -0.0787
16508TIP3    H271016   5.357   4.511  13.972 -0.8806 -1.1777 -0.1989
16509TIP3   OH271017   2.145   5.394  13.946  0.4432  0.8561 -0.0272
16509TIP3    H171018   2.170   5.367  13.858  0.9085  1.1703  0.0051
16509TIP3    H271019   2.050   5.406  13.941  0.6113  2.0298 -0.8022
16510TIP3   OH271020   2.579   1.971   1.862 -0.3937 -0.5020  0.1238
16510TIP3    H171021   2.526   1.960   1.784  0.9310  2.0881 -1.2597
16510TIP3    H271022   2.668   1.947   1.835  0.1367  0.6865  0.7224
16511TIP3   OH271023   1.370   1.338  12.699 -0.4567 -0.4448  0.0466
16511TIP3    H171024   1.411   1.410  12.651 -0.7433 -0.1351  0.2578
16511TIP3    H271025   1.278   1.342  12.673 -1.0580  0.9911  2.0965
16512TIP3   OH271026   5.018   2.904   0.692  0.6521 -0.1463  0.6053
16512TIP3    H171027   4.949   2.930   0.753 -0.5742 -2.4812  0.3286
16512TIP3    H271028   5.045   2.986   0.650 -3.0016  0.7715 -0.3269
16513TIP3   OH271029   4.451   5.853  12.337 -0.7902  0.2108  0.3492
16513TIP3    H171030   4.450   5.762  12.307 -2.2891  0.1949  0.3967
16513TIP3    H271031   4.470   5.903  12.258 -0.6926 -0.0886  0.1780
16514TIP3   OH271032   6.605   4.363  16.098 -0.4352  0.3255 -0.2055
16514TIP3    H171033   6.632   4.278  16.134 -0.6808  0.6780  0.8586
16514TIP3    H271034   6.513   4.372  16.124 -0.3615  0.9945 -0.1481
16515TIP3   OH271035   4.187   2.416   3.147 -0.3556  0.6744  0.3916
16515TIP3    H171036   4.211   2.357   3.076 -0.0040 -0.4156  1.3876
16515TIP3    H271037   4.130   2.481   3.106 -0.2758 -0.0173 -0.8503
16516TIP3   OH271038   2.808   6.792  14.304  0.3502  0.1056 -0.3762
16516TIP3    H171039   2.745   6.857  14.336  0.2296 -0.1524 -0.0835
16516TIP3    H271040   2.852   6.835  14.231 -1.1985 -0.2227 -1.5595
16517TIP3   OH271041   6.301   0.397   0.892 -0.1806 -0.3696  1.0415
16517TIP3    H171042   6.294   0.479   0.843 -0.0875 -0.2962  1.1488
16517TIP3    H271043   6.214   0.359   0.889 -0.0234 -0.6819  0.2680
16518TIP3   OH271044   2.531   4.490   2.116 -0.4868 -0.1166 -0.3832
16518TIP3    H171045   2.506   4.471   2.026  0.9376  0.5560 -0.9556
16518TIP3    H271046   2.601   4.556   2.108  2.7297 -3.0215  0.9480
16519TIP3   OH271047   4.156   5.400   6.477 -0.0194 -0.1174  0.3142
16519TIP3    H171048   4.205   5.479   6.454 -0.7932  0.4562  0.5642
16519TIP3    H271049   4.069   5.432   6.500 -0.3980 -1.0693  0.2606
16520TIP3   OH271050   4.594   0.692   1.326 -0.2411 -0.1388 -0.1529
16520TIP3    H171051   4.565   0.782   1.342  1.1643  0.0141  1.8710
16520TIP3    H271052   4.674   0.702   1.273  0.4037 -0.1322  0.8084
16521TIP3   OH271053   3.411   4.386  13.151 -0.0733  0.3306 -0.1315
16521TIP3    H171054   3.321   4.409  13.130 -0.3183 -0.7613 -0.3350
16521TIP3    H271055   3.439   4.329  13.078  0.1917 -0.7568  0.7863
16522TIP3   OH271056   3.981   4.144  13.574  0.3268 -0.1724 -0.2452
16522TIP3    H171057   3.903   4.117  13.623  0.1413  2.5354  1.1171
16522TIP3    H271058   4.046   4.075  13.592 -0.8821 -1.0757  0.8337
16523TIP3   OH271059   3.793   5.652  16.592 -0.1670  0.1682  0.4392
16523TIP3    H171060   3.876   5.649  16.641 -0.1259  0.9094  0.4362
16523TIP3    H271061   3.726   5.630  16.656  0.0180 -0.2424  0.4910
16524TIP3   OH271062   2.912   5.103   1.151 -0.1167  0.8489  0.5241
16524TIP3    H171063   2.976   5.174   1.139 -0.2293  0.9378  0.4500
16524TIP3    H271064   2.883   5.082   1.063 -0.4747  1.0709  0.5886
16525TIP3   OH271065   4.405   0.301  14.738 -0.3295  0.2030  0.3674
16525TIP3    H171066   4.406   0.354  14.818  0.5534  0.9354 -0.1026
16525TIP3    H271067   4.435   0.362  14.670  0.8610 -0.9442 -0.1697
16526TIP3   OH271068   0.646   4.563   4.469 -0.0237 -0.2312 -0.2240
16526TIP3    H171069   0.610   4.650   4.487 -2.1015 -1.2651  0.8890
16526TIP3    H271070   0.729   4.561   4.517  1.3597  1.9567 -2.2677
16527TIP3   OH271071   4.476   2.979  12.414  0.3248  0.4357  0.0994
16527TIP3    H171072   4.516   2.952  12.496  0.0650  0.4184  0.2196
16527TIP3    H271073   4.439   2.899  12.377 -0.9038  0.7089  0.7104
16528TIP3   OH271074   1.104   3.131  13.007  0.3005 -0.1516 -0.4345
16528TIP3    H171075   1.103   3.226  13.005 -0.5522 -0.1575 -0.5722
16528TIP3    H271076   1.060   3.108  13.089 -0.4158 -0.4400 -0.8965
16529TIP3   OH271077   6.397   0.374   4.411  0.0993  0.5136  0.5621
16529TIP3    H171078   6.395   0.356   4.317 -0.2344 -1.6769  0.9229
16529TIP3    H271079   6.487   0.399   4.429  0.5381 -0.5187 -0.1313
16530TIP3   OH271080   1.623   3.148  14.456  0.0533  0.7829  0.7073
16530TIP3    H171081   1.564   3.148  14.381  1.5542 -0.4289 -0.5255
16530TIP3    H271082   1.709   3.129  14.419  0.6395 -1.2370  2.8619
16531TIP3   OH271083   2.463   3.041   0.867  0.2380 -0.6362  0.2883
16531TIP3    H171084   2.551   3.018   0.899  1.1969 -0.3927 -1.9736
16531TIP3    H271085   2.449   3.130   0.900  1.4915 -0.1139 -0.4896
16532TIP3   OH271086   5.098   4.039  12.215  0.1375 -0.3382  0.2457
16532TIP3    H171087   5.012   4.005  12.242 -0.2859  1.0575  0.7799
16532TIP3    H271088   5.161   3.981  12.257 -0.4791 -2.8430 -2.0545
16533TIP3   OH271089   2.017   5.505  12.352  0.5291 -0.2062 -0.1022
16533TIP3    H171090   2.059   5.430  12.394  0.6754  1.1916  2.4062
16533TIP3    H271091   2.052   5.581  12.398  1.4510  1.5934 -3.4476
16534TIP3   OH271092   5.797   2.114  15.114 -0.3533  0.0385 -0.2596
16534TIP3    H171093   5.855   2.059  15.166 -0.2200  0.4350  0.0188
16534TIP3    H271094   5.769   2.058  15.041 -0.2921 -0.4172  0.0654
16535TIP3   OH271095   3.487   2.020  11.590 -0.2787 -0.0281  0.5400
16535TIP3    H171096   3.578   1.994  11.600 -0.1714  0.5992  1.2804
16535TIP3    H271097   3.474   2.026  11.495  0.6650  0.5947  0.4332
16536TIP3   OH271098   3.948   5.601   4.980 -0.0036  0.1029 -0.0616
16536TIP3    H171099   3.931   5.570   5.068 -0.8477 -0.0506 -0.2692
16536TIP3    H271100   3.862   5.627   4.946  0.6719  3.2078  0.2797
16537TIP3   OH271101   3.034   2.094   3.526  0.1160  0.8534 -0.0827
16537TIP3    H171102   3.004   2.170   3.575 -0.4002  0.0047  0.9382
16537TIP3    H271103   2.954   2.052   3.494  0.2962 -0.2100  0.8188
16538TIP3   OH271104   1.487   4.395   0.036 -0.3900  0.4000  0.4398
16538TIP3    H171105   1.428   4.355  -0.028 -0.4749 -0.4001  0.9996
16538TIP3    H271106   1.531   4.465  -0.012 -0.2731 -0.3417 -0.5582
16539TIP3   OH271107   3.988   5.404  13.804 -0.0433  0.6253 -0.1465
16539TIP3    H171108   3.938   5.470  13.852 -0.4499  0.4934 -0.3818
16539TIP3    H271109   4.077   5.411  13.838  0.0685  1.7604 -0.6421
16540TIP3   OH271110   3.650   5.573   1.600 -0.2451 -0.1657  0.0445
16540TIP3    H171111   3.718   5.631   1.632 -1.0244  0.0303  1.4366
16540TIP3    H271112   3.624   5.521   1.677 -1.4413 -0.4422 -0.5170
16541TIP3   OH271113   2.144   4.362  12.254 -0.1604 -0.0712  0.4238
16541TIP3    H171114   2.120   4.452  12.276  1.0920  1.0805 -2.5106
16541TIP3    H271115   2.061   4.314  12.254 -1.0750  1.4618  0.3496
16542TIP3   OH271116   2.401   2.416   4.765 -0.2395  0.1155 -0.0452
16542TIP3    H171117   2.356   2.384   4.842 -0.7623  0.9667  0.0174
16542TIP3    H271118   2.351   2.382   4.691 -0.5879  0.4890  0.0156
16543TIP3   OH271119   5.486   6.155   1.176  0.3902  0.4430  0.5766
16543TIP3    H171120   5.538   6.203   1.240  2.8479 -1.4492  0.1432
16543TIP3    H271121   5.462   6.221   1.110  0.3651  1.7991  1.8993
16544TIP3   OH271122   5.739   4.982   1.494  0.0125 -0.4729 -0.0306
16544TIP3    H171123   5.682   5.045   1.452 -0.0500 -0.0912  0.6052
16544TIP3    H271124   5.774   5.028   1.571 -0.9054 -1.5537  1.0843
16545TIP3   OH271125   5.169   4.367  12.814  0.4227  0.3329 -0.6103
16545TIP3    H171126   5.212   4.406  12.889  1.9321  0.2030 -1.3674
16545TIP3    H271127   5.180   4.273  12.826  1.4918  0.3366 -1.4300
16546TIP3   OH271128   6.076   6.133  11.941  0.5332  0.1757  0.3980
16546TIP3    H171129   6.036   6.146  12.027 -0.7382 -2.6047  0.3347
16546TIP3    H271130   6.127   6.053  11.950 -1.2294 -1.3376 -1.8685
16547TIP3   OH271131   4.919   3.139  11.759 -0.3077 -0.5276 -0.2045
16547TIP3    H171132   4.934   3.231  11.736 -1.0763 -0.6265 -1.1481
16547TIP3    H271133   4.995   3.115  11.812  1.4290 -0.1866 -2.4022
16548TIP3   OH271134   3.605   6.283   4.626 -0.5354 -0.1848  0.0308
16548TIP3    H171135   3.514   6.290   4.657 -0.4964 -1.3616  0.4880
16548TIP3    H271136   3.598   6.290   4.531 -1.1064 -0.1811  0.0666
16549TIP3   OH271137   2.449   4.372  14.212  0.5110  0.4809 -0.5733
16549TIP3    H171138   2.379   4.409  14.157 -0.7666 -0.6634  0.2130
16549TIP3    H271139   2.403   4.321  14.279  2.0682  0.8768  0.8712
16550TIP3   OH271140   2.376   1.777   0.837  0.2222 -0.6213  0.9327
16550TIP3    H171141   2.456   1.729   0.817 -0.9221 -1.9099 -0.8505
16550TIP3    H271142   2.318   1.712   0.875 -1.0099 -0.5091 -0.6276
16551TIP3   OH271143   1.132   4.305  10.389 -0.4404 -0.8151 -0.2335
16551TIP3    H171144   1.106   4.216  10.411  0.4667 -0.4860  2.6930
16551TIP3    H271145   1.222   4.296  10.357  0.0875 -0.9352  1.1682
16552TIP3   OH271146   4.253   1.575  12.535 -0.0351  0.0356  0.1830
16552TIP3    H171147   4.310   1.559  12.610 -0.3113 -1.8175  0.0432
16552TIP3    H271148   4.221   1.664  12.549 -0.3599 -0.3590  2.4740
16553TIP3   OH271149   2.759   2.395   4.414  0.3194 -0.5808  0.6239
16553TIP3    H171150   2.824   2.326   4.407  2.0224  0.8297  1.5745
16553TIP3    H271151   2.704   2.369   4.489  1.7075 -0.3519  1.7631
16554TIP3   OH271152   3.983   5.206   4.624 -0.0796  0.0189  0.0964
16554TIP3    H171153   3.930   5.214   4.703 -1.5013  0.6521 -0.8876
16554TIP3    H271154   4.028   5.291   4.616  1.6024 -0.7155  1.2447
16555TIP3   OH271155   3.907   6.361   6.377 -0.0480 -0.2516  0.3007
16555TIP3    H171156   3.813   6.380   6.380  0.0823  0.8305 -1.2136
16555TIP3    H271157   3.930   6.338   6.467 -1.5255  0.6598  0.9470
16556TIP3   OH271158   6.237   3.173   4.810 -0.5967 -0.1966  0.2284
16556TIP3    H171159   6.295   3.133   4.745 -0.5664  0.6868 -0.2970
16556TIP3    H271160   6.189   3.099   4.847 -1.7733 -0.5887 -1.9291
16557TIP3   OH271161   0.912   4.291  13.686  0.0646 -0.4189  0.1366
16557TIP3    H171162   0.899   4.280  13.780 -0.1971 -2.1032 -0.0781
16557TIP3    H271163   0.840   4.243  13.646 -0.5550  1.3112 -0.9457
16558TIP3   OH271164   1.387   4.207  16.958  0.0123  0.5404  0.2049
16558TIP3    H171165   1.352   4.118  16.953  1.1351  0.1466 -1.1704
16558TIP3    H271166   1.481   4.196  16.969 -0.0082  1.5864  1.7419
16559TIP3   OH271167   1.369   6.295  13.521 -0.3823  0.1162  0.3775
16559TIP3    H171168   1.398   6.205  13.529  1.6378  0.7852  1.1627
16559TIP3    H271169   1.274   6.289  13.512 -0.2155 -2.0995 -0.4620
16560TIP3   OH271170   2.063   5.969  16.085  0.2305 -0.4543  0.1269
16560TIP3    H171171   2.124   6.014  16.026  0.0414  0.2689  0.4646
16560TIP3    H271172   2.065   5.878  16.057  1.1340 -0.3584 -0.1487
16561TIP3   OH271173   6.788   3.303   5.646  0.6825 -0.7244 -0.6793
16561TIP3    H171174   6.802   3.373   5.583  1.5321 -1.4488 -1.3147
16561TIP3    H271175   6.697   3.314   5.675  1.3380  1.7836  0.6804
16562TIP3   OH271176   1.126   3.555   4.194  0.6785 -0.0881 -0.5250
16562TIP3    H171177   1.158   3.497   4.125  1.7066  0.3552 -0.4412
16562TIP3    H271178   1.040   3.584   4.164  0.5316 -0.9590 -0.9727
16563TIP3   OH271179   6.621   2.522  13.202 -0.0192  0.3967 -0.3196
16563TIP3    H171180   6.649   2.459  13.136  0.4296  0.6123 -0.3405
16563TIP3    H271181   6.539   2.558  13.168  0.3695  0.7324 -0.9199
16564TIP3   OH271182   5.932   0.681   2.717  0.0015 -0.0974 -0.0628
16564TIP3    H171183   5.924   0.771   2.686 -1.3442  0.6330  2.2010
16564TIP3    H271184   6.020   0.676   2.754  0.7058 -0.2599 -1.6807
16565TIP3   OH271185   2.245   2.824  12.884 -0.1163 -0.0584 -0.4795
16565TIP3    H171186   2.322   2.770  12.869  1.2467  1.5997  0.2544
16565TIP3    H271187   2.179   2.763  12.916  1.6774 -1.1921  1.2982
16566TIP3   OH271188   1.145   1.712   3.767  0.1382 -0.4261 -0.2353
16566TIP3    H171189   1.152   1.633   3.713  0.2476 -1.7417  1.5683
16566TIP3    H271190   1.145   1.678   3.857  2.1458  1.7553  0.6826
16567TIP3   OH271191   5.392   3.347  14.197  0.1228  0.0750  0.0570
16567TIP3    H171192   5.342   3.413  14.245 -0.8059  1.0007 -2.0596
16567TIP3    H271193   5.432   3.395  14.124 -1.1143 -1.7472 -1.9477
16568TIP3   OH271194   2.200   4.923   5.552 -0.2147  0.2530 -0.4437
16568TIP3    H171195   2.279   4.965   5.518  0.0113 -0.0911 -0.3379
16568TIP3    H271196   2.231   4.848   5.602 -0.5218  0.8656  0.7121
16569TIP3   OH271197   0.972   2.587   3.167 -0.4459 -0.4777  0.6774
16569TIP3    H171198   0.887   2.547   3.189 -1.3532 -0.9001 -3.0060
16569TIP3    H271199   1.027   2.514   3.139 -0.1315  0.1653 -0.4541
16570TIP3   OH271200   6.301   5.013  17.082  0.5175  0.1621 -0.5996
16570TIP3    H171201   6.364   5.008  17.010  1.6548 -0.0146  0.3747
16570TIP3    H271202   6.354   5.002  17.161 -0.8403 -0.8512  0.2233
16571TIP3   OH271203   0.580   6.024  12.624  0.2983  0.4785 -0.1236
16571TIP3    H171204   0.612   5.935  12.608  0.3083  0.4756 -0.0875
16571TIP3    H271205   0.614   6.075  12.552 -0.6331  0.2332 -0.7624
16572TIP3   OH271206   1.186   4.472   3.748  0.3862  0.1036 -0.4474
16572TIP3    H171207   1.140   4.552   3.775  0.0535 -0.2010 -0.1112
16572TIP3    H271208   1.208   4.487   3.656  0.1093  0.4781 -0.4545
16573TIP3   OH271209   5.119   5.244   5.416 -0.2838  0.6695 -0.2424
16573TIP3    H171210   5.083   5.308   5.478  2.8215  0.0194  2.4943
16573TIP3    H271211   5.083   5.160   5.444 -2.6359  0.8092 -2.4839
16574TIP3   OH271212   4.197   4.958   3.854  0.2074  0.4632 -0.1111
16574TIP3    H171213   4.133   4.959   3.925 -1.7079 -1.1442 -1.6882
16574TIP3    H271214   4.172   5.031   3.797  0.5326  0.5794 -0.1074
16575TIP3   OH271215   5.567   6.798   2.840  0.0214  0.1598 -0.1850
16575TIP3    H171216   5.497   6.812   2.904  0.2767  2.0226 -0.2307
16575TIP3    H271217   5.533   6.836   2.759  0.5204 -0.2499 -0.5898
16576TIP3   OH271218   0.146   0.921  16.450 -1.1008  0.1840  0.0673
16576TIP3    H171219   0.204   0.991  16.479  0.6461 -1.2158  0.1218
16576TIP3    H271220   0.060   0.943  16.488 -0.4570  1.9216  0.5995
16577TIP3   OH271221   5.784   4.070  14.256 -0.2731  0.0104  0.6100
16577TIP3    H171222   5.720   4.072  14.185  0.2670  2.1585  0.0831
16577TIP3    H271223   5.835   4.150  14.244  0.5671 -0.1185  2.7761
16578TIP3   OH271224   2.546   3.294  13.075  0.3585 -0.0267 -0.1961
16578TIP3    H171225   2.550   3.259  12.986  0.7984 -0.9473  0.1728
16578TIP3    H271226   2.493   3.231  13.124 -0.4825  0.8398  0.0386
16579TIP3   OH271227   3.938   1.963  16.661  0.0600  0.3734  0.3529
16579TIP3    H171228   4.018   1.918  16.689  0.0396 -0.5023 -0.9042
16579TIP3    H271229   3.962   2.003  16.578 -1.0037 -0.5641 -0.4392
16580TIP3   OH271230   2.393   3.964  13.385 -0.2879 -0.1937  0.5809
16580TIP3    H171231   2.373   3.989  13.295 -0.4537 -0.4418  0.5493
16580TIP3    H271232   2.437   3.880  13.377 -0.5596 -0.3526  0.7521
16581TIP3   OH271233   4.165   1.750   3.938  0.4137  0.1187 -0.0230
16581TIP3    H171234   4.097   1.808   3.905  0.8169 -0.0407 -1.2086
16581TIP3    H271235   4.122   1.696   4.003 -0.6367 -0.0780 -0.8573
16582TIP3   OH271236   6.502   6.436   4.934  0.2845  0.1137  0.0500
16582TIP3    H171237   6.495   6.348   4.973 -0.5485 -0.6165 -1.6665
16582TIP3    H271238   6.597   6.450   4.925  0.4221 -0.8462 -0.1632
16583TIP3   OH271239   0.906   5.778  16.132 -0.5270  0.1130  0.0727
16583TIP3    H171240   0.940   5.819  16.053  0.4805 -0.0698  0.4016
16583TIP3    H271241   0.879   5.851  16.188  1.0668  0.3450  0.5737
16584TIP3   OH271242   4.419   0.287  16.379  0.4792 -0.4691  0.6316
16584TIP3    H171243   4.349   0.223  16.394  0.9243 -1.1793 -0.2141
16584TIP3    H271244   4.388   0.367  16.421 -0.7179 -0.8586  0.5215
16585TIP3   OH271245   2.291   3.072   1.263 -0.2247 -0.1865  0.2495
16585TIP3    H171246   2.276   3.133   1.190  0.1826 -1.3294 -0.8293
16585TIP3    H271247   2.286   3.127   1.341  0.0351  1.2166 -0.6725
16586TIP3   OH271248   0.437   0.443  12.271  0.4329 -0.3394  0.1318
16586TIP3    H171249   0.484   0.429  12.353 -0.9060 -1.7292  0.7096
16586TIP3    H271250   0.384   0.521  12.286 -1.4918 -1.8096  1.4538
16587TIP3   OH271251   5.863   3.500   5.386  0.1024  0.3841  0.1027
16587TIP3    H171252   5.926   3.431   5.364 -0.3887  0.3682 -1.3169
16587TIP3    H271253   5.914   3.581   5.381  0.5229  0.2018  1.1368
16588TIP3   OH271254   1.496   0.914   5.941 -0.0995  0.1510 -0.2187
16588TIP3    H171255   1.406   0.928   5.968 -0.7756 -1.1209 -1.6658
16588TIP3    H271256   1.548   0.928   6.021 -1.4347  1.9462  0.4009
16589TIP3   OH271257   0.343   5.063  13.647  0.6373  0.4528  0.5085
16589TIP3    H171258   0.421   5.110  13.676  0.2420  0.4684  1.5934
16589TIP3    H271259   0.270   5.124  13.663  0.3587  0.3285 -0.2192
16590TIP3   OH271260   4.411   5.615  13.482  0.2352 -0.4266 -0.7984
16590TIP3    H171261   4.352   5.575  13.546  1.7755 -0.2073  0.8299
16590TIP3    H271262   4.475   5.547  13.462  0.9369  0.1543 -0.5615
16591TIP3   OH271263   0.949   1.320   1.884  0.4706  0.6537 -0.0593
16591TIP3    H171264   0.914   1.247   1.835 -1.0408 -0.2525  2.1935
16591TIP3    H271265   0.908   1.397   1.845  0.4871  0.1239 -1.1530
16592TIP3   OH271266   1.640   3.563  15.104  0.1648 -0.1500  0.4079
16592TIP3    H171267   1.660   3.472  15.085  0.3789 -0.2450  1.0493
16592TIP3    H271268   1.549   3.562  15.133  0.4384 -0.3104  1.3110
16593TIP3   OH271269   5.944   2.596   5.007 -0.1350 -0.0112  0.0165
16593TIP3    H171270   6.012   2.614   4.942  2.2926 -0.0228  2.3994
16593TIP3    H271271   5.975   2.519   5.054 -1.4292  0.4251  1.6832
16594TIP3   OH271272   4.079   0.964  13.154 -0.6695 -0.0108 -0.3870
16594TIP3    H171273   4.069   1.020  13.077 -1.4115 -0.4626 -0.6253
16594TIP3    H271274   4.039   0.881  13.129  1.8763 -1.2533 -0.6217
16595TIP3   OH271275   4.848   2.042  14.998  0.3983  0.2651  0.2834
16595TIP3    H171276   4.913   2.019  15.065 -2.6340 -0.0763  3.3459
16595TIP3    H271277   4.822   1.959  14.960  0.5565  0.2409  0.2258
16596TIP3   OH271278   4.054   5.508   2.189  0.4154  0.0277 -0.3357
16596TIP3    H171279   3.978   5.496   2.246  0.9247 -0.7680  0.2107
16596TIP3    H271280   4.019   5.547   2.110 -0.8863 -1.9452 -0.8116
16597TIP3   OH271281   1.832   3.663  10.442  0.3391  0.0739 -0.2370
16597TIP3    H171282   1.745   3.648  10.406  1.4191 -2.3292 -2.1180
16597TIP3    H271283   1.824   3.744  10.491 -3.1168 -0.4190  0.2534
16598TIP3   OH271284   6.072   1.788   1.339  0.0765 -0.2589 -0.2445
16598TIP3    H171285   6.127   1.757   1.268 -0.1564 -2.2048  0.3558
16598TIP3    H271286   6.111   1.750   1.418 -0.8917  0.1012  0.4311
16599TIP3   OH271287   3.360   0.520   2.059  0.6869 -0.1527 -0.2782
16599TIP3    H171288   3.307   0.446   2.029 -0.0492 -1.5174  3.8099
16599TIP3    H271289   3.447   0.483   2.072  0.3770 -0.3270  1.5319
16600TIP3   OH271290   0.720   4.255   4.638  0.4010 -0.2457 -0.3774
16600TIP3    H171291   0.764   4.255   4.554  0.6482  1.3039 -0.2799
16600TIP3    H271292   0.791   4.252   4.703  0.1919 -2.3383 -0.1871
16601TIP3   OH271293   3.255   2.334  13.453  0.0675  0.1844  0.1865
16601TIP3    H171294   3.217   2.292  13.376 -0.0037 -0.5811  0.6326
16601TIP3    H271295   3.212   2.420  13.457 -0.9492 -0.3140  0.1627
16602TIP3   OH271296   3.756   4.442  12.195  0.6316 -0.7801  0.3796
16602TIP3    H171297   3.747   4.353  12.229  4.0635 -0.2644  3.1936
16602TIP3    H271298   3.812   4.487  12.258 -0.1660  3.1721 -1.3961
16603TIP3   OH271299   3.147   1.105  13.990  0.4503  0.2843  0.4100
16603TIP3    H171300   3.231   1.148  14.007  2.1390 -2.6262  0.1538
16603TIP3    H271301   3.170   1.013  13.977 -2.7627 -0.5397 -0.2287
16604TIP3   OH271302   3.121   1.882  10.861 -0.0879 -0.2282 -0.8460
16604TIP3    H171303   3.026   1.875  10.874  0.0606 -1.1159 -0.1161
16604TIP3    H271304   3.131   1.896  10.767 -0.9361 -0.0882 -0.9318
16605TIP3   OH271305   1.973   5.998   0.576  0.7717 -0.9109  0.1822
16605TIP3    H171306   1.994   5.927   0.515  0.2960 -1.6612  0.8742
16605TIP3    H271307   2.032   5.985   0.650  0.2801 -0.9316  0.5726
16606TIP3   OH271308   0.872   1.967   1.004  0.1173 -0.1373  0.5989
16606TIP3    H171309   0.932   1.902   1.038  0.6223 -1.8518 -3.1282
16606TIP3    H271310   0.786   1.939   1.035  0.6390 -0.8736  1.4142
16607TIP3   OH271311   4.193   5.481  13.620 -0.2762  0.0527 -0.3052
16607TIP3    H171312   4.104   5.458  13.596 -1.6390  2.4272  1.8825
16607TIP3    H271313   4.239   5.397  13.627 -2.2475 -1.2264 -1.6532
16608TIP3   OH271314   3.162   2.260  15.302  0.0901  0.0175  0.4629
16608TIP3    H171315   3.178   2.354  15.315 -1.5448  0.3223  0.4152
16608TIP3    H271316   3.076   2.256  15.260  1.6459 -1.3358 -2.9369
16609TIP3   OH271317   4.241   0.457   0.388 -0.1352  0.1484 -0.0337
16609TIP3    H171318   4.263   0.491   0.301 -1.4258  1.6589  0.1816
16609TIP3    H271319   4.148   0.437   0.383 -0.4470  1.1336  1.2425
16610TIP3   OH271320   5.016   5.799   4.582  1.0040  0.3493  0.0936
16610TIP3    H171321   5.037   5.713   4.545  0.8510  1.5558 -3.1594
16610TIP3    H271322   4.955   5.837   4.519  0.3528  2.5083  1.9196
16611TIP3   OH271323   5.877   4.336  11.311 -0.6053  0.1932  0.1488
16611TIP3    H171324   5.882   4.373  11.399 -1.2079 -1.3922  0.8789
16611TIP3    H271325   5.874   4.413  11.253  2.0539  1.3086  1.2965
16612TIP3   OH271326   0.313   5.062   2.961  0.3649 -0.5046  0.6487
16612TIP3    H171327   0.292   5.134   2.901 -2.9278 -2.5654 -0.9849
16612TIP3    H271328   0.365   5.001   2.908 -0.4336 -1.2096  0.6671
16613TIP3   OH271329   2.900   1.493  11.523  0.1720  0.2172  0.3626
16613TIP3    H171330   2.925   1.401  11.531 -1.5922 -0.1608  2.7615
16613TIP3    H271331   2.935   1.520  11.439  2.1928 -2.1661  0.3123
16614TIP3   OH271332   4.631   3.847  12.100 -0.9681 -0.4701 -0.1046
16614TIP3    H171333   4.666   3.876  12.016 -3.1523 -1.2867 -1.3778
16614TIP3    H271334   4.593   3.925  12.139 -1.0608 -0.3344 -0.4656
16615TIP3   OH271335   6.225   0.510   5.005 -0.4241  0.0021 -1.4113
16615TIP3    H171336   6.259   0.592   4.971 -0.5413  0.9039  0.5089
16615TIP3    H271337   6.142   0.533   5.045  0.5375 -0.5485  1.1011
16616TIP3   OH271338   6.490   0.663   3.014  0.1910 -0.6362  0.3218
16616TIP3    H171339   6.455   0.734   3.068  1.0287  0.6635 -0.7630
16616TIP3    H271340   6.573   0.640   3.055  0.3420 -0.3525  0.1825
16617TIP3   OH271341   1.575   1.603  12.770  0.4957  0.4673  0.1811
16617TIP3    H171342   1.653   1.644  12.808  0.2651  1.8655 -0.7561
16617TIP3    H271343   1.596   1.594  12.677 -0.6184  1.2983 -0.1692
16618TIP3   OH271344   6.313   0.204   2.650  0.4596  0.5419 -0.0166
16618TIP3    H171345   6.389   0.256   2.678  0.3142 -0.2776  2.0464
16618TIP3    H271346   6.238   0.259   2.669  0.4442  0.6094 -0.2774
16619TIP3   OH271347   4.500   1.848  12.467  0.4168 -0.2611  0.0742
16619TIP3    H171348   4.472   1.848  12.559 -0.1685 -0.4458 -0.0976
16619TIP3    H271349   4.428   1.891  12.421  1.3281  1.1102 -0.1275
16620TIP3   OH271350   2.859   1.318  14.769  0.4290  0.0821  0.4598
16620TIP3    H171351   2.802   1.303  14.693  0.1750  1.5069  0.3386
16620TIP3    H271352   2.936   1.363  14.732  1.4646 -1.4139  0.6922
16621TIP3   OH271353   6.654   6.806  13.529  0.0183 -0.6667  0.1153
16621TIP3    H171354   6.707   6.808  13.609  0.0428 -0.9955  0.1093
16621TIP3    H271355   6.715   6.779  13.460  0.1460  0.2356 -0.1349
16622TIP3   OH271356   1.351   2.582  11.139 -0.0703  0.1944 -0.3720
16622TIP3    H171357   1.315   2.551  11.056 -0.4842  1.4090 -0.6595
16622TIP3    H271358   1.285   2.640  11.174 -0.0146 -0.4968  0.9574
16623TIP3   OH271359   3.677   1.044  15.813  0.4241  1.0152 -0.1004
16623TIP3    H171360   3.708   0.988  15.884 -1.0246 -0.1169 -0.3030
16623TIP3    H271361   3.690   0.992  15.734 -0.9988  0.8741 -0.2822
16624TIP3   OH271362   5.509   3.980  15.366 -0.3366 -0.0905 -0.5957
16624TIP3    H171363   5.421   3.959  15.334  0.6901 -1.7796 -2.4844
16624TIP3    H271364   5.529   4.064  15.326 -0.3793 -0.5939 -1.6895
16625TIP3   OH271365   4.747   0.642   3.724  0.1752 -0.1909 -0.1818
16625TIP3    H171366   4.672   0.698   3.704 -0.1103 -0.9161 -1.3035
16625TIP3    H271367   4.823   0.700   3.719 -0.3163  0.6185  1.2807
16626TIP3   OH271368   0.493   0.878   2.002  0.2295 -0.1098  0.6314
16626TIP3    H171369   0.520   0.959   1.958 -0.9584  1.4517  2.6314
16626TIP3    H271370   0.542   0.878   2.085 -0.7413 -0.7752  1.2234
16627TIP3   OH271371   4.022   1.399   2.398  0.1511 -0.0346 -0.2303
16627TIP3    H171372   4.061   1.313   2.379  2.0968  0.7560 -0.0010
16627TIP3    H271373   4.068   1.430   2.475  2.4582  2.9615 -2.5808
16628TIP3   OH271374   4.747   5.955  13.096  0.5148 -0.2642 -0.0314
16628TIP3    H171375   4.656   5.984  13.106  0.3897  0.1251 -1.8895
16628TIP3    H271376   4.745   5.896  13.020  1.7937 -0.3223 -0.0402
16629TIP3   OH271377   4.712   6.557   2.596 -0.0304  0.7222 -0.2481
16629TIP3    H171378   4.748   6.556   2.685 -0.1344  0.1279 -0.2063
16629TIP3    H271379   4.689   6.466   2.579  2.3688  0.3422 -1.8538
16630TIP3   OH271380   3.606   3.535   1.983 -0.4188 -0.5550  0.3309
16630TIP3    H171381   3.547   3.479   1.933  0.4067 -2.1139  1.0625
16630TIP3    H271382   3.638   3.599   1.919 -0.8527 -1.3252 -0.6779
16631TIP3   OH271383   1.619   5.816  15.155  0.2101 -0.3021  0.3744
16631TIP3    H171384   1.700   5.867  15.156 -1.1172  1.9794 -0.4421
16631TIP3    H271385   1.631   5.752  15.085  1.6270 -0.6443  0.8943
16632TIP3   OH271386   1.831   1.222   5.393 -0.2257  0.0033 -0.5964
16632TIP3    H171387   1.911   1.181   5.363 -0.2834  0.5818 -1.5865
16632TIP3    H271388   1.820   1.191   5.482  0.9247 -0.3345 -0.5574
16633TIP3   OH271389   0.727   5.162  14.128 -0.0924 -0.3368  0.1303
16633TIP3    H171390   0.746   5.255  14.119  1.7413 -0.4726  1.9709
16633TIP3    H271391   0.746   5.126  14.041 -2.8845  1.2104 -1.2867
16634TIP3   OH271392   3.535   1.164  13.319 -0.0014  0.4627 -0.3541
16634TIP3    H171393   3.566   1.185  13.231 -0.1235  1.7395 -0.1096
16634TIP3    H271394   3.477   1.237  13.342 -0.3206 -0.0807  0.6110
16635TIP3   OH271395   4.638   1.549  15.993  0.0711  0.4783  0.2574
16635TIP3    H171396   4.569   1.496  15.954  0.3350 -0.2104  0.7262
16635TIP3    H271397   4.704   1.486  16.021  0.4416  1.0591  0.7093
16636TIP3   OH271398   1.700   4.384   4.883 -0.0170  0.0732  0.4305
16636TIP3    H171399   1.633   4.321   4.908 -0.1016  0.6179  1.6914
16636TIP3    H271400   1.651   4.462   4.855  0.0862 -0.3820 -1.0906
16637TIP3   OH271401   3.610   1.016   1.585 -0.2773 -0.4932 -1.1011
16637TIP3    H171402   3.625   1.012   1.491  0.6909  1.3554 -1.0788
16637TIP3    H271403   3.695   1.041   1.622 -0.7358 -0.8035  0.2256
16638TIP3   OH271404   4.934   5.265   0.846 -0.9053 -0.7912 -0.4597
16638TIP3    H171405   4.976   5.207   0.910  1.9916  0.2224 -1.2713
16638TIP3    H271406   4.958   5.353   0.875  0.5679 -0.3037 -2.8662
16639TIP3   OH271407   6.715   2.343   4.894 -0.2097 -0.3635 -0.3324
16639TIP3    H171408   6.712   2.383   4.981  1.0145  0.7222 -0.7525
16639TIP3    H271409   6.723   2.417   4.834 -2.1994 -1.0214 -1.4954
16640TIP3   OH271410   3.133   4.766   4.917 -0.3507  0.1461  0.4666
16640TIP3    H171411   3.073   4.723   4.855  0.4200  0.3909 -0.4705
16640TIP3    H271412   3.140   4.705   4.990  0.0727 -0.9517 -0.4701
16641TIP3   OH271413   6.528   4.769   4.690  0.5228 -0.0961 -0.4754
16641TIP3    H171414   6.543   4.729   4.776  0.6262  1.5073  0.2982
16641TIP3    H271415   6.591   4.727   4.632  1.4563 -0.1759  0.5644
16642TIP3   OH271416   4.832   2.933   4.561 -0.2727  0.1065 -0.0620
16642TIP3    H171417   4.773   2.923   4.486 -0.3171  2.0331 -0.3382
16642TIP3    H271418   4.913   2.968   4.522 -0.6960  2.2672  0.8727
16643TIP3   OH271419   6.716   4.853   4.260 -0.7264 -0.2977  0.1062
16643TIP3    H171420   6.703   4.800   4.181  2.0073 -1.8817  0.5684
16643TIP3    H271421   6.788   4.912   4.237 -0.6010 -0.0540  1.0945
16644TIP3   OH271422   0.979   4.725  11.456 -0.1329 -0.2132 -0.7685
16644TIP3    H171423   0.988   4.779  11.377 -0.4671  0.6145 -0.2527
16644TIP3    H271424   0.899   4.757  11.497  1.1648  0.8728  1.0439
16645TIP3   OH271425   2.456   3.812   2.209 -0.5480  0.4375 -0.1975
16645TIP3    H171426   2.487   3.738   2.157 -0.8169  0.6026 -0.6047
16645TIP3    H271427   2.363   3.793   2.224 -0.6700  0.7887 -0.4854
16646TIP3   OH271428   6.484   5.588  12.160  0.1901  0.2494  0.2561
16646TIP3    H171429   6.578   5.570  12.166  0.0315 -0.2783  1.4156
16646TIP3    H271430   6.477   5.655  12.093  1.4633  0.7147  0.5548
16647TIP3   OH271431   0.306   4.179  14.335 -0.1302  1.0083  0.4332
16647TIP3    H171432   0.333   4.149  14.249 -1.6001  0.3899  0.1676
16647TIP3    H271433   0.349   4.118  14.396 -1.7995 -0.7220 -0.0319
16648TIP3   OH271434   5.996   2.618   0.411  0.1028  0.1214  0.0975
16648TIP3    H171435   5.909   2.607   0.451  0.8849  0.6345  2.0758
16648TIP3    H271436   5.979   2.662   0.329 -1.5247  0.1455  0.4064
16649TIP3   OH271437   6.252   3.694  14.098  0.1053 -0.1356  0.8502
16649TIP3    H171438   6.333   3.728  14.061 -0.0950  0.2354  0.7443
16649TIP3    H271439   6.207   3.772  14.132 -1.9340  0.2442 -2.3375
16650TIP3   OH271440   1.394   4.149  12.859  0.0774 -0.2061 -0.5390
16650TIP3    H171441   1.486   4.128  12.868 -0.1721 -0.8608  0.6682
16650TIP3    H271442   1.378   4.147  12.765  1.1682 -0.6029 -0.7281
16651TIP3   OH271443   0.020   3.738   5.502 -0.1752  0.3545  0.2385
16651TIP3    H171444  -0.058   3.687   5.479  0.9613 -1.3477  0.0066
16651TIP3    H271445   0.049   3.701   5.586  1.1938 -0.0549 -0.3850
16652TIP3   OH271446   1.784   1.490  14.403  0.0244 -0.0287  0.2908
16652TIP3    H171447   1.737   1.571  14.381  0.2246  0.2787  0.9836
16652TIP3    H271448   1.874   1.505  14.373  1.1582  1.6705  4.0129
16653TIP3   OH271449   1.305   2.759  12.913 -0.3344 -0.0149  0.5623
16653TIP3    H171450   1.311   2.854  12.925 -0.2353 -0.0907  1.1252
16653TIP3    H271451   1.385   2.724  12.951 -0.2922 -0.3179  0.2084
16654TIP3   OH271452   5.955   3.730   2.133  0.3519 -0.1098 -0.2366
16654TIP3    H171453   5.992   3.685   2.057  0.5503 -0.8252  0.2719
16654TIP3    H271454   6.017   3.800   2.153  0.4845 -0.1521 -0.5053
16655TIP3   OH271455   0.313   3.427  13.680  0.8526 -0.4128 -0.3969
16655TIP3    H171456   0.380   3.359  13.678  0.6399 -0.7712  1.8132
16655TIP3    H271457   0.301   3.446  13.773 -2.6633 -0.9423 -0.6035
16656TIP3   OH271458   1.789   3.466   6.115  0.3428  0.5603  0.6546
16656TIP3    H171459   1.819   3.489   6.204 -0.7563 -0.2333  1.2466
16656TIP3    H271460   1.695   3.456   6.123  0.3258 -0.2997 -0.4447
16657TIP3   OH271461   4.982   6.331  13.980 -0.7879 -0.2989  0.2452
16657TIP3    H171462   5.053   6.367  13.927 -1.4291  0.3427 -0.1886
16657TIP3    H271463   4.998   6.366  14.068  0.8186 -2.1200  0.7471
16658TIP3   OH271464   5.058   3.098  11.306 -0.8219  0.0488  0.0704
16658TIP3    H171465   4.963   3.098  11.318 -1.0177 -1.3528 -1.1095
16658TIP3    H271466   5.081   3.190  11.297 -2.1463  0.3879 -0.1025
16659TIP3   OH271467   2.713   5.648  16.926  0.2957 -0.2309  0.1277
16659TIP3    H171468   2.725   5.691  17.010 -0.7210  0.5595 -0.1082
16659TIP3    H271469   2.673   5.714  16.870  0.0946 -1.0241 -0.7040
16660TIP3   OH271470   3.336   3.762  12.552 -0.3478 -0.3360 -0.1202
16660TIP3    H171471   3.361   3.831  12.490 -2.9315  0.6335 -0.1899
16660TIP3    H271472   3.420   3.725  12.581  1.0238  0.3173 -2.8616
16661TIP3   OH271473   5.077   5.934   3.077 -0.0980  0.1143 -0.0506
16661TIP3    H171474   4.981   5.938   3.078 -0.0847  0.4641  0.1031
16661TIP3    H271475   5.102   5.949   3.168  0.1078  0.2182 -0.1243
16662TIP3   OH271476   1.613   2.300   3.135  0.2552  0.6409 -0.0414
16662TIP3    H171477   1.557   2.328   3.207  0.8303  1.2643  0.1746
16662TIP3    H271478   1.641   2.382   3.094  1.7287  0.3741  0.4059
16663TIP3   OH271479   1.165   0.996  10.428 -0.7037 -0.4802  0.5301
16663TIP3    H171480   1.190   0.995  10.336 -1.6123 -0.2576  0.2769
16663TIP3    H271481   1.189   0.908  10.459 -0.3176 -0.5298  0.1045
16664TIP3   OH271482   1.536   6.668   6.278  0.2225 -0.6581 -0.5710
16664TIP3    H171483   1.460   6.725   6.293  1.1541  0.2481  1.0480
16664TIP3    H271484   1.599   6.724   6.233  0.1765 -1.2350 -1.3757
16665TIP3   OH271485   4.509   0.505   2.486 -0.2688 -0.0710 -0.3058
16665TIP3    H171486   4.488   0.411   2.482  0.1274 -0.1281 -1.2305
16665TIP3    H271487   4.577   0.517   2.420 -1.4767  1.1697 -1.3757
16666TIP3   OH271488   6.546   4.784  14.702  0.2661 -0.1602  0.1439
16666TIP3    H171489   6.525   4.775  14.795  1.4039 -2.5677  0.2230
16666TIP3    H271490   6.470   4.831  14.666 -0.2988  0.6473  2.2061
16667TIP3   OH271491   1.490   0.510   3.910 -0.4892 -0.2391 -0.3611
16667TIP3    H171492   1.416   0.478   3.860 -2.0621 -0.0928  1.7504
16667TIP3    H271493   1.480   0.605   3.911  0.0284 -0.1779 -0.4913
16668TIP3   OH271494   3.498   2.489   0.685  0.0075 -0.5705 -0.3842
16668TIP3    H171495   3.554   2.542   0.629  0.6341 -1.1125 -0.2844
16668TIP3    H271496   3.541   2.403   0.687 -0.8194 -0.9910 -0.2944
16669TIP3   OH271497   0.990   0.300   5.767 -0.3118 -0.4508 -0.2477
16669TIP3    H171498   0.987   0.383   5.815 -0.6725  0.5258 -1.8880
16669TIP3    H271499   1.057   0.249   5.813  0.4332  1.0166  0.3747
16670TIP3   OH271500   3.101   2.564  10.552 -0.2336 -0.1722 -0.2823
16670TIP3    H171501   3.102   2.530  10.463  0.3130 -2.0727  0.3983
16670TIP3    H271502   3.009   2.560  10.578 -0.4221  0.5509 -0.7764
16671TIP3   OH271503   1.644   3.943  15.928 -0.1642  0.1775  0.0459
16671TIP3    H171504   1.611   3.967  16.014  0.2293  0.6441  0.0707
16671TIP3    H271505   1.737   3.963  15.931  0.0249 -0.6093 -0.2059
16672TIP3   OH271506   5.776   4.799  16.057 -0.4156 -0.5804  0.7122
16672TIP3    H171507   5.708   4.732  16.052  0.6062 -1.5349 -1.7276
16672TIP3    H271508   5.778   4.838  15.970  2.1522 -0.5992  0.6955
16673TIP3   OH271509   3.763   4.808   5.635 -0.2770 -0.0282  0.6172
16673TIP3    H171510   3.845   4.835   5.593  0.7079 -0.2393  2.3162
16673TIP3    H271511   3.773   4.834   5.727 -1.3251 -1.7563  1.2622
16674TIP3   OH271512   2.876   6.700  13.599  0.2839 -0.1464  0.4400
16674TIP3    H171513   2.827   6.638  13.654  2.2732 -1.8770  0.3831
16674TIP3    H271514   2.874   6.661  13.511 -0.0286  0.8778 -0.0268
16675TIP3   OH271515   2.454   2.879   1.149  0.0129  0.2796 -0.1592
16675TIP3    H171516   2.545   2.897   1.174 -0.0839  0.2412  0.2324
16675TIP3    H271517   2.403   2.939   1.202 -0.1852  0.4041 -0.4891
16676TIP3   OH271518   0.344   0.434   4.831  0.4605 -0.0740 -0.2908
16676TIP3    H171519   0.312   0.465   4.915  0.8461  1.8451 -0.7984
16676TIP3    H271520   0.424   0.484   4.816 -0.2018  0.4833 -2.3003
16677TIP3   OH271521   3.172   5.124  14.567  0.1771 -0.3843  0.1916
16677TIP3    H171522   3.126   5.043  14.589  0.3843 -0.9109 -1.1945
16677TIP3    H271523   3.264   5.097  14.559  0.6625  0.5097  2.2062
16678TIP3   OH271524   0.072   0.871   1.947  0.2051 -0.3864  0.3270
16678TIP3    H171525   0.063   0.829   1.861 -2.0468  2.0713 -0.7916
16678TIP3    H271526   0.004   0.829   2.000 -0.3125  0.0151 -0.0005
16679TIP3   OH271527   2.115   5.535   2.994 -0.3980 -0.3124 -0.1000
16679TIP3    H171528   2.034   5.523   2.944 -0.3969  1.1644 -0.4894
16679TIP3    H271529   2.185   5.534   2.929 -0.2797  0.3599  0.0103
16680TIP3   OH271530   1.935   3.409   5.889  0.2274 -0.2346 -0.1309
16680TIP3    H171531   1.863   3.425   5.951 -0.4541 -0.7354 -0.7766
16680TIP3    H271532   1.895   3.358   5.819  1.1648 -0.2987 -0.6294
16681TIP3   OH271533   0.354   0.061   0.104  0.1186 -0.3450 -0.5423
16681TIP3    H171534   0.356   0.032   0.195  1.7610 -1.3004 -0.8269
16681TIP3    H271535   0.430   0.119   0.097  0.0844 -0.3932 -1.3386
16682TIP3   OH271536   1.328   3.152   0.349 -0.1286 -0.1620 -0.6930
16682TIP3    H171537   1.290   3.195   0.425  2.3371 -0.3396  0.7503
16682TIP3    H271538   1.259   3.093   0.317 -0.6695 -1.5092  2.6046
16683TIP3   OH271539   3.277   5.854   6.838  0.2371 -0.1403  0.1605
16683TIP3    H171540   3.359   5.900   6.856 -0.0199 -0.2401  1.7230
16683TIP3    H271541   3.289   5.817   6.750  1.5363  0.5379  0.0317
16684TIP3   OH271542   1.350   3.903  14.546 -0.4146 -0.1529  0.0941
16684TIP3    H171543   1.367   3.822  14.593  0.8399  0.0218 -0.0231
16684TIP3    H271544   1.435   3.946  14.541 -0.0358 -0.9785 -3.8919
16685TIP3   OH271545   2.790   1.798  12.514 -0.2779 -0.6038  0.1314
16685TIP3    H171546   2.871   1.762  12.477 -1.3594 -0.9949 -1.9860
16685TIP3    H271547   2.795   1.775  12.607  1.3717 -1.8712 -0.2150
16686TIP3   OH271548   0.113   2.797  11.138 -0.0253  0.7436  0.4254
16686TIP3    H171549   0.062   2.871  11.104  0.9730  0.6128 -1.5327
16686TIP3    H271550   0.051   2.745  11.189 -1.5918  1.1210 -1.0207
16687TIP3   OH271551   3.281   6.478   1.879 -0.5225  0.0008 -0.8148
16687TIP3    H171552   3.197   6.435   1.891  0.5266 -1.6635  1.0550
16687TIP3    H271553   3.308   6.503   1.967  0.8848  0.6330 -1.3957
16688TIP3   OH271554   3.425   0.725  15.948  0.2267  0.2402 -0.4139
16688TIP3    H171555   3.413   0.790  15.878  0.0308  0.3291 -0.3001
16688TIP3    H271556   3.336   0.708  15.980  0.3413  0.4050 -0.0042
16689TIP3   OH271557   5.141   3.939  17.002  0.4747 -0.1069 -0.6399
16689TIP3    H171558   5.088   3.993  17.061  2.7580  0.8236  0.6913
16689TIP3    H271559   5.099   3.948  16.917 -1.9238 -0.0703  0.4623
16690TIP3   OH271560   0.622   3.181   3.771 -0.0749  0.4589 -0.1649
16690TIP3    H171561   0.698   3.124   3.760 -0.7019 -0.3914 -0.1490
16690TIP3    H271562   0.625   3.239   3.695  1.2013  1.1717  0.4038
16691TIP3   OH271563   1.560   3.044   2.635 -0.3203 -0.5923 -0.0084
16691TIP3    H171564   1.493   2.975   2.640 -0.6129 -0.5401 -2.2174
16691TIP3    H271565   1.574   3.057   2.541  2.5157 -0.3089  0.3743
16692TIP3   OH271566   6.162   4.960   5.861 -0.3582 -0.0116  0.1768
16692TIP3    H171567   6.128   4.894   5.922 -3.1810  1.4045  0.3111
16692TIP3    H271568   6.128   5.043   5.894  1.3578  1.3008 -1.1473
16693TIP3   OH271569   2.808   0.782   4.284 -0.1271  0.5274 -0.9190
16693TIP3    H171570   2.767   0.774   4.370 -0.7480  2.1027 -1.0303
16693TIP3    H271571   2.750   0.735   4.225  0.3073 -0.5721 -0.4940
16694TIP3   OH271572   2.157   3.079  14.217 -0.3279 -0.4834 -0.0573
16694TIP3    H171573   2.086   3.069  14.154  1.4360 -1.2649 -2.0439
16694TIP3    H271574   2.151   3.170  14.246 -2.6991 -0.7912  0.6319
16695TIP3   OH271575   3.098   3.928  12.015  0.0890  0.3044 -0.7107
16695TIP3    H171576   3.120   3.919  12.108 -1.3320 -0.9631 -0.4567
16695TIP3    H271577   3.024   3.987  12.014  0.2618  0.5172 -1.0734
16696TIP3   OH271578   5.518   0.152   0.240  0.2697  0.3520 -0.2458
16696TIP3    H171579   5.424   0.150   0.256  0.1766 -2.5358 -0.5858
16696TIP3    H271580   5.528   0.113   0.153  1.8036  0.2388 -0.0440
16697TIP3   OH271581   0.584   2.840   1.508  0.2647 -0.2046  0.2511
16697TIP3    H171582   0.528   2.804   1.438 -1.2870  0.1790  1.2321
16697TIP3    H271583   0.600   2.765   1.565  0.0574 -0.1338  0.4025
16698TIP3   OH271584   5.580   3.701  13.897 -0.2102  0.2805 -0.8998
16698TIP3    H171585   5.534   3.739  13.973 -0.3513 -1.0834 -0.2772
16698TIP3    H271586   5.672   3.724  13.911 -0.3776  0.9565 -0.8826
16699TIP3   OH271587   2.027   0.066   3.311 -0.2863  0.5263 -0.5747
16699TIP3    H171588   1.951   0.007   3.313  1.5919 -2.0573 -0.2660
16699TIP3    H271589   2.009   0.130   3.379 -1.1354 -1.5130  1.2669
16700TIP3   OH271590   5.675   4.553   2.579 -0.3303  0.3339 -0.2371
16700TIP3    H171591   5.608   4.592   2.523 -0.4379  0.2832 -0.1448
16700TIP3    H271592   5.697   4.623   2.641  0.1469  0.5581 -0.6482
16701TIP3   OH271593   6.622   2.137   0.397  0.3049  0.0172  0.4477
16701TIP3    H171594   6.585   2.224   0.384  0.7195  0.0269 -0.8011
16701TIP3    H271595   6.647   2.134   0.490  0.4010  1.2642  0.4677
16702TIP3   OH271596   5.903   4.787   1.395 -0.0724 -0.0230  0.0143
16702TIP3    H171597   5.914   4.795   1.300 -0.3586  0.7759  0.0384
16702TIP3    H271598   5.856   4.867   1.420 -3.1736 -1.7729  0.3090
16703TIP3   OH271599   3.944   1.345   1.744 -0.4170 -0.3080  0.5882
16703TIP3    H171600   3.876   1.406   1.718 -0.6371 -0.2230  1.3188
16703TIP3    H271601   4.025   1.396   1.742 -0.7503  0.3782  2.3285
16704TIP3   OH271602   4.087   5.589  11.927 -0.2065 -0.2464 -0.0318
16704TIP3    H171603   4.027   5.578  12.002 -1.3036  1.5887 -0.5772
16704TIP3    H271604   4.139   5.508  11.926 -0.0774 -0.2906  2.7604
16705TIP3   OH271605   5.161   3.118   5.233 -0.0389  0.0235  0.9601
16705TIP3    H171606   5.123   3.149   5.151  0.4724 -0.7828  0.4062
16705TIP3    H271607   5.219   3.189   5.261  1.5811 -0.6191 -0.6023
16706TIP3   OH271608   3.294   4.228  16.816  0.0816 -0.1634 -0.2820
16706TIP3    H171609   3.248   4.285  16.754  0.6079  0.1692 -0.3637
16706TIP3    H271610   3.275   4.266  16.902  0.8987  0.4723 -0.3762
16707TIP3   OH271611   2.449   5.963  11.257 -0.0165 -0.4087 -0.0811
16707TIP3    H171612   2.461   5.996  11.346  0.5532 -0.0520 -0.2874
16707TIP3    H271613   2.482   6.033  11.201 -2.1599  0.2043 -0.6637
16708TIP3   OH271614   2.794   3.155   1.776 -0.2670  0.1459 -0.9384
16708TIP3    H171615   2.863   3.135   1.711 -0.0836 -3.0363  0.0801
16708TIP3    H271616   2.712   3.137   1.730 -0.1193 -2.7361 -0.2269
16709TIP3   OH271617   5.153   0.568  11.450 -0.3817  0.4114 -0.2757
16709TIP3    H171618   5.098   0.645  11.436 -0.2974  0.6416  0.6118
16709TIP3    H271619   5.179   0.541  11.362  0.6727  2.1713 -0.5454
16710TIP3   OH271620   3.302   0.418  13.170 -0.0644  0.2439  0.6718
16710TIP3    H171621   3.265   0.501  13.200 -1.1529 -0.7929  2.3552
16710TIP3    H271622   3.234   0.380  13.115  1.0693  1.1398 -1.4639
16711TIP3   OH271623   1.864   4.942   3.474  0.1233 -0.1549 -0.2562
16711TIP3    H171624   1.810   4.978   3.545  0.4601 -0.8601  0.3658
16711TIP3    H271625   1.948   4.989   3.482 -0.3261  0.8612 -1.1537
16712TIP3   OH271626   6.550   2.087   0.917 -0.3895  0.5511 -0.3092
16712TIP3    H171627   6.473   2.117   0.965 -0.4444 -0.6686  0.4263
16712TIP3    H271628   6.543   1.991   0.919  1.3530  0.4036  0.1291
16713TIP3   OH271629   5.354   3.659   0.502 -0.3103 -0.1624  0.1311
16713TIP3    H171630   5.313   3.733   0.548  0.6130  1.3493 -1.3485
16713TIP3    H271631   5.384   3.601   0.571 -1.5354  0.5746  1.3405
16714TIP3   OH271632   5.268   3.878   6.193 -0.0796 -0.1801 -0.1378
16714TIP3    H171633   5.211   3.801   6.200 -0.4321  0.0083 -0.8824
16714TIP3    H271634   5.268   3.915   6.281 -1.5259  0.1000 -0.2275
16715TIP3   OH271635   0.340   2.424   3.348  0.7158 -0.0683  0.5686
16715TIP3    H171636   0.247   2.403   3.358  0.7535 -1.2187 -1.0953
16715TIP3    H271637   0.383   2.379   3.421  0.0664 -0.3020  0.8111
16716TIP3   OH271638   5.805   6.097   1.868  0.1235  0.1802  0.0870
16716TIP3    H171639   5.889   6.139   1.849 -0.3175  2.7656  2.9764
16716TIP3    H271640   5.812   6.069   1.959 -1.8184 -0.4438  0.0926
16717TIP3   OH271641   0.769   5.434  14.464 -0.6419  0.0429  0.1519
16717TIP3    H171642   0.739   5.378  14.535 -0.7442 -1.6072 -1.1418
16717TIP3    H271643   0.855   5.400  14.440  0.1548  1.6445  0.5522
16718TIP3   OH271644   0.474   1.995   4.688 -0.3422  0.5852 -0.3709
16718TIP3    H171645   0.422   1.978   4.609 -3.1256 -0.0611  1.4641
16718TIP3    H271646   0.449   2.083   4.716 -0.8111  0.1192  0.7532
16719TIP3   OH271647   3.296   5.210   6.294  0.1030  0.6004 -0.0314
16719TIP3    H171648   3.241   5.157   6.351  1.5514  0.7166  1.5749
16719TIP3    H271649   3.246   5.290   6.279 -0.8425  0.0310 -0.0250
16720TIP3   OH271650   0.066   5.443  13.773  0.1452 -0.1650 -0.3549
16720TIP3    H171651   0.108   5.494  13.842 -2.1571  1.2851  0.0799
16720TIP3    H271652  -0.027   5.454  13.789 -0.4553 -2.6116 -1.7071
16721TIP3   OH271653   5.306   5.095  15.175 -0.8908 -0.5711 -0.2743
16721TIP3    H171654   5.267   5.183  15.172 -0.5695 -0.4172 -0.0073
16721TIP3    H271655   5.259   5.046  15.107 -1.2813 -0.2806 -0.2214
16722TIP3   OH271656   3.119   5.790  17.024  0.1862 -0.1857  0.0326
16722TIP3    H171657   3.106   5.714  16.967 -0.8205  0.9729 -1.3697
16722TIP3    H271658   3.140   5.862  16.964 -1.5077  1.2346  1.0139
16723TIP3   OH271659   4.665   3.462   4.333 -0.1654 -0.2882  0.3261
16723TIP3    H171660   4.728   3.402   4.293  2.5124  0.4434  3.0042
16723TIP3    H271661   4.596   3.406   4.368 -0.2157 -1.2939 -1.3120
16724TIP3   OH271662   4.346   1.323   3.272  0.2014 -0.4962 -0.4630
16724TIP3    H171663   4.430   1.295   3.308 -0.7072 -1.6763  0.8235
16724TIP3    H271664   4.292   1.243   3.272 -0.3071 -0.2603 -3.1813
16725TIP3   OH271665   0.611   2.887  13.879  0.3313 -0.0736 -0.0731
16725TIP3    H171666   0.567   2.816  13.832 -0.3338  0.1494  0.2072
16725TIP3    H271667   0.549   2.914  13.946  0.0474  1.6303 -0.9853
16726TIP3   OH271668   5.828   3.465   5.977 -0.2154 -0.1196 -0.0910
16726TIP3    H171669   5.898   3.464   5.912 -0.0683 -0.7467  0.0696
16726TIP3    H271670   5.827   3.376   6.012 -0.8169  0.0009  0.2044
16727TIP3   OH271671   3.731   5.463  12.976  0.3855  0.1311 -0.5210
16727TIP3    H171672   3.683   5.462  13.060 -0.9775 -1.3718 -1.2589
16727TIP3    H271673   3.804   5.403  12.990 -1.3551 -2.2941 -1.1466
16728TIP3   OH271674   3.492   3.603   0.724 -0.4852 -0.5281  0.7684
16728TIP3    H171675   3.490   3.697   0.708 -0.9010 -0.5236  0.8492
16728TIP3    H271676   3.532   3.566   0.646  0.0658 -0.2468  0.9127
16729TIP3   OH271677   4.315   1.506   3.068  0.4199 -0.7385  0.3214
16729TIP3    H171678   4.305   1.437   3.134  1.5830 -0.4793  0.8035
16729TIP3    H271679   4.404   1.493   3.034  0.1483 -0.3160 -0.5580
16730TIP3   OH271680   3.042   5.758  14.601  0.2488  0.0241 -0.5856
16730TIP3    H171681   2.973   5.822  14.581  1.9484  1.9335 -0.6724
16730TIP3    H271682   3.034   5.693  14.531 -0.1315  1.3592 -1.8499
16731TIP3   OH271683   5.684   3.317  12.337  0.7933  0.2534  0.0356
16731TIP3    H171684   5.621   3.281  12.399  2.8762  2.0692  3.5559
16731TIP3    H271685   5.739   3.375  12.390  2.1325  2.8910 -3.8075
16732TIP3   OH271686   1.097   5.251   0.874  0.3966  0.3528 -0.9854
16732TIP3    H171687   1.182   5.226   0.910  0.2412 -2.7937 -2.4204
16732TIP3    H271688   1.118   5.316   0.807  1.5780  0.3045 -0.6883
16733TIP3   OH271689   2.885   0.504   4.958  0.6392 -0.0742 -0.6236
16733TIP3    H171690   2.906   0.418   4.921 -0.0136 -1.6281  2.3842
16733TIP3    H271691   2.791   0.514   4.943  0.0309 -1.4370  1.7813
16734TIP3   OH271692   0.159   5.098  12.051  0.0158  0.3901 -0.5304
16734TIP3    H171693   0.251   5.108  12.077 -0.5477 -0.5431  2.1684
16734TIP3    H271694   0.153   5.007  12.022 -0.1655  0.2294 -0.0115
16735TIP3   OH271695   0.354   4.120  15.872 -0.4539  0.2536  0.4177
16735TIP3    H171696   0.444   4.128  15.903 -0.9023  0.3923  1.7656
16735TIP3    H271697   0.360   4.068  15.792  0.9898  1.6543 -0.4500
16736TIP3   OH271698   2.161   0.918  13.676  0.1649  0.1872  0.0700
16736TIP3    H171699   2.104   0.978  13.627  1.1345  2.9552  2.0375
16736TIP3    H271700   2.139   0.935  13.768  2.6324 -0.1962  0.7979
16737TIP3   OH271701   0.516   5.421  12.319 -0.0960  0.3480  0.1372
16737TIP3    H171702   0.491   5.399  12.229  0.0698 -2.1964  0.6343
16737TIP3    H271703   0.467   5.358  12.372  1.0466  0.7505  1.7028
16738TIP3   OH271704   3.577   3.376  13.867  0.0037  0.0770  0.1625
16738TIP3    H171705   3.595   3.466  13.895 -2.2353  1.3888 -2.1843
16738TIP3    H271706   3.645   3.357  13.803  0.1972  0.2905  0.3040
16739TIP3   OH271707   1.419   1.782   2.648 -0.3268 -0.3130 -0.1355
16739TIP3    H171708   1.350   1.718   2.626 -0.6241 -0.5933  1.4870
16739TIP3    H271709   1.491   1.728   2.680  0.0049  0.0875 -0.2126
16740TIP3   OH271710   2.013   0.684   4.741  0.5745 -0.0042  0.1216
16740TIP3    H171711   1.964   0.751   4.789 -0.3371 -0.1360 -0.5804
16740TIP3    H271712   1.978   0.689   4.652 -1.6557 -3.2804  0.5960
16741TIP3   OH271713   6.531   6.810  12.943  0.7724 -0.5440 -0.1982
16741TIP3    H171714   6.483   6.729  12.927  0.7452 -0.2044 -2.1862
16741TIP3    H271715   6.610   6.783  12.990  1.8363 -2.1300 -2.6485
16742TIP3   OH271716   1.568   0.328  11.338 -0.7495  0.0727 -0.5933
16742TIP3    H171717   1.584   0.320  11.432 -0.4347 -1.1254 -0.7410
16742TIP3    H271718   1.549   0.421  11.325 -1.8253  0.0838  0.8101
16743TIP3   OH271719   3.125   6.549  16.042 -0.0551 -0.1152  0.0449
16743TIP3    H171720   3.154   6.547  15.951  0.2002 -0.2784  0.1296
16743TIP3    H271721   3.093   6.638  16.055 -1.5157 -0.5049 -0.6544
16744TIP3   OH271722   6.547   1.600  13.293  0.0116  0.2649 -0.6040
16744TIP3    H171723   6.559   1.653  13.372 -1.4816  0.4792 -0.4853
16744TIP3    H271724   6.535   1.664  13.223 -1.4323  0.1173 -0.5222
16745TIP3   OH271725   1.348   3.455  12.410 -0.7589 -0.5588 -0.6389
16745TIP3    H171726   1.414   3.391  12.385  0.3368  0.2738  0.0504
16745TIP3    H271727   1.295   3.411  12.477  2.3327  0.3802  2.7532
16746TIP3   OH271728   4.053   1.564  12.828  0.1906 -0.2515 -0.4669
16746TIP3    H171729   3.964   1.530  12.844 -0.4178  1.1066 -0.8149
16746TIP3    H271730   4.039   1.651  12.791  1.7010  0.4929  0.6384
16747TIP3   OH271731   1.203   4.787   5.952 -0.0694 -0.4232 -0.3126
16747TIP3    H171732   1.213   4.875   5.990  0.0089 -1.0625  1.2197
16747TIP3    H271733   1.144   4.800   5.878  0.6297  1.0581 -0.6628
16748TIP3   OH271734   3.396   4.586   2.475  0.0234 -0.0941  0.6507
16748TIP3    H171735   3.329   4.633   2.425 -1.3412 -0.2813  2.2384
16748TIP3    H271736   3.397   4.629   2.560  1.6300 -0.3942  0.8141
16749TIP3   OH271737   4.235   2.697  13.969  0.3679  0.2887 -0.1130
16749TIP3    H171738   4.189   2.769  14.012 -1.2992  0.4382 -1.9924
16749TIP3    H271739   4.255   2.731  13.882  0.2154 -1.2476 -0.7776
16750TIP3   OH271740   0.704   1.431   5.068 -0.6283 -0.0982  0.1137
16750TIP3    H171741   0.647   1.507   5.066 -1.3323 -0.6041  0.5256
16750TIP3    H271742   0.724   1.419   5.161  0.8567  0.5794 -0.0865
16751TIP3   OH271743   4.435   4.273  13.441 -0.0247  0.2966 -0.3156
16751TIP3    H171744   4.412   4.358  13.403  0.7327 -0.2998 -2.2333
16751TIP3    H271745   4.419   4.210  13.371 -1.2208 -1.2726  1.2769
16752TIP3   OH271746   0.864   3.770   0.554  0.6587  0.9565  1.1197
16752TIP3    H171747   0.774   3.779   0.523  1.0600  0.4046 -0.2599
16752TIP3    H271748   0.901   3.858   0.546  0.9930  0.6707 -0.7890
16753TIP3   OH271749   4.997   3.257   6.121  0.5273 -0.7163 -0.6031
16753TIP3    H171750   5.091   3.240   6.112  0.7785  0.6470 -0.7938
16753TIP3    H271751   4.992   3.326   6.187 -0.2679 -0.0875 -1.3038
16754TIP3   OH271752   1.828   6.396  15.816  0.0682  0.0099 -0.1463
16754TIP3    H171753   1.747   6.437  15.846 -0.2149  0.0686 -0.9803
16754TIP3    H271754   1.814   6.303  15.831  0.1204  0.0804  0.3538
16755TIP3   OH271755   0.900   2.872  11.350  0.2558 -0.1812  0.4786
16755TIP3    H171756   0.919   2.948  11.295  0.3612 -0.2164  0.4670
16755TIP3    H271757   0.837   2.821  11.299  1.0754 -0.6993 -0.0382
16756TIP3   OH271758   1.609   2.400  15.023 -0.1001  0.2607 -0.1148
16756TIP3    H171759   1.626   2.485  15.065 -0.5841  0.8121 -1.0188
16756TIP3    H271760   1.679   2.391  14.959 -0.8794  0.6775 -1.0470
16757TIP3   OH271761   2.110   1.536  16.827 -0.0948  0.3518  0.2067
16757TIP3    H171762   2.085   1.620  16.788 -0.0240  0.1544 -0.2721
16757TIP3    H271763   2.205   1.542  16.838  0.4496 -0.7991 -2.7260
16758TIP3   OH271764   3.061   3.392   1.320 -0.1087 -0.2456  0.6344
16758TIP3    H171765   3.088   3.422   1.233 -0.1660  1.0154  1.0349
16758TIP3    H271766   3.118   3.438   1.380 -2.7116  2.1432  1.4886
16759TIP3   OH271767   0.313   5.298  12.433  1.1122 -0.0635 -0.0691
16759TIP3    H171768   0.279   5.220  12.389  5.4736 -0.5281 -3.2694
16759TIP3    H271769   0.372   5.264  12.500  0.9237  0.6085  0.4552
16760TIP3   OH271770   5.379   6.040   0.279 -0.6399  0.4567  0.2221
16760TIP3    H171771   5.471   6.065   0.290 -0.2774 -0.3215 -0.9323
16760TIP3    H271772   5.358   6.063   0.189 -0.4557 -2.7473 -0.7426
16761TIP3   OH271773   6.010   2.821  10.770  0.1479  0.4700  0.7123
16761TIP3    H171774   6.065   2.890  10.807 -0.0341  0.9441  0.1209
16761TIP3    H271775   5.952   2.867  10.709  0.1849 -0.2351  0.1274
16762TIP3   OH271776   3.746   2.509   1.984 -0.2347 -0.6939 -0.0769
16762TIP3    H171777   3.699   2.584   1.947  1.5058  0.4286 -0.1469
16762TIP3    H271778   3.806   2.482   1.914  0.2246 -1.1755  0.4896
16763TIP3   OH271779   5.309   4.974  12.988 -0.3008  0.2173  0.1157
16763TIP3    H171780   5.275   5.057  13.019 -0.5617  0.6438 -1.2542
16763TIP3    H271781   5.385   4.998  12.934 -0.0639 -0.4643  0.1373
16764TIP3   OH271782   3.622   0.692  13.067  0.6284 -0.3906 -0.5765
16764TIP3    H171783   3.543   0.746  13.071  1.5423  0.9679 -0.2659
16764TIP3    H271784   3.672   0.718  13.144  1.4756 -1.0803 -0.8863
16765TIP3   OH271785   2.488   3.906   5.220 -0.1633  0.1388  0.5867
16765TIP3    H171786   2.507   3.852   5.143  0.5112  1.4209 -0.1900
16765TIP3    H271787   2.435   3.978   5.187  1.3720  1.5240  0.9745
16766TIP3   OH271788   1.808   2.175   6.100 -0.7459 -0.0680  0.9670
16766TIP3    H171789   1.891   2.132   6.116 -0.9664 -0.6597  0.5855
16766TIP3    H271790   1.743   2.104   6.103 -1.4779  0.6341  3.0548
16767TIP3   OH271791   1.414   1.421   2.561 -0.1988 -0.6620  0.0587
16767TIP3    H171792   1.495   1.435   2.512 -0.5578  1.4950  0.0094
16767TIP3    H271793   1.442   1.403   2.651  0.3382 -0.2956 -0.0370
16768TIP3   OH271794   4.026   2.366   5.778 -0.1682  0.3362  0.4722
16768TIP3    H171795   4.045   2.301   5.845 -0.4815  0.4317  0.6562
16768TIP3    H271796   3.962   2.324   5.721  1.0054 -0.2055 -0.4861
16769TIP3   OH271797   4.894   2.178  13.159 -0.1737  0.6071 -0.1127
16769TIP3    H171798   4.850   2.190  13.243 -1.6501  0.4548 -0.8366
16769TIP3    H271799   4.948   2.256  13.148 -0.2876  0.8164  0.7760
16770TIP3   OH271800   2.973   3.940   3.831  0.5799 -0.3021  0.2785
16770TIP3    H171801   2.933   3.886   3.763  0.3983 -0.6611  0.6685
16770TIP3    H271802   2.906   3.945   3.900  0.3254  0.9546 -0.0191
16771TIP3   OH271803   4.342   2.551   4.487  0.4478  0.2309  0.6000
16771TIP3    H171804   4.421   2.497   4.480  0.3008 -0.0936  1.3529
16771TIP3    H271805   4.292   2.530   4.407  1.0653  0.3577  0.1777
16772TIP3   OH271806   5.523   4.568   0.457  0.6342  0.0652 -0.2908
16772TIP3    H171807   5.523   4.661   0.433  0.4253  0.1443  0.0069
16772TIP3    H271808   5.497   4.567   0.549 -1.2850 -0.4069 -0.7810
16773TIP3   OH271809   2.002   0.274   3.518 -0.4989  0.8791  0.6244
16773TIP3    H171810   1.998   0.368   3.539 -1.1908  1.2466 -0.9896
16773TIP3    H271811   2.096   0.255   3.513 -0.3493  1.5958  0.5271
16774TIP3   OH271812   0.538   0.448   0.409  0.0643  0.6043 -0.2588
16774TIP3    H171813   0.608   0.440   0.345  1.0708  2.4987  0.5107
16774TIP3    H271814   0.457   0.437   0.359  0.8682 -0.7229 -1.3191
16775TIP3   OH271815   5.391   3.874   3.762 -0.1065  0.5693  0.5756
16775TIP3    H171816   5.342   3.830   3.832  1.0220 -1.4234  0.2048
16775TIP3    H271817   5.386   3.814   3.688  0.5896  1.6161 -0.3519
16776TIP3   OH271818   5.333   1.854  13.930 -0.5213  0.2302  0.4356
16776TIP3    H171819   5.261   1.914  13.912 -0.0472  0.8391  0.5381
16776TIP3    H271820   5.390   1.861  13.854 -0.5078 -0.1643  0.4075
16777TIP3   OH271821   6.793   2.006  15.347 -0.3999  0.3587  0.3069
16777TIP3    H171822   6.807   1.923  15.392 -0.6620  0.3179  0.3163
16777TIP3    H271823   6.700   2.026  15.361 -0.0528  1.3122  1.4173
16778TIP3   OH271824   2.428   1.188  15.823 -0.3650  0.0968  0.4670
16778TIP3    H171825   2.441   1.213  15.732  1.4845 -0.4695  0.5348
16778TIP3    H271826   2.334   1.198  15.837 -0.4851  1.6815 -1.0430
16779TIP3   OH271827   5.662   6.314  10.988  0.1005  0.1143  0.3401
16779TIP3    H171828   5.673   6.223  10.963  0.7954  0.5329 -0.9947
16779TIP3    H271829   5.750   6.351  10.984 -0.1275  0.7884  1.1416
16780TIP3   OH271830   5.642   6.315  12.788 -0.3130 -0.4664  0.1877
16780TIP3    H171831   5.550   6.292  12.795 -0.2192 -0.9738 -0.2200
16780TIP3    H271832   5.661   6.310  12.694 -0.4534  1.9064 -0.0512
16781TIP3   OH271833   3.733   0.887   2.374 -0.4184  0.8344 -0.0023
16781TIP3    H171834   3.642   0.904   2.395 -0.1481  3.8970 -0.8631
16781TIP3    H271835   3.743   0.918   2.284  1.1190 -1.0235 -0.5385
16782TIP3   OH271836   3.912   3.654   1.666  0.7915 -0.3865  0.2578
16782TIP3    H171837   3.955   3.600   1.599  0.7326 -0.1780  0.0494
16782TIP3    H271838   3.984   3.694   1.714  0.8514 -1.2685  0.9339
16783TIP3   OH271839   2.361   2.280  10.749 -0.0851 -0.2523 -0.1206
16783TIP3    H171840   2.378   2.186  10.746 -0.5096 -0.3551  0.7881
16783TIP3    H271841   2.272   2.288  10.783  0.2088  0.4964  0.4928
16784TIP3   OH271842   4.112   3.862   4.014 -0.2974  1.0705  0.3685
16784TIP3    H171843   4.117   3.947   3.970  0.6640  1.2985  0.8990
16784TIP3    H271844   4.091   3.883   4.105  0.7919  0.8021  0.6898
16785TIP3   OH271845   0.504   6.543  14.028  0.1120 -0.0786  0.5822
16785TIP3    H171846   0.493   6.633  14.059  1.6062  0.4008 -0.1982
16785TIP3    H271847   0.419   6.520  13.991 -0.5675  0.6702  1.6060
16786TIP3   OH271848   5.222   0.155   4.644 -0.2951  0.3038 -0.3798
16786TIP3    H171849   5.233   0.228   4.583 -0.9821 -0.1023 -1.0087
16786TIP3    H271850   5.188   0.196   4.724 -0.7743  0.6725 -0.7621
16787TIP3   OH271851   6.356   0.247   1.205  0.1127 -0.1342  0.4819
16787TIP3    H171852   6.311   0.297   1.137 -1.3425 -0.2436  1.3301
16787TIP3    H271853   6.421   0.308   1.240 -0.2216  0.4648  0.0798
16788TIP3   OH271854   2.259   2.162   4.331 -0.5242  0.1415 -0.1102
16788TIP3    H171855   2.227   2.203   4.251  1.0698 -0.5101 -1.1281
16788TIP3    H271856   2.184   2.111   4.363 -1.7784  1.8772 -0.1025
16789TIP3   OH271857   0.226   2.756  12.126  0.4519 -0.1902  0.5212
16789TIP3    H171858   0.246   2.838  12.172  0.1548  0.6543 -0.7800
16789TIP3    H271859   0.311   2.722  12.100  0.5036  0.5838 -0.3595
16790TIP3   OH271860   3.935   1.270   5.693  0.3083  0.5214 -0.1081
16790TIP3    H171861   3.943   1.362   5.669 -0.7873  0.6654  0.0330
16790TIP3    H271862   3.843   1.249   5.677  0.2085 -0.1589  1.2312
16791TIP3   OH271863   6.092   3.279  16.592 -0.2480  0.0346 -0.4973
16791TIP3    H171864   6.023   3.344  16.578  1.0393  2.0842  1.8965
16791TIP3    H271865   6.135   3.307  16.673  1.6421 -2.7462 -0.4167
16792TIP3   OH271866   5.605   4.292   4.543  0.2639 -0.0030  0.2603
16792TIP3    H171867   5.653   4.367   4.507  1.0163 -0.4223  0.3814
16792TIP3    H271868   5.621   4.221   4.481  0.3243 -0.3214  0.6374
16793TIP3   OH271869   3.881   2.392  10.677 -0.5828  0.0676  0.2505
16793TIP3    H171870   3.971   2.383  10.647 -0.3831 -0.7923  1.0709
16793TIP3    H271871   3.829   2.393  10.596  0.0907 -0.3190 -0.1909
16794TIP3   OH271872   3.900   0.418   1.497  0.1697  0.7427 -0.4779
16794TIP3    H171873   3.941   0.398   1.581  2.0961  0.3839 -1.4592
16794TIP3    H271874   3.965   0.393   1.432 -1.7391 -0.1532 -2.1557
16795TIP3   OH271875   6.195   4.284   3.798  0.3247 -0.1729 -0.0055
16795TIP3    H171876   6.163   4.370   3.823 -0.0280 -0.3110  0.0245
16795TIP3    H271877   6.134   4.222   3.839 -0.0939 -0.4100 -0.9653
16796TIP3   OH271878   1.437   1.701   2.989  0.7571  0.0296  0.8132
16796TIP3    H171879   1.423   1.791   3.018 -1.8743  1.0060 -2.8680
16796TIP3    H271880   1.505   1.707   2.922 -2.4475  0.3036 -2.7517
16797TIP3   OH271881   5.782   3.762   2.463 -0.1529  0.7056 -0.1419
16797TIP3    H171882   5.783   3.675   2.421  0.3663  1.1440 -1.0912
16797TIP3    H271883   5.869   3.770   2.502  0.7964  1.8127 -2.3204
16798TIP3   OH271884   3.659   3.875  13.952  0.3388 -0.0905  0.1075
16798TIP3    H171885   3.723   3.934  13.912 -0.4104  0.9048  0.3461
16798TIP3    H271886   3.574   3.912  13.930 -0.1787 -1.4662 -0.3046
16799TIP3   OH271887   1.631   3.813   4.925  0.2311 -0.5461  0.7356
16799TIP3    H171888   1.695   3.883   4.911  0.5974 -0.9383  0.3817
16799TIP3    H271889   1.665   3.740   4.873 -0.6352 -0.6840  0.3456
16800TIP3   OH271890   0.187   6.155   1.467 -0.2558 -0.2229 -0.0766
16800TIP3    H171891   0.097   6.151   1.434 -0.4962 -0.9172  0.6165
16800TIP3    H271892   0.178   6.145   1.562  0.4606  1.1974  0.1621
16801TIP3   OH271893   6.005   4.938   3.675  0.2172 -0.3338  0.0667
16801TIP3    H171894   5.986   4.930   3.581 -0.5622  0.1202  0.1881
16801TIP3    H271895   5.922   4.921   3.718  0.0994  1.4409  0.6027
16802TIP3   OH271896   0.848   3.746   0.941  0.2672 -0.0237 -0.1102
16802TIP3    H171897   0.922   3.753   0.880  1.3014 -0.2796  1.0654
16802TIP3    H271898   0.889   3.727   1.026 -1.1480  0.0085  0.6081
16803TIP3   OH271899   3.723   5.411  13.265  0.2631  0.0504  0.6371
16803TIP3    H171900   3.785   5.339  13.249  3.4457  2.2830  1.8079
16803TIP3    H271901   3.702   5.403  13.358 -0.4969 -0.1579  0.4497
16804TIP3   OH271902   1.893   0.749   3.360  0.3760  0.1200  0.3754
16804TIP3    H171903   1.965   0.715   3.413 -0.5812 -1.2256  0.8646
16804TIP3    H271904   1.916   0.726   3.270  0.3057 -0.8394  0.5882
16805TIP3   OH271905   5.785   0.131   3.439  0.3091 -0.1462  0.6176
16805TIP3    H171906   5.879   0.131   3.419 -0.1986 -1.1950 -2.0916
16805TIP3    H271907   5.761   0.039   3.438 -1.2489  0.2183 -1.6099
16806TIP3   OH271908   2.707   3.726  15.569  0.3280 -0.2534  0.4624
16806TIP3    H171909   2.630   3.693  15.521 -0.8956  1.6268  1.0435
16806TIP3    H271910   2.687   3.710  15.661  0.3724  0.7145  0.6520
16807TIP3   OH271911   5.888   0.792   5.154  0.4715  0.0532  0.2383
16807TIP3    H171912   5.821   0.764   5.216  0.8957 -1.7700 -0.0832
16807TIP3    H271913   5.843   0.792   5.069  0.6100 -0.1406  0.1655
16808TIP3   OH271914   0.586   2.545  12.335  0.9970 -0.3153 -0.3134
16808TIP3    H171915   0.514   2.488  12.361  1.0024  0.3697  1.2845
16808TIP3    H271916   0.554   2.590  12.256 -0.6342  0.4918  0.7586
16809TIP3   OH271917   1.724   2.381  16.750  0.1709 -0.2794  0.0262
16809TIP3    H171918   1.673   2.301  16.737 -1.6906  1.0051 -1.0998
16809TIP3    H271919   1.732   2.389  16.845 -1.4932 -0.7047  0.2410
16810TIP3   OH271920   6.300   4.745   1.972  0.1559 -0.0999 -0.2559
16810TIP3    H171921   6.245   4.674   2.006  0.4061 -0.0040  0.3427
16810TIP3    H271922   6.315   4.720   1.880  0.4071 -0.9273 -0.0015
16811TIP3   OH271923   3.548   0.116   5.853 -0.0430 -0.1761  0.4335
16811TIP3    H171924   3.581   0.136   5.941  0.7685 -1.3097  0.4177
16811TIP3    H271925   3.563   0.196   5.803  0.2256  0.2178  1.1251
16812TIP3   OH271926   5.151   4.422  12.238 -0.1648 -1.0488 -0.2686
16812TIP3    H171927   5.179   4.512  12.219 -0.8307 -1.0517 -1.3534
16812TIP3    H271928   5.064   4.432  12.276 -0.0239 -1.2114  0.0954
16813TIP3   OH271929   3.277   6.735   6.245  0.0808  0.3006 -0.1204
16813TIP3    H171930   3.284   6.829   6.258  0.3686  0.1421  0.9460
16813TIP3    H271931   3.368   6.705   6.241  0.0725  0.3326 -2.7767
16814TIP3   OH271932   4.151   4.684  12.487  0.0217  0.1287  0.3707
16814TIP3    H171933   4.179   4.707  12.576 -2.1125 -1.6530  1.6149
16814TIP3    H271934   4.168   4.590  12.481 -2.4543 -0.3482 -0.0011
16815TIP3   OH271935   3.099   3.761   1.372 -0.0086 -0.5194 -0.3538
16815TIP3    H171936   3.089   3.836   1.314 -1.2834  1.3308  2.0816
16815TIP3    H271937   3.176   3.782   1.426 -1.5225  0.0985  1.6805
16816TIP3   OH271938   4.312   5.040   2.273  0.3209 -0.1564 -0.2177
16816TIP3    H171939   4.235   4.985   2.288  0.7898 -0.4723  1.2287
16816TIP3    H271940   4.279   5.116   2.226 -1.1902  0.4486  1.6911
16817TIP3   OH271941   1.025   2.480   1.800 -0.0259  0.2931  0.1180
16817TIP3    H171942   1.068   2.394   1.803  0.2388  0.4337  0.4106
16817TIP3    H271943   1.086   2.538   1.845 -0.3530  0.5701  0.1994
16818TIP3   OH271944   4.234   1.978   4.246 -0.1544  0.1699 -0.0911
16818TIP3    H171945   4.193   1.953   4.163  0.3353 -0.5936 -0.1192
16818TIP3    H271946   4.168   1.957   4.312  0.4777 -1.9820 -0.0459
16819TIP3   OH271947   5.491   0.389  16.023  0.8585  0.2067  0.4420
16819TIP3    H171948   5.559   0.456  16.019  0.1922  0.8444 -0.6040
16819TIP3    H271949   5.415   0.429  15.981 -1.1241  0.5877  3.9709
16820TIP3   OH271950   3.054   5.432   0.758  0.0542 -0.2832 -0.7933
16820TIP3    H171951   2.972   5.468   0.790  0.1419 -1.1974  0.5521
16820TIP3    H271952   3.079   5.490   0.686 -1.3416  0.4861 -0.6999
16821TIP3   OH271953   6.790   3.347   0.795 -0.7479  0.3299  0.3968
16821TIP3    H171954   6.736   3.284   0.844 -1.4887  0.0485 -0.7207
16821TIP3    H271955   6.777   3.430   0.840 -0.2839 -0.1753  1.5020
16822TIP3   OH271956   4.916   4.587   4.680  0.0635  0.0577  0.1946
16822TIP3    H171957   4.986   4.522   4.673 -0.3132 -0.2565 -1.0958
16822TIP3    H271958   4.927   4.642   4.602  0.3130  1.5071  1.2242
16823TIP3   OH271959   6.768   1.727   4.652  0.2871 -0.2735 -0.7494
16823TIP3    H171960   6.822   1.760   4.724  0.3457  0.7554 -1.2511
16823TIP3    H271961   6.826   1.726   4.577 -0.1143 -0.1396 -1.0662
16824TIP3   OH271962   1.084   5.282  12.426 -0.0646  0.0467  0.1928
16824TIP3    H171963   1.075   5.357  12.484  1.8284  0.1443  0.4355
16824TIP3    H271964   1.067   5.317  12.338 -0.1499  0.5348  0.4046
16825TIP3   OH271965   3.297   1.676  13.739 -0.3056 -0.0062 -0.2910
16825TIP3    H171966   3.344   1.593  13.750 -0.1750 -0.0370 -1.0624
16825TIP3    H271967   3.366   1.740  13.723 -0.4573  0.1349 -0.3790
16826TIP3   OH271968   4.857   5.405  16.950  0.6933  0.1129  0.5933
16826TIP3    H171969   4.946   5.409  16.986  1.0325 -3.4151  0.4882
16826TIP3    H271970   4.802   5.381  17.025  0.3770 -0.9281  0.0391
16827TIP3   OH271971   3.822   1.725   5.372 -0.1185  0.1599  0.0563
16827TIP3    H171972   3.855   1.741   5.460 -0.5648 -0.9110  0.4439
16827TIP3    H271973   3.810   1.630   5.368  1.4802 -0.0275 -1.7402
16828TIP3   OH271974   5.888   0.780  14.940 -0.7202 -0.5373 -0.1127
16828TIP3    H171975   5.868   0.730  14.861 -1.7117 -1.8271  0.9116
16828TIP3    H271976   5.803   0.797  14.980 -0.2416  0.1651  0.6364
16829TIP3   OH271977   3.742   0.035  16.612 -0.2827 -0.1659  0.8203
16829TIP3    H171978   3.723  -0.042  16.666  1.6884 -0.5968  0.9816
16829TIP3    H271979   3.824   0.070  16.647 -1.0416  1.9198  0.6185
16830TIP3   OH271980   5.794   0.449   3.391  0.2774  0.6249  0.3128
16830TIP3    H171981   5.727   0.420   3.453  2.1785 -3.9686  0.6340
16830TIP3    H271982   5.853   0.503   3.443 -0.2935  0.2396  1.3985
16831TIP3   OH271983   1.131   3.070   2.711  0.4521  0.2103 -0.2522
16831TIP3    H171984   1.131   3.163   2.686 -0.2531  0.6804  1.3729
16831TIP3    H271985   1.126   3.071   2.806  1.8586 -1.5034 -0.1101
16832TIP3   OH271986   4.931   5.037  14.534 -0.6070 -0.5551  0.4328
16832TIP3    H171987   4.899   5.060  14.447  2.7016  1.6617 -0.3819
16832TIP3    H271988   4.874   5.085  14.594  0.0146  1.9439 -0.8419
16833TIP3   OH271989   4.975   5.177   2.137  0.2163 -0.1185  0.2072
16833TIP3    H171990   4.937   5.234   2.205  0.6910 -0.4019  0.7168
16833TIP3    H271991   4.900   5.127   2.104  0.0755 -0.4387  0.9777
16834TIP3   OH271992   5.744   1.705  16.445 -0.2404 -0.0851 -0.0056
16834TIP3    H171993   5.807   1.636  16.465  1.1300  1.0282 -0.2656
16834TIP3    H271994   5.672   1.661  16.400  1.0890 -1.2038 -1.1172
16835TIP3   OH271995   0.399   0.167   5.720 -0.1456  0.0425 -0.2185
16835TIP3    H171996   0.473   0.168   5.658  1.6535 -1.4754  1.7334
16835TIP3    H271997   0.346   0.092   5.692  1.9205 -2.1354  1.2688
16836TIP3   OH271998   2.127   0.232  11.010 -0.5913 -0.1549  0.6133
16836TIP3    H171999   2.212   0.276  11.012 -0.5583 -0.1986  0.2639
16836TIP3    H272000   2.147   0.139  11.016 -0.2467 -0.5838 -3.8295
16837TIP3   OH272001   5.215   5.194  16.186  0.1457  0.0288  0.2100
16837TIP3    H172002   5.166   5.260  16.236 -2.1005 -0.8809 -0.6695
16837TIP3    H272003   5.198   5.112  16.231  1.4445 -0.2365  0.2556
16838TIP3   OH272004   1.291   0.187  11.772 -0.1313  0.2095  0.3269
16838TIP3    H172005   1.380   0.153  11.782 -0.3061 -1.2579 -2.3734
16838TIP3    H272006   1.238   0.111  11.748 -1.7977  1.3557  0.1339
16839TIP3   OH272007   5.723   3.156  14.459 -0.2056 -0.1956  0.4570
16839TIP3    H172008   5.813   3.156  14.491 -0.3324 -0.4382  0.8190
16839TIP3    H272009   5.729   3.191  14.370  0.3527 -0.9848  0.1732
16840TIP3   OH272010   5.157   1.561   4.490 -0.1145 -0.0373 -0.4441
16840TIP3    H172011   5.112   1.628   4.542  1.1862  2.1665 -1.9777
16840TIP3    H272012   5.147   1.591   4.400  0.1994 -2.1761 -1.2384
16841TIP3   OH272013   3.829   1.484  14.013  0.5231  0.5589  0.2199
16841TIP3    H172014   3.849   1.576  13.995  0.5477  0.3962 -0.6350
16841TIP3    H272015   3.781   1.455  13.935 -0.8440  0.2685  1.1452
16842TIP3   OH272016   0.263   0.702  12.887 -0.4267  0.2258 -0.2386
16842TIP3    H172017   0.189   0.659  12.844  0.7072 -0.8499 -1.1801
16842TIP3    H272018   0.257   0.793  12.860 -1.6568  0.2617  0.0753
16843TIP3   OH272019   2.694   4.596  12.589  0.4449  0.3695 -0.2742
16843TIP3    H172020   2.664   4.611  12.679 -0.0649  1.6502 -0.6451
16843TIP3    H272021   2.626   4.635  12.534  2.1482  2.2782 -1.1513
16844TIP3   OH272022   4.842   1.402  13.902 -0.2475  0.2063  0.6280
16844TIP3    H172023   4.888   1.355  13.971  1.3419  0.1932 -0.3784
16844TIP3    H272024   4.909   1.418  13.835 -1.3327  1.6586 -0.1838
16845TIP3   OH272025   0.910   5.056   4.757 -0.0780 -0.7125  0.3393
16845TIP3    H172026   1.006   5.065   4.760 -0.0095 -0.3898 -1.3903
16845TIP3    H272027   0.895   4.980   4.700 -0.8173  0.7692 -1.5716
16846TIP3   OH272028   6.169   4.747   1.535 -0.0037 -0.3805  0.5224
16846TIP3    H172029   6.086   4.736   1.490  0.5865  0.2545 -0.7998
16846TIP3    H272030   6.216   4.665   1.519 -0.5212 -0.9048  1.6271
16847TIP3   OH272031   3.184   1.212  13.688  0.4709  0.0448 -0.2134
16847TIP3    H172032   3.146   1.286  13.641  1.6043 -0.5278 -2.1244
16847TIP3    H272033   3.182   1.238  13.780 -1.3558  1.4228 -0.6060
16848TIP3   OH272034   0.845   0.517   5.445  0.1133 -0.3895  0.3114
16848TIP3    H172035   0.914   0.455   5.470  0.0299 -0.4651  0.3563
16848TIP3    H272036   0.870   0.599   5.488  2.0194  0.5835 -2.3465
16849TIP3   OH272037   0.440   5.962  16.892  0.1811  0.3331  0.0769
16849TIP3    H172038   0.478   5.935  16.975  0.0630 -0.4762 -0.1232
16849TIP3    H272039   0.443   6.058  16.893  1.2982  0.2994  0.4882
16850TIP3   OH272040   4.930   3.445   2.889 -0.4759  0.2806 -0.0235
16850TIP3    H172041   4.918   3.448   2.984 -1.8332 -1.3000 -0.1134
16850TIP3    H272042   4.846   3.475   2.853 -0.0844  0.5596 -0.7257
16851TIP3   OH272043   2.003   3.151  11.664  0.1234  0.0244  0.4845
16851TIP3    H172044   1.910   3.169  11.678  0.0112  0.6150 -0.8390
16851TIP3    H272045   2.019   3.068  11.708 -1.4272 -0.9235 -0.6531
16852TIP3   OH272046   4.677   5.635  14.514 -0.7689  0.2911 -0.6948
16852TIP3    H172047   4.749   5.605  14.460 -1.2662 -0.6759 -0.8477
16852TIP3    H272048   4.616   5.561  14.516 -1.0041  0.4857  0.7647
16853TIP3   OH272049   3.487   4.344  15.397 -0.2364 -0.5551 -0.5551
16853TIP3    H172050   3.427   4.365  15.468  0.8905  1.5414 -0.1536
16853TIP3    H272051   3.553   4.287  15.437  1.1211  1.6305  0.5336
16854TIP3   OH272052   6.520   6.782   0.600 -0.2801  0.6665 -0.2343
16854TIP3    H172053   6.582   6.845   0.562  0.1281  1.2972  1.3690
16854TIP3    H272054   6.467   6.835   0.660 -3.0280  0.3255 -2.1996
16855TIP3   OH272055   5.839   2.395   2.436 -0.6379  0.2009 -0.9879
16855TIP3    H172056   5.898   2.368   2.506 -0.6097  0.3751 -0.9439
16855TIP3    H272057   5.770   2.329   2.436 -1.7763  1.3181  0.5931
16856TIP3   OH272058   2.628   3.051   5.092 -0.1560  0.0080 -0.0422
16856TIP3    H172059   2.694   3.032   5.025  1.6216  0.1117  1.5961
16856TIP3    H272060   2.586   2.967   5.109 -0.8358  0.0319 -1.4345
16857TIP3   OH272061   6.810   5.128   5.508  0.2643  0.4031 -0.1939
16857TIP3    H172062   6.834   5.070   5.580 -0.0590 -0.2845 -0.6275
16857TIP3    H272063   6.892   5.143   5.461  0.0504 -1.2875 -1.2030
16858TIP3   OH272064   2.774   0.562   1.946 -0.1521  0.3485 -1.0691
16858TIP3    H172065   2.782   0.646   1.903 -1.3797  0.8647 -0.3581
16858TIP3    H272066   2.686   0.532   1.925  0.1304 -0.5876 -0.9985
16859TIP3   OH272067   1.984   2.342   3.521  0.7002  0.7982 -0.6032
16859TIP3    H172068   1.977   2.385   3.606  0.6467 -4.2753  2.3608
16859TIP3    H272069   1.897   2.349   3.483 -0.0529  0.9211  1.0595
16860TIP3   OH272070   2.696   4.703   3.988  0.1494  0.0851  0.2280
16860TIP3    H172071   2.733   4.786   4.017 -1.4739  0.5444  1.1225
16860TIP3    H272072   2.650   4.724   3.907  0.6485 -0.1951 -0.1382
16861TIP3   OH272073   6.151   3.653   3.539 -0.2163 -0.5829  0.6939
16861TIP3    H172074   6.066   3.654   3.582 -0.3680  0.3298  0.3817
16861TIP3    H272075   6.176   3.745   3.532  0.2924 -0.7816 -0.2132
16862TIP3   OH272076   1.417   1.143  11.720  0.1243 -0.3761  0.2658
16862TIP3    H172077   1.337   1.133  11.668 -0.2230 -1.3027  0.9443
16862TIP3    H272078   1.488   1.127  11.657 -0.2042  0.5996 -0.3734
16863TIP3   OH272079   1.719   1.750   2.917 -0.4271 -0.0155 -0.4077
16863TIP3    H172080   1.722   1.674   2.975  0.9895  0.6677  0.4668
16863TIP3    H272081   1.811   1.772   2.902 -0.8026  1.7778 -0.2901
16864TIP3   OH272082   1.951   6.586   2.455 -0.0270  0.1223  0.0666
16864TIP3    H172083   1.946   6.682   2.446 -1.0982 -0.0332 -1.2548
16864TIP3    H272084   2.041   6.570   2.484  0.2782  1.5093 -0.0267
16865TIP3   OH272085   2.945   5.854  13.374  0.3032  0.6096 -0.2980
16865TIP3    H172086   3.037   5.829  13.377  0.4108  1.0419  0.4949
16865TIP3    H272087   2.945   5.943  13.338  0.0068 -0.1006 -2.1823
16866TIP3   OH272088   5.485   0.002  10.711  0.3218  0.0061 -0.0294
16866TIP3    H172089   5.463   0.095  10.723  0.9733  0.0675  0.7967
16866TIP3    H272090   5.576  -0.005  10.739 -0.1763 -1.1647  1.4429
16867TIP3   OH272091   5.499   4.383   3.798 -0.0597  0.2213  0.5695
16867TIP3    H172092   5.455   4.337   3.726 -0.8418  1.4653  0.2310
16867TIP3    H272093   5.553   4.449   3.755 -2.3875  2.6298  1.1103
16868TIP3   OH272094   1.303   4.498  12.220  0.0418 -0.4308  0.1745
16868TIP3    H172095   1.395   4.524  12.233 -0.4734  1.6290  0.0741
16868TIP3    H272096   1.254   4.579  12.233 -1.7234 -1.3656 -0.4363
16869TIP3   OH272097   1.672   6.022  14.786 -0.4940 -0.1596 -0.0315
16869TIP3    H172098   1.590   5.998  14.830 -1.5338  1.2383 -1.1271
16869TIP3    H272099   1.673   5.969  14.706 -0.8254  0.5330 -0.4996
16870TIP3   OH272100   4.574   0.445   0.220 -0.0016  0.0769  0.6221
16870TIP3    H172101   4.628   0.366   0.227 -1.1915 -0.8916 -0.6011
16870TIP3    H272102   4.564   0.459   0.126  2.6562  3.5050  0.6557
16871TIP3   OH272103   5.939   5.859   0.511  0.3599  0.4757  0.8311
16871TIP3    H172104   5.943   5.819   0.598 -1.4055 -1.0137  0.3013
16871TIP3    H272105   6.010   5.818   0.462 -1.5653 -2.4882  0.2176
16872TIP3   OH272106   1.256   0.834   2.705  0.2037  0.1699  0.2660
16872TIP3    H172107   1.207   0.756   2.676  0.5108  0.3551 -0.8040
16872TIP3    H272108   1.226   0.849   2.795 -1.7037  0.2664 -0.3374
16873TIP3   OH272109   1.106   1.562  12.855 -0.0248 -0.0322 -0.6348
16873TIP3    H172110   1.058   1.638  12.886  0.6779 -0.3560  1.3750
16873TIP3    H272111   1.086   1.558  12.761 -2.6375  0.7406 -0.1915
16874TIP3   OH272112   4.626   5.018   3.859 -0.4206  0.4001 -0.2039
16874TIP3    H172113   4.694   5.070   3.817 -0.1168 -0.5571 -0.9328
16874TIP3    H272114   4.614   4.942   3.801 -0.0627 -0.9106  1.3740
16875TIP3   OH272115   3.703   6.433   3.865 -0.4842 -0.1354  0.0497
16875TIP3    H172116   3.691   6.375   3.789 -2.5002  0.7586 -0.3869
16875TIP3    H272117   3.745   6.378   3.931  0.1595 -1.2979 -1.2652
16876TIP3   OH272118   5.568   3.676   0.937 -0.6295  0.2545 -0.2632
16876TIP3    H172119   5.611   3.761   0.946 -0.8115  0.1704  1.7941
16876TIP3    H272120   5.628   3.624   0.883  1.2498  0.5478  1.4490
16877TIP3   OH272121   0.350   1.758  15.894  0.3793  0.5418  0.2037
16877TIP3    H172122   0.266   1.804  15.892  0.5932  1.0973  1.9894
16877TIP3    H272123   0.335   1.681  15.948  0.7208 -0.0406 -0.5089
16878TIP3   OH272124   5.210   4.771   4.625 -0.2267  0.5234  0.1174
16878TIP3    H172125   5.279   4.792   4.561  1.2015 -3.4317  0.0548
16878TIP3    H272126   5.129   4.777   4.576  0.5919  0.3235 -1.3264
16879TIP3   OH272127   5.126   3.750  14.477  0.2617 -0.3903  0.2963
16879TIP3    H172128   5.180   3.717  14.550 -1.4328  0.1795  1.8738
16879TIP3    H272129   5.178   3.821  14.439  0.9467 -0.3307  1.3103
16880TIP3   OH272130   2.054   5.988  12.065  0.0354  0.3115  0.0172
16880TIP3    H172131   2.122   5.963  12.002 -0.1147 -1.1892  0.4240
16880TIP3    H272132   1.974   5.992  12.013 -0.2814 -1.9637  0.2544
16881TIP3   OH272133   1.327   3.050  10.934 -0.2561 -0.2313  0.3624
16881TIP3    H172134   1.376   3.061  11.016  0.2583 -0.9918  0.1670
16881TIP3    H272135   1.236   3.064  10.958 -0.1921 -1.1941  1.2276
16882TIP3   OH272136   2.332   1.093   3.718 -0.1727 -0.4694 -0.3100
16882TIP3    H172137   2.353   1.007   3.756 -1.1351 -0.6888 -0.2591
16882TIP3    H272138   2.238   1.091   3.706 -0.0682  0.1779 -1.3234
16883TIP3   OH272139   6.034   2.353   0.647  0.0341 -0.0989  0.0810
16883TIP3    H172140   5.953   2.382   0.607  0.1110  0.4253  0.2969
16883TIP3    H272141   6.101   2.368   0.580 -0.0553 -0.5858 -0.1180
16884TIP3   OH272142   5.510   0.588  12.316 -0.0438 -0.5900  0.8863
16884TIP3    H172143   5.506   0.493  12.303  0.1080 -0.3754 -1.0709
16884TIP3    H272144   5.602   0.610  12.302 -0.3370  0.0161 -0.1538
16885TIP3   OH272145   5.381   2.837   3.537 -0.1993 -0.9479  0.5038
16885TIP3    H172146   5.312   2.903   3.549 -0.4726 -0.9500 -0.9416
16885TIP3    H272147   5.431   2.868   3.461  1.6656 -0.7472  1.7315
16886TIP3   OH272148   1.233   6.101   5.443 -0.3602  0.2326  0.1018
16886TIP3    H172149   1.318   6.106   5.486 -0.4363 -0.0558  0.2917
16886TIP3    H272150   1.213   6.007   5.440 -1.2101  0.3587  1.1323
16887TIP3   OH272151   1.416   4.111   6.777  0.1086 -0.2115 -0.4778
16887TIP3    H172152   1.429   4.142   6.688  0.0104 -1.2649 -0.8797
16887TIP3    H272153   1.333   4.150   6.805  1.4099  2.3069  0.1725
16888TIP3   OH272154   2.664   4.561  13.728 -0.5469 -0.1437  0.3382
16888TIP3    H172155   2.657   4.585  13.635 -0.8997  1.3697  0.7231
16888TIP3    H272156   2.610   4.483  13.736 -0.9309 -0.0024 -0.6428
16889TIP3   OH272157   5.053   1.738  11.861  0.2291 -0.0525 -0.1465
16889TIP3    H172158   5.061   1.806  11.794 -0.2781  0.0695 -0.0844
16889TIP3    H272159   4.967   1.699  11.845  1.7730 -3.0145 -2.4136
16890TIP3   OH272160   3.938   4.096  12.324  0.0309  0.0930 -0.5479
16890TIP3    H172161   3.978   4.098  12.411 -2.6545 -0.4594  0.7751
16890TIP3    H272162   3.942   4.004  12.298 -2.5725 -0.4851  0.7707
16891TIP3   OH272163   2.817   2.536  15.636  0.0474 -0.2709 -1.4223
16891TIP3    H172164   2.868   2.456  15.627  0.4992 -0.2038  0.2328
16891TIP3    H272165   2.755   2.517  15.707  1.0536  1.2508 -0.0683
16892TIP3   OH272166   2.403   0.980   0.278 -0.3568 -0.6267  0.3121
16892TIP3    H172167   2.311   1.007   0.287 -0.3739 -1.0892  1.8842
16892TIP3    H272168   2.435   1.029   0.202 -2.3121 -1.6583 -1.2606
16893TIP3   OH272169   1.786   5.366  11.811  1.2269  0.1395 -0.0025
16893TIP3    H172170   1.769   5.273  11.795 -1.1918  0.6973 -1.1770
16893TIP3    H272171   1.799   5.404  11.724 -1.8370  1.4934 -0.0265
16894TIP3   OH272172   4.482   3.754   0.816 -0.0752 -0.0715  0.5989
16894TIP3    H172173   4.522   3.708   0.742 -0.4581 -0.3398  0.5562
16894TIP3    H272174   4.438   3.685   0.866 -0.3606  0.2012  0.7243
16895TIP3   OH272175   6.589   2.945  16.052 -0.2208  0.0457 -0.4685
16895TIP3    H172176   6.617   3.023  16.099  0.0892  0.5272 -1.4232
16895TIP3    H272177   6.507   2.970  16.010 -1.3524 -0.8827  1.0780
16896TIP3   OH272178   2.756   5.102  14.864 -0.2033 -0.0525  0.1816
16896TIP3    H172179   2.784   5.187  14.900 -1.0526  1.2706 -2.0412
16896TIP3    H272180   2.701   5.126  14.789  0.9631 -2.5996 -1.6046
16897TIP3   OH272181   4.543   3.768   3.665 -0.5248  0.5431  0.3486
16897TIP3    H172182   4.520   3.827   3.593 -1.7247  0.5374  0.7132
16897TIP3    H272183   4.481   3.789   3.734  0.1933  0.0857  1.1517
16898TIP3   OH272184   4.187   6.130   4.882 -0.8152 -0.1534  0.5581
16898TIP3    H172185   4.162   6.221   4.865 -0.7567 -0.0503  1.0072
16898TIP3    H272186   4.119   6.097   4.941 -2.3179 -1.2219 -1.6455
16899TIP3   OH272187   5.822   2.787  15.848  0.4098  0.3323  0.4836
16899TIP3    H172188   5.853   2.701  15.877 -0.4471  0.1716  0.9525
16899TIP3    H272189   5.757   2.812  15.913 -0.7688  0.4533 -0.7019
16900TIP3   OH272190   5.561   6.204  15.815  0.4976  0.2904 -0.2670
16900TIP3    H172191   5.494   6.213  15.747 -1.4370 -1.0356  1.3380
16900TIP3    H272192   5.597   6.293  15.825 -2.2339  1.4900 -0.0590
16901TIP3   OH272193   0.764   2.022   6.300  0.1496  0.3607  0.0521
16901TIP3    H172194   0.839   2.018   6.239 -0.5044 -1.9703 -0.7131
16901TIP3    H272195   0.773   1.943   6.353 -0.9483  0.8532  0.9997
16902TIP3   OH272196   4.994   6.477  10.643 -0.3989 -0.0700  0.0593
16902TIP3    H172197   5.029   6.508  10.559 -1.0609  0.9502  0.1450
16902TIP3    H272198   4.899   6.483  10.633 -0.5719 -1.9440  0.1520
16903TIP3   OH272199   1.616   4.674  15.673  0.1150  1.1269 -0.2835
16903TIP3    H172200   1.593   4.629  15.754 -0.0859 -0.9816 -1.4468
16903TIP3    H272201   1.558   4.750  15.670 -0.1504  1.0135  1.3282
16904TIP3   OH272202   6.350   4.867   4.499 -0.0871  0.1989  0.2840
16904TIP3    H172203   6.426   4.855   4.556 -1.6198 -1.3907  2.1481
16904TIP3    H272204   6.298   4.788   4.511 -2.4723  1.5808 -0.2576
16905TIP3   OH272205   6.730   5.989  11.418  0.4162 -0.9311 -0.5075
16905TIP3    H172206   6.645   5.987  11.376  0.1201 -2.5115  0.0860
16905TIP3    H272207   6.774   5.909  11.388  1.1341 -0.8587  0.2850
16906TIP3   OH272208   1.499   1.972   1.255  0.3293 -0.0343  0.3707
16906TIP3    H172209   1.518   1.938   1.167 -0.3579  1.6992 -0.5062
16906TIP3    H272210   1.451   1.901   1.298  1.2076 -1.1495 -0.4197
16907TIP3   OH272211   0.457   1.717  10.830 -0.1745 -0.1170 -0.3582
16907TIP3    H172212   0.508   1.665  10.769 -0.3229 -0.9341  0.2049
16907TIP3    H272213   0.516   1.787  10.857  0.9388 -1.4644  0.8545
16908TIP3   OH272214   1.841   4.439   5.459 -0.1447 -0.0097 -0.6117
16908TIP3    H172215   1.864   4.348   5.481  0.7792  0.4886  0.6236
16908TIP3    H272216   1.785   4.467   5.531 -0.2002  0.4816 -0.8460
16909TIP3   OH272217   2.725   3.994  13.486  0.3826 -0.3077  0.5847
16909TIP3    H172218   2.646   4.037  13.518  0.4021 -1.2664  2.0113
16909TIP3    H272219   2.794   4.059  13.497 -0.1670  0.5036 -0.5897
16910TIP3   OH272220   4.172   0.924  16.736 -0.6058 -0.3999  0.0402
16910TIP3    H172221   4.215   0.980  16.672 -0.7025 -0.3246  0.0406
16910TIP3    H272222   4.195   0.835  16.711 -1.4900 -0.4313 -0.7315
16911TIP3   OH272223   2.493   2.732   4.371  0.4084 -0.8071 -0.1420
16911TIP3    H172224   2.458   2.744   4.459  1.8626  0.6207  0.2784
16911TIP3    H272225   2.580   2.772   4.373  1.0568 -1.9941 -1.8481
16912TIP3   OH272226   3.301   1.657  17.102  0.0101 -0.8278 -0.4261
16912TIP3    H172227   3.259   1.578  17.135  0.2448 -1.0952 -0.7562
16912TIP3    H272228   3.294   1.720  17.173 -3.4578  0.1103 -1.4108
16913TIP3   OH272229   2.587   0.278   3.455  0.0302 -0.3877 -0.2627
16913TIP3    H172230   2.565   0.190   3.484  1.6752 -0.8138 -0.1914
16913TIP3    H272231   2.660   0.265   3.394  0.1861  0.9085 -0.3777
16914TIP3   OH272232   5.785   1.849  13.180 -0.0204  0.1080  0.0342
16914TIP3    H172233   5.867   1.807  13.155  0.5774  1.9385 -1.1722
16914TIP3    H272234   5.719   1.780  13.169  1.0659 -0.8183 -0.8770
16915TIP3   OH272235   2.121   0.238   0.954 -0.0309 -0.2196  0.0839
16915TIP3    H172236   2.026   0.251   0.952 -0.0027  0.1574  0.8147
16915TIP3    H272237   2.133   0.143   0.961 -0.3313 -0.3320 -0.7697
16916TIP3   OH272238   4.099   0.888   0.793 -0.1721  0.2567  0.0344
16916TIP3    H172239   4.016   0.843   0.777  0.1719 -0.4529  0.2241
16916TIP3    H272240   4.133   0.908   0.706 -0.7258  0.8943 -0.0387
16917TIP3   OH272241   6.005   3.114  13.653  0.0046  0.5819  0.2407
16917TIP3    H172242   6.012   3.164  13.734 -0.6690 -0.6226  1.0774
16917TIP3    H272243   6.026   3.024  13.678 -2.8289 -0.3396 -0.3167
16918TIP3   OH272244   2.353   6.547  12.796  0.3894  0.3423  0.0878
16918TIP3    H172245   2.305   6.509  12.722 -0.5685  1.2717  0.2132
16918TIP3    H272246   2.311   6.509  12.873  0.2268  0.7257  0.1885
16919TIP3   OH272247   4.346   6.163  17.084 -0.3918 -0.1175  0.1983
16919TIP3    H172248   4.360   6.193  17.174 -1.4465  1.4069 -0.0995
16919TIP3    H272249   4.279   6.094  17.091 -0.2112 -0.2520  0.6093
16920TIP3   OH272250   5.987   3.491   4.254 -0.7429 -0.1849 -0.6767
16920TIP3    H172251   6.054   3.459   4.314 -0.9043  0.9664  0.1534
16920TIP3    H272252   5.909   3.440   4.276 -1.0158  0.7485  0.6780
16921TIP3   OH272253   3.040   0.436   1.871  0.1160  0.5802  0.2494
16921TIP3    H172254   3.031   0.394   1.786  1.9332  0.3589  0.1246
16921TIP3    H272255   2.950   0.452   1.900 -0.6817 -2.9110  0.0829
16922TIP3   OH272256   2.240   4.270   3.731 -0.4114  0.4332 -0.4198
16922TIP3    H172257   2.264   4.193   3.782 -0.4924  0.2592 -0.6441
16922TIP3    H272258   2.323   4.306   3.701 -0.2998  1.0174  0.5234
16923TIP3   OH272259   1.847   0.750   3.059  0.5237  0.1699 -0.1643
16923TIP3    H172260   1.815   0.833   3.093 -0.8637 -0.4562  0.1188
16923TIP3    H272261   1.842   0.759   2.964  0.9264  0.6058 -0.1482
16924TIP3   OH272262   1.417   2.824  10.803 -0.2273 -1.1697  0.3227
16924TIP3    H172263   1.390   2.912  10.832 -1.4271 -0.6119 -2.2063
16924TIP3    H272264   1.479   2.795  10.870 -2.1626  0.2696  2.9305
16925TIP3   OH272265   4.072   6.349   3.757 -1.0464 -0.2814  0.0043
16925TIP3    H172266   4.129   6.317   3.827 -0.8472  0.5775  0.2371
16925TIP3    H272267   4.126   6.341   3.678 -0.5086  0.7419  0.2562
16926TIP3   OH272268   3.994   1.806  13.085 -0.0527  0.4814  0.8076
16926TIP3    H172269   3.918   1.759  13.051  0.5654 -0.0850  0.1755
16926TIP3    H272270   4.065   1.783  13.026  0.3481  1.9701  0.6553
16927TIP3   OH272271   0.280   0.873  11.298  0.0313 -0.1286  0.4750
16927TIP3    H172272   0.262   0.866  11.204  0.9411 -3.1816  0.4153
16927TIP3    H272273   0.201   0.912  11.334  0.1180  2.2757 -1.6539
16928TIP3   OH272274   1.555   4.406   6.180 -0.5075 -0.2342 -0.4132
16928TIP3    H172275   1.595   4.485   6.217 -2.9209  1.2653 -0.7842
16928TIP3    H272276   1.570   4.413   6.086 -0.0347 -0.6384 -0.3688
16929TIP3   OH272277   5.623   4.165   0.394  0.3577 -0.1717 -0.1938
16929TIP3    H172278   5.559   4.138   0.327  0.7615 -0.1314 -0.6027
16929TIP3    H272279   5.708   4.154   0.351  0.6155 -0.0185  0.2733
16930TIP3   OH272280   3.866   4.553  11.421 -0.3798  0.1386  0.3940
16930TIP3    H172281   3.960   4.567  11.407 -0.2507  0.2456  1.2838
16930TIP3    H272282   3.857   4.545  11.516 -1.2079 -0.3786  0.2842
16931TIP3   OH272283   1.442   3.397  11.925 -0.0063  0.2392 -0.1904
16931TIP3    H172284   1.365   3.342  11.942 -0.0603  0.1956 -0.5746
16931TIP3    H272285   1.515   3.336  11.922  0.1254  0.3322  0.6759
16932TIP3   OH272286   1.331   3.219   2.891 -0.0405  0.3232 -0.1931
16932TIP3    H172287   1.318   3.125   2.893 -0.9580  0.4102 -1.1575
16932TIP3    H272288   1.342   3.244   2.983 -1.6333 -0.5026  0.2635
16933TIP3   OH272289   5.504   2.308   4.446  0.4708 -0.4461 -0.0107
16933TIP3    H172290   5.537   2.294   4.357 -2.1680  1.1344 -1.3787
16933TIP3    H272291   5.559   2.379   4.480  0.9055 -0.4064 -0.7502
16934TIP3   OH272292   4.693   6.784  15.069 -0.7263  0.0349  0.0421
16934TIP3    H172293   4.786   6.764  15.061 -0.7294  0.0583 -0.0471
16934TIP3    H272294   4.652   6.699  15.088 -0.9662 -0.3838 -2.1143
16935TIP3   OH272295   1.480   0.385   3.331  0.3500 -0.6390 -0.8374
16935TIP3    H172296   1.570   0.415   3.344  0.3755 -0.7365 -0.7828
16935TIP3    H272297   1.484   0.291   3.351  0.4313 -0.8400 -1.7300
16936TIP3   OH272298   5.239   3.016   4.364 -0.0210  0.1792  0.0874
16936TIP3    H172299   5.210   2.940   4.315 -0.2243  0.6078 -0.4624
16936TIP3    H272300   5.316   3.048   4.316  0.8504 -0.4210  1.0273
16937TIP3   OH272301   0.623   0.747  14.287 -0.1725 -0.1562  0.2400
16937TIP3    H172302   0.551   0.798  14.251  0.5964  2.0450  1.5849
16937TIP3    H272303   0.614   0.755  14.382  1.6800  0.0131  0.4529
16938TIP3   OH272304   3.473   3.889   4.789  0.0845  0.6348 -0.5990
16938TIP3    H172305   3.514   3.956   4.844  0.9694  0.6434 -1.2529
16938TIP3    H272306   3.392   3.867   4.835 -0.0862  1.9462 -0.2172
16939TIP3   OH272307   6.329   2.006   2.640  0.3594 -0.3498  0.8533
16939TIP3    H172308   6.391   2.078   2.630 -1.6685  1.3981 -0.2162
16939TIP3    H272309   6.313   2.001   2.734  1.1356  0.0479  1.0125
16940TIP3   OH272310   1.669   6.551  14.962 -0.7238  0.7670  0.3499
16940TIP3    H172311   1.575   6.557  14.947 -0.8075 -3.8249 -3.2097
16940TIP3    H272312   1.683   6.464  14.999  2.1610  0.5387 -0.9720
16941TIP3   OH272313   0.886   5.483  15.166 -0.1416 -0.5010 -0.0637
16941TIP3    H172314   0.801   5.522  15.146 -0.0988  0.0288  0.7440
16941TIP3    H272315   0.918   5.450  15.082 -1.4484 -1.3305 -0.2524
16942TIP3   OH272316   0.143   4.010  13.603 -0.3833 -0.4018 -0.2494
16942TIP3    H172317   0.056   3.980  13.578 -0.6276  0.1696 -0.1134
16942TIP3    H272318   0.165   3.959  13.680 -0.5954 -0.5515 -0.2871
16943TIP3   OH272319   1.686   1.509  14.750 -0.2106  0.0030  0.2883
16943TIP3    H172320   1.741   1.518  14.828 -0.7815 -1.8959  0.9687
16943TIP3    H272321   1.643   1.594  14.740  2.0674  1.2464  0.2776
16944TIP3   OH272322   4.229   2.722   0.782 -0.2880 -0.4490 -0.4630
16944TIP3    H172323   4.182   2.641   0.800 -0.1771 -0.8946 -2.0080
16944TIP3    H272324   4.165   2.779   0.740  0.3384 -0.8373 -2.0241
16945TIP3   OH272325   0.330   0.797  12.519  0.2717  0.1194  0.1622
16945TIP3    H172326   0.297   0.874  12.565 -0.1169  0.4240 -0.6085
16945TIP3    H272327   0.411   0.775  12.564 -0.1845  0.2968  1.0990
16946TIP3   OH272328   3.503   2.936   5.207 -0.1358  0.4997 -0.1423
16946TIP3    H172329   3.484   3.014   5.258 -2.9792  0.3965 -0.9079
16946TIP3    H272330   3.432   2.930   5.142 -0.1791 -2.7954  0.0131
16947TIP3   OH272331   5.047   1.771  15.766 -0.2193  0.3185  0.4261
16947TIP3    H172332   5.108   1.840  15.794  0.9184  0.2233 -1.6126
16947TIP3    H272333   4.961   1.804  15.791  0.4656  1.5269  1.3240
16948TIP3   OH272334   4.459   5.170   5.213 -0.4520  0.0920  0.1241
16948TIP3    H172335   4.530   5.111   5.241 -1.3596 -0.9148  0.3938
16948TIP3    H272336   4.464   5.244   5.273  0.1160 -0.1657  0.4024
16949TIP3   OH272337   4.323   3.977   1.857  0.1067 -0.1014  0.0960
16949TIP3    H172338   4.284   4.041   1.798  0.8847  0.5485  0.2717
16949TIP3    H272339   4.249   3.923   1.886 -0.8980  1.8472  1.3447
16950TIP3   OH272340   3.591   4.956  12.467  0.2348 -0.5113 -0.4161
16950TIP3    H172341   3.560   5.047  12.459  1.1972 -0.2563 -1.5071
16950TIP3    H272342   3.538   4.907  12.404  0.4056 -0.5234 -0.5491
16951TIP3   OH272343   4.653   6.411   5.056 -0.2949  0.2136 -0.4894
16951TIP3    H172344   4.563   6.383   5.071 -0.1715  0.7151  1.3698
16951TIP3    H272345   4.696   6.401   5.141  0.8967  1.8652 -0.8567
16952TIP3   OH272346   1.282   0.452  13.889  0.0202  0.0171 -0.1863
16952TIP3    H172347   1.243   0.506  13.957 -0.8516  0.7031 -1.2058
16952TIP3    H272348   1.242   0.366  13.901  0.4170 -0.0680  0.6042
16953TIP3   OH272349   5.312   2.172   1.916 -0.1806 -0.0397 -0.3575
16953TIP3    H172350   5.383   2.127   1.869  0.8425  0.0795  1.0168
16953TIP3    H272351   5.357   2.230   1.977 -1.4805  1.2133 -0.5312
16954TIP3   OH272352   3.298   1.520   6.434 -0.0856  0.9718  0.1680
16954TIP3    H172353   3.305   1.462   6.510 -2.4889  1.3342  0.7341
16954TIP3    H272354   3.380   1.569   6.434  1.7105 -1.7710  0.1491
16955TIP3   OH272355   2.436   4.859   3.528 -0.4184  0.1213 -0.2179
16955TIP3    H172356   2.477   4.936   3.489  0.0779 -0.6165 -1.1923
16955TIP3    H272357   2.410   4.805   3.453 -1.4008 -0.3341  0.4293
16956TIP3   OH272358   6.370   6.296  16.970  0.2372  0.4371 -0.3361
16956TIP3    H172359   6.460   6.274  16.947 -0.0669 -2.1285  0.5293
16956TIP3    H272360   6.372   6.306  17.065 -0.5745 -0.9755 -0.1407
16957TIP3   OH272361   5.177   2.852  17.164 -0.3697  0.2421 -0.1102
16957TIP3    H172362   5.145   2.786  17.226  3.0054 -0.6294  0.9055
16957TIP3    H272363   5.161   2.813  17.078  0.8621 -1.6621  0.4504
16958TIP3   OH272364   5.417   0.529  16.382  0.0978 -0.1046  0.2350
16958TIP3    H172365   5.454   0.617  16.372  0.6327 -0.0067  2.4900
16958TIP3    H272366   5.493   0.470  16.380 -0.1105 -0.3698  0.1209
16959TIP3   OH272367   3.520   4.454  16.526 -0.7857  0.6452  0.3128
16959TIP3    H172368   3.482   4.459  16.614 -0.6366  1.8943  0.3131
16959TIP3    H272369   3.526   4.545  16.497 -1.5579  0.2100 -1.3052
16960TIP3   OH272370   6.424   1.736  14.213 -0.8335  0.1465  0.1311
16960TIP3    H172371   6.494   1.800  14.223 -0.6499  0.1244 -0.8829
16960TIP3    H272372   6.344   1.783  14.237 -0.2894 -0.4502  3.5101
16961TIP3   OH272373   5.589   2.481   1.267  0.0563 -0.1954 -0.0775
16961TIP3    H172374   5.640   2.556   1.297  1.6141 -0.4731 -1.8299
16961TIP3    H272375   5.654   2.412   1.251 -1.1025 -1.2512 -0.4462
16962TIP3   OH272376   6.360   5.514   4.209 -0.0372  0.6625 -0.1218
16962TIP3    H172377   6.447   5.552   4.209 -0.3215  1.3667 -1.3723
16962TIP3    H272378   6.375   5.421   4.192  0.4337  0.9493 -1.3981
16963TIP3   OH272379   6.558   0.477   3.479 -0.3102 -0.2753 -0.0429
16963TIP3    H172380   6.552   0.426   3.398  1.7351  2.8303 -2.3737
16963TIP3    H272381   6.630   0.436   3.527 -0.8201 -1.4813 -0.2607
16964TIP3   OH272382   2.923   0.884  11.205 -0.4366  0.1325  0.4423
16964TIP3    H172383   2.857   0.883  11.275 -1.8270 -1.0747 -0.8165
16964TIP3    H272384   2.881   0.932  11.133  0.7955  0.9609  0.2489
16965TIP3   OH272385   1.938   5.361  15.517 -0.1688 -0.0274 -0.3796
16965TIP3    H172386   1.845   5.367  15.497 -0.1985  1.7990  0.1391
16965TIP3    H272387   1.978   5.330  15.435 -1.3782 -2.8103 -0.0388
16966TIP3   OH272388   4.175   6.384   2.763 -0.5404  0.0779 -0.4406
16966TIP3    H172389   4.185   6.305   2.710  2.9759  0.1284 -0.1096
16966TIP3    H272390   4.235   6.447   2.723 -1.8698  1.9706  0.4186
16967TIP3   OH272391   3.623   3.531  16.345  0.1932 -0.2991 -0.8207
16967TIP3    H172392   3.549   3.473  16.363  0.0222  0.7102  2.4189
16967TIP3    H272393   3.598   3.579  16.266 -0.8608 -2.6004 -1.9803
16968TIP3   OH272394   6.138   2.189   4.261  0.2179 -0.0887 -0.8964
16968TIP3    H172395   6.227   2.155   4.246  1.1348  1.7492 -0.0551
16968TIP3    H272396   6.106   2.211   4.174  2.3808  3.2366 -1.0441
16969TIP3   OH272397   3.476   4.957   0.070 -0.0537 -0.0059 -0.0721
16969TIP3    H172398   3.539   4.974   0.140 -1.3409  2.7289  0.5871
16969TIP3    H272399   3.417   4.890   0.106  0.2804  0.1603  0.8056
16970TIP3   OH272400   2.878   6.775   4.900  0.6195 -0.4655 -0.1103
16970TIP3    H172401   2.843   6.726   4.825 -0.2069  0.7138 -0.5278
16970TIP3    H272402   2.816   6.757   4.971  1.2423 -1.3494  0.2221
16971TIP3   OH272403   6.182   0.126   3.143 -0.4394  0.4594 -0.6066
16971TIP3    H172404   6.107   0.181   3.165  0.5957  0.9399  2.1227
16971TIP3    H272405   6.245   0.186   3.103 -0.6583  0.4905 -0.9117
16972TIP3   OH272406   6.744   5.054   3.029  0.5760  0.5795  0.7035
16972TIP3    H172407   6.680   5.116   2.994  1.2263  1.5856  1.2357
16972TIP3    H272408   6.811   5.109   3.069  1.6622 -0.4569  0.3723
16973TIP3   OH272409   2.306   6.022   5.132  0.6825 -0.0275 -0.3285
16973TIP3    H172410   2.243   6.053   5.066  0.6378  1.3946  0.3462
16973TIP3    H272411   2.292   5.928   5.136 -0.4245  0.0817 -1.2184
16974TIP3   OH272412   3.008   6.304  15.857  0.0619  0.1090 -0.2330
16974TIP3    H172413   3.099   6.293  15.831 -0.2366 -2.2482 -0.5546
16974TIP3    H272414   2.958   6.260  15.788 -1.4611  2.5006 -0.7721
16975TIP3   OH272415   2.451   1.339  12.118  0.8366 -0.7440 -0.3013
16975TIP3    H172416   2.469   1.432  12.112  1.0316 -0.7603 -0.0091
16975TIP3    H272417   2.395   1.331  12.196  0.0579 -0.7634 -0.8536
16976TIP3   OH272418   4.353   6.332   4.541  0.8288 -0.3180 -0.0582
16976TIP3    H172419   4.383   6.243   4.563 -0.6122 -1.0818 -1.0738
16976TIP3    H272420   4.268   6.340   4.584  1.2547  0.8602  0.6181
16977TIP3   OH272421   0.314   6.204   0.879 -0.2619 -0.7721 -0.4326
16977TIP3    H172422   0.394   6.183   0.927 -0.8436 -2.0784  0.0226
16977TIP3    H272423   0.334   6.184   0.788 -0.0853 -1.1755 -0.3081
16978TIP3   OH272424   5.330   5.994  16.748 -0.0464 -0.1824 -0.2890
16978TIP3    H172425   5.367   6.059  16.808  0.1638 -0.3834 -0.1995
16978TIP3    H272426   5.393   5.988  16.677  1.0363 -1.8521  0.7473
16979TIP3   OH272427   5.855   1.944  16.043  0.5427 -0.0882 -0.2040
16979TIP3    H172428   5.818   2.003  15.978 -1.3812 -1.8776 -0.8264
16979TIP3    H272429   5.915   1.888  15.994 -0.8351 -1.3746 -0.4684
16980TIP3   OH272430   1.348   6.037   3.122  0.8682  0.4164 -0.2251
16980TIP3    H172431   1.339   6.113   3.179 -0.1205 -0.1289  0.3799
16980TIP3    H272432   1.380   5.968   3.180 -0.8775 -0.3538 -0.1102
16981TIP3   OH272433   6.729   3.218  11.431 -0.5049  0.4548  0.7084
16981TIP3    H172434   6.812   3.175  11.454 -1.6275 -1.8827  0.6529
16981TIP3    H272435   6.749   3.265  11.350  0.7038 -0.3324  0.5137
16982TIP3   OH272436   2.968   4.753   3.021 -0.0595  0.0367 -0.7624
16982TIP3    H172437   2.876   4.760   2.996 -1.1445 -0.7463  2.5897
16982TIP3    H272438   2.992   4.841   3.049 -1.1817 -0.5430  2.3605
16983TIP3   OH272439   3.652   3.392   5.648 -0.4598  0.1806  0.0795
16983TIP3    H172440   3.584   3.345   5.599  0.6949 -1.1204 -0.3387
16983TIP3    H272441   3.693   3.324   5.702  0.2002  1.0424  0.6811
16984TIP3   OH272442   0.832   4.200  13.937 -0.5418  0.3883 -0.1110
16984TIP3    H172443   0.859   4.114  13.970  0.1126  0.6203 -0.0244
16984TIP3    H272444   0.858   4.261  14.005  1.5017  0.9602 -1.3005
16985TIP3   OH272445   5.750   2.948   3.645  0.2954 -0.1451  0.2495
16985TIP3    H172446   5.799   3.006   3.704  0.4491  1.2139 -1.1836
16985TIP3    H272447   5.669   2.994   3.627  0.3209 -0.4583 -0.7333
16986TIP3   OH272448   0.308   5.150  14.167  0.1356  0.4001  0.1309
16986TIP3    H172449   0.216   5.135  14.147 -0.6570  0.4870  3.1667
16986TIP3    H272450   0.337   5.069  14.209  0.3812  1.4940  2.2406
16987TIP3   OH272451   6.819   5.360   0.961  0.3083  0.4679 -0.2850
16987TIP3    H172452   6.858   5.447   0.971  0.7105  0.5363 -2.0783
16987TIP3    H272453   6.883   5.300   0.998  1.0959  0.7681 -1.1218
16988TIP3   OH272454   0.688   2.602   1.338 -0.0030 -0.3179 -0.1181
16988TIP3    H172455   0.600   2.568   1.352 -0.0969  0.1292  0.4374
16988TIP3    H272456   0.683   2.650   1.255 -0.3166 -0.1856 -0.0223
16989TIP3   OH272457   6.747   4.067   3.061  0.4008  0.3153 -0.0340
16989TIP3    H172458   6.801   4.077   2.982 -1.3327  0.3462 -1.2871
16989TIP3    H272459   6.759   4.150   3.108  0.1565  1.0266 -1.1661
16990TIP3   OH272460   2.811   3.220  15.144 -0.1676  0.6113  0.5388
16990TIP3    H172461   2.824   3.297  15.199  1.4339  1.0278 -0.3567
16990TIP3    H272462   2.780   3.152  15.203  2.2363  0.8074  2.1355
16991TIP3   OH272463   0.912   5.826   3.483 -0.4564 -0.1218 -0.9772
16991TIP3    H172464   0.845   5.758   3.475 -0.5145 -0.1183 -0.5828
16991TIP3    H272465   0.868   5.907   3.459 -0.9152  0.0465  0.3519
16992TIP3   OH272466   4.662   5.232  13.967 -0.7868 -0.9331 -0.1316
16992TIP3    H172467   4.728   5.237  14.036 -0.8302  2.9984 -0.1608
16992TIP3    H272468   4.580   5.255  14.010 -1.8539 -3.4846 -0.5881
16993TIP3   OH272469   4.198   4.024  14.933 -0.2482 -0.3596 -0.2867
16993TIP3    H172470   4.231   3.996  14.848  0.9650  0.9185 -0.2712
16993TIP3    H272471   4.173   4.115  14.921 -0.4030 -0.2665  0.6314
16994TIP3   OH272472   0.928   5.705  13.279  0.3656 -0.9677 -0.0946
16994TIP3    H172473   0.865   5.659  13.225 -1.6430 -0.7072  1.8709
16994TIP3    H272474   1.013   5.679  13.245 -0.7650 -1.7304 -2.5266
16995TIP3   OH272475   5.456   4.800  13.155 -0.3008  0.2047  0.1702
16995TIP3    H172476   5.477   4.872  13.214 -1.6900  1.7587 -1.1447
16995TIP3    H272477   5.411   4.841  13.082  1.4966 -1.6097 -2.1164
16996TIP3   OH272478   4.513   5.548   3.037  0.3936 -0.1244  0.4554
16996TIP3    H172479   4.536   5.641   3.031 -0.5333  0.0392 -1.6763
16996TIP3    H272480   4.596   5.502   3.026  0.5008  0.4870 -1.9825
16997TIP3   OH272481   0.103   1.013  15.145  0.3674  0.2242 -0.3491
16997TIP3    H172482   0.075   0.982  15.059 -2.1407  1.8229 -0.2008
16997TIP3    H272483   0.096   0.936  15.201  0.8421 -0.5348 -1.2858
16998TIP3   OH272484   0.673   4.480  16.777  0.0196 -0.5921 -0.0395
16998TIP3    H172485   0.599   4.487  16.837  1.1996 -0.8072  1.4823
16998TIP3    H272486   0.632   4.478  16.690 -1.6297  1.7785  0.5831
16999TIP3   OH272487   1.408   5.884   1.513 -0.0618 -0.0129 -1.0084
16999TIP3    H172488   1.403   5.810   1.452  0.1142  0.0874 -1.1447
16999TIP3    H272489   1.355   5.952   1.471  2.1570  0.9781 -2.3477
17000TIP3   OH272490   2.938   5.702   1.871  0.6500  0.0449  0.0767
17000TIP3    H172491   2.950   5.753   1.791  1.8524  1.2641  0.9843
17000TIP3    H272492   2.905   5.765   1.935 -1.1585 -1.1145  0.3365
17001TIP3   OH272493   1.221   3.603   1.826 -0.3028  0.2156 -0.7415
17001TIP3    H172494   1.227   3.616   1.732 -0.2750  0.8815 -0.6561
17001TIP3    H272495   1.312   3.604   1.856 -0.2645 -0.8115 -0.8037
17002TIP3   OH272496   1.440   3.549   2.342  0.7866  0.6376 -0.7528
17002TIP3    H172497   1.500   3.530   2.413  0.1321  1.3811  0.0239
17002TIP3    H272498   1.397   3.466   2.323  0.5062  0.5644  0.1634
17003TIP3   OH272499   0.566   5.803   4.156  0.4018 -0.1470  0.2480
17003TIP3    H172500   0.509   5.741   4.111  0.4708  0.8717 -1.3191
17003TIP3    H272501   0.652   5.787   4.117  0.5112  0.5858  0.1888
17004TIP3   OH272502   3.146   6.218  11.517  0.1998  0.2931 -0.9398
17004TIP3    H172503   3.074   6.277  11.496  0.0226  0.3229 -0.2680
17004TIP3    H272504   3.107   6.151  11.572  1.2327  2.0270  2.1644
17005TIP3   OH272505   1.397   1.488  16.886 -0.0651  0.2695 -0.3832
17005TIP3    H172506   1.422   1.435  16.962 -0.7556  0.0527 -0.2974
17005TIP3    H272507   1.341   1.430  16.834  2.2856 -0.4348 -2.3279
17006TIP3   OH272508   1.719   0.632   1.873 -0.2942 -0.0389  0.5918
17006TIP3    H172509   1.672   0.572   1.931 -0.8701  0.2366  0.4131
17006TIP3    H272510   1.727   0.713   1.923  0.2614 -0.1786  0.7365
17007TIP3   OH272511   5.686   2.983  15.545 -0.1886  0.0748 -0.5009
17007TIP3    H172512   5.671   2.896  15.581 -0.6233  0.0970 -0.6173
17007TIP3    H272513   5.736   3.029  15.612 -1.0527  0.1385  0.1171
17008TIP3   OH272514   2.789   2.644  11.909  0.3890 -0.7205 -0.3610
17008TIP3    H172515   2.791   2.730  11.867 -0.6312 -0.6270 -0.2382
17008TIP3    H272516   2.869   2.641  11.961 -0.2475  0.7307  0.7607
17009TIP3   OH272517   6.762   2.605  13.771 -0.3544 -0.0444  0.4654
17009TIP3    H172518   6.723   2.603  13.859 -0.7493 -1.1597  0.2854
17009TIP3    H272519   6.716   2.675  13.726 -0.2626  0.4304  1.0961
17010TIP3   OH272520   6.758   3.492  14.418  0.3564 -0.0879 -0.2918
17010TIP3    H172521   6.709   3.563  14.376  1.3120  0.2090 -0.9360
17010TIP3    H272522   6.716   3.482  14.504 -1.5353 -0.6059 -1.2129
17011TIP3   OH272523   2.059   2.366   1.682 -0.1222  0.6638  0.2134
17011TIP3    H172524   2.049   2.398   1.772 -0.8740  0.1624  0.3163
17011TIP3    H272525   2.152   2.348   1.673 -0.0569  0.6156  0.9310
17012TIP3   OH272526   6.281   5.323   0.831  0.0616  0.0451 -0.4858
17012TIP3    H172527   6.235   5.252   0.875  0.6018 -1.6959 -2.5355
17012TIP3    H272528   6.370   5.321   0.867  0.5241 -1.4160 -1.5974
17013TIP3   OH272529   4.677   0.176  16.529  0.6664  0.6046  0.2628
17013TIP3    H172530   4.609   0.197  16.465  1.5327  1.0582 -0.5128
17013TIP3    H272531   4.679   0.081  16.532 -1.2693  0.5349  1.6662
17014TIP3   OH272532   3.404   5.194  12.485 -0.7098 -0.1230  0.9285
17014TIP3    H172533   3.477   5.255  12.475  0.4732 -1.6270 -0.0325
17014TIP3    H272534   3.340   5.241  12.538  0.4797  1.6504  0.8493
17015TIP3   OH272535   4.883   5.954  12.637 -0.4293 -0.4724 -0.1055
17015TIP3    H172536   4.960   6.000  12.604  0.6627 -0.7984  1.8393
17015TIP3    H272537   4.911   5.863  12.646 -0.4988 -0.3526  1.9549
17016TIP3   OH272538   3.238   2.840  14.110  0.1467 -0.6646  0.1312
17016TIP3    H172539   3.238   2.775  14.181  0.2324  0.1447  0.8942
17016TIP3    H272540   3.168   2.901  14.135  1.7450  0.9721  0.7953
17017TIP3   OH272541   1.771   1.795  16.668 -0.1538 -0.3199 -0.0397
17017TIP3    H172542   1.693   1.743  16.684 -2.3530  2.2741 -1.5573
17017TIP3    H272543   1.817   1.750  16.598 -1.5641 -0.6769 -0.7536
17018TIP3   OH272544   5.991   0.662  13.099 -0.0466  0.2439  0.2839
17018TIP3    H172545   6.000   0.752  13.067  2.7571  1.3965  3.7232
17018TIP3    H272546   5.922   0.667  13.165  0.0203 -0.1578  0.3872
17019TIP3   OH272547   2.042   4.047   4.285  0.4319  0.0892  0.1597
17019TIP3    H172548   2.084   4.080   4.205  0.0717  1.8070  0.6382
17019TIP3    H272549   2.053   3.952   4.280  3.2996  0.3477 -0.3349
17020TIP3   OH272550   6.471   5.130   1.526  0.3240 -0.2998  0.4085
17020TIP3    H172551   6.487   5.133   1.432 -0.4590 -1.3007  0.2214
17020TIP3    H272552   6.558   5.124   1.566  0.6083 -1.6153 -0.3519
17021TIP3   OH272553   0.963   1.591   2.982 -0.0732  0.1839 -0.0807
17021TIP3    H172554   0.887   1.620   2.931 -0.6468  1.2171  1.3108
17021TIP3    H272555   1.022   1.554   2.917 -0.4488  2.1464 -1.6265
17022TIP3   OH272556   4.886   1.631   5.443  0.3418 -0.5652 -0.2992
17022TIP3    H172557   4.967   1.667   5.405 -0.1144  0.9773  0.1203
17022TIP3    H272558   4.900   1.637   5.537  0.3464 -1.7558 -0.2167
17023TIP3   OH272559   5.667   5.359  13.672 -0.0449 -0.2173 -0.0064
17023TIP3    H172560   5.750   5.405  13.669  0.2930 -0.8303 -0.2175
17023TIP3    H272561   5.690   5.267  13.666 -0.8683 -0.3169 -2.8661
17024TIP3   OH272562   3.102   3.922   2.640 -0.0393 -0.0075 -0.9278
17024TIP3    H172563   3.114   4.002   2.690 -0.1266 -0.7536  0.3369
17024TIP3    H272564   3.007   3.912   2.633 -0.1519 -1.4291  1.4198
17025TIP3   OH272565   0.627   5.093   2.497 -0.1101 -0.0486 -0.0880
17025TIP3    H172566   0.684   5.051   2.432  0.2479 -1.5793  1.1469
17025TIP3    H272567   0.677   5.169   2.526 -0.2435  0.6123 -1.5129
17026TIP3   OH272568   6.389   2.190   4.418  0.5638 -0.2155  0.2656
17026TIP3    H172569   6.437   2.123   4.368 -1.9373 -0.2143 -2.3991
17026TIP3    H272570   6.351   2.142   4.491  0.9487 -1.1535 -0.1191
17027TIP3   OH272571   3.371   1.697  11.184  0.3485  0.4400 -0.1260
17027TIP3    H172572   3.431   1.693  11.110 -1.3034 -0.7138 -1.4762
17027TIP3    H272573   3.307   1.764  11.160 -0.1813  0.0908  0.2800
17028TIP3   OH272574   4.102   2.071   2.408  0.6615 -0.1911 -0.1480
17028TIP3    H172575   4.082   2.098   2.498 -0.9329 -0.0963 -0.4931
17028TIP3    H272576   4.072   1.980   2.403  0.2663 -0.0315 -0.7259
17029TIP3   OH272577   2.947   2.322   3.702  1.0837  0.0685 -0.6075
17029TIP3    H172578   2.873   2.382   3.689  0.9213  0.0016  0.0204
17029TIP3    H272579   3.005   2.368   3.763  1.5478  0.0986 -1.0522
17030TIP3   OH272580   2.176   5.235   0.961  0.4282 -0.0556 -1.2799
17030TIP3    H172581   2.175   5.142   0.937  0.5423  0.1810 -2.2422
17030TIP3    H272582   2.241   5.274   0.903  0.7638  0.5426 -0.5261
17031TIP3   OH272583   1.047   3.233   1.287 -0.2375  0.5608 -1.1649
17031TIP3    H172584   1.067   3.293   1.359  0.7769  1.6611 -2.3316
17031TIP3    H272585   1.082   3.149   1.315 -0.8359  0.7085  0.0865
17032TIP3   OH272586   3.276   4.267   3.018  0.5070  0.2246 -0.6073
17032TIP3    H172587   3.338   4.230   3.081 -0.6376 -0.9572 -0.1299
17032TIP3    H272588   3.232   4.337   3.066 -0.8721 -1.1361  0.2192
17033TIP3   OH272589   5.389   2.638  13.657 -0.2674 -0.9633 -0.1977
17033TIP3    H172590   5.405   2.625  13.751 -1.4156 -0.6467  0.0560
17033TIP3    H272591   5.435   2.566  13.614  2.5249  0.3151  0.3940
17034TIP3   OH272592   0.211   5.816   3.900  0.4560 -0.2622  0.2057
17034TIP3    H172593   0.203   5.798   3.806  0.2974 -0.0893  0.1857
17034TIP3    H272594   0.178   5.905   3.910  1.4523  0.1168  0.2664
17035TIP3   OH272595   1.182   2.481   2.326 -0.7150 -0.2280 -0.7039
17035TIP3    H172596   1.276   2.465   2.314 -0.9334 -2.5936  0.3442
17035TIP3    H272597   1.176   2.529   2.409 -0.3942  1.2541 -1.4872
17036TIP3   OH272598   0.556   0.939  11.763 -0.1192 -0.3462  0.4891
17036TIP3    H172599   0.594   0.919  11.678  2.4727  1.2838  1.1762
17036TIP3    H272600   0.513   1.024  11.751 -0.3276 -0.4251  0.6628
17037TIP3   OH272601   3.041   0.495   4.197  0.0853 -0.1033 -0.2633
17037TIP3    H172602   2.976   0.481   4.266  1.3664 -0.1586  0.9911
17037TIP3    H272603   3.014   0.438   4.126 -1.3411  0.0315  0.1423
17038TIP3   OH272604   5.715   6.736   3.299 -0.3937  0.5494  0.0622
17038TIP3    H172605   5.637   6.681   3.306 -0.5182  0.7288  0.0838
17038TIP3    H272606   5.727   6.748   3.205 -1.4312  1.9873  0.0851
17039TIP3   OH272607   1.137   0.686  11.869 -0.2411 -0.8727  0.5575
17039TIP3    H172608   1.204   0.754  11.874 -0.7350 -0.3457  0.1143
17039TIP3    H272609   1.181   0.613  11.825  0.5925 -1.2343  1.9347
17040TIP3   OH272610   1.671   3.770   2.497 -0.4987 -0.3819  0.0700
17040TIP3    H172611   1.645   3.690   2.543 -3.5075 -0.2416 -1.1680
17040TIP3    H272612   1.703   3.828   2.566  1.7005 -2.5377  1.0134
17041TIP3   OH272613   3.865   6.820   3.294 -0.1396  0.2445  0.0441
17041TIP3    H172614   3.940   6.815   3.354  1.1201 -2.6652 -1.5404
17041TIP3    H272615   3.799   6.764   3.333  0.2060 -0.6479 -0.6149
17042TIP3   OH272616   2.989   5.217   3.763  0.2763 -0.1871  0.1245
17042TIP3    H172617   3.056   5.162   3.804  1.1681  1.0586  0.3978
17042TIP3    H272618   2.912   5.160   3.757  0.8556 -1.1478  1.3045
17043TIP3   OH272619   0.944   4.443  11.750  0.0347 -0.1012  1.0923
17043TIP3    H172620   0.962   4.353  11.724  1.7525  0.1449  1.3106
17043TIP3    H272621   0.990   4.496  11.685  0.1976  0.5909  1.7595
17044TIP3   OH272622   5.878   4.546   1.507 -0.6293  0.2768 -0.6478
17044TIP3    H172623   5.837   4.565   1.592 -0.3373 -1.3461 -0.1011
17044TIP3    H272624   5.860   4.623   1.454 -1.7057  0.9087  0.5662
17045TIP3   OH272625   5.409   5.772  15.055 -0.0606 -0.2622  0.1842
17045TIP3    H172626   5.432   5.795  15.145  1.1358  0.2501 -0.2329
17045TIP3    H272627   5.477   5.710  15.029 -1.6274 -2.1838  0.3320
17046TIP3   OH272628   4.306   2.689  16.973 -0.1851 -0.8634  0.2938
17046TIP3    H172629   4.328   2.773  16.934  1.2633 -1.1507  0.4350
17046TIP3    H272630   4.268   2.638  16.902  0.3196 -0.6001 -0.1684
17047TIP3   OH272631   5.286   6.540   5.091 -0.7229  0.1000 -0.0529
17047TIP3    H172632   5.348   6.538   5.164 -0.7821  1.0917  0.0328
17047TIP3    H272633   5.306   6.461   5.041  1.5921  1.1297 -0.8575
17048TIP3   OH272634   2.754   0.902   1.269 -0.0995 -0.0526 -0.1512
17048TIP3    H172635   2.701   0.861   1.337 -0.2460  2.7914  1.6396
17048TIP3    H272636   2.845   0.892   1.300 -0.1661  1.2387  0.5592
17049TIP3   OH272637   4.560   5.716  13.146 -0.2913  0.5172 -0.1634
17049TIP3    H172638   4.616   5.785  13.112  1.2841  0.0209  1.2342
17049TIP3    H272639   4.621   5.654  13.186 -1.5644 -2.0447 -1.9035
17050TIP3   OH272640   2.563   0.326  15.481 -0.3315  0.2298 -0.3086
17050TIP3    H172641   2.484   0.332  15.535  0.1942 -0.5151  0.5797
17050TIP3    H272642   2.597   0.238  15.499  0.8466  0.6417 -0.4639
17051TIP3   OH272643   5.732   5.541  10.667  0.0506 -0.0712 -0.4981
17051TIP3    H172644   5.680   5.579  10.738  1.5126 -0.0892  0.6468
17051TIP3    H272645   5.807   5.599  10.658  1.2613 -1.5058 -0.1465
17052TIP3   OH272646   0.511   3.046   0.187  0.2209  0.0365 -0.1696
17052TIP3    H172647   0.530   2.953   0.173  1.5224  0.2696 -0.0708
17052TIP3    H272648   0.430   3.046   0.239 -1.8641 -0.9265 -3.1188
17053TIP3   OH272649   6.583   4.270   0.888  1.0020 -0.3463 -0.1820
17053TIP3    H172650   6.621   4.230   0.809 -0.8511  0.2271 -1.4351
17053TIP3    H272651   6.533   4.345   0.856 -0.2570 -0.4047  1.4583
17054TIP3   OH272652   2.990   6.540   2.438  0.0014 -0.1071  0.0300
17054TIP3    H172653   3.030   6.587   2.511  2.8203 -0.7911 -0.9434
17054TIP3    H272654   2.920   6.488   2.477 -0.7493  2.0061  1.6786
17055TIP3   OH272655   0.705   5.241   4.160 -0.2164 -0.1422  0.1868
17055TIP3    H172656   0.731   5.302   4.229 -2.6472  0.0885  0.9905
17055TIP3    H272657   0.639   5.289   4.110  1.1295 -0.4788 -2.0824
17056TIP3   OH272658   0.691   5.332  12.026  0.0587 -0.0921 -0.1288
17056TIP3    H172659   0.745   5.372  11.958  0.7876 -1.6158 -0.5094
17056TIP3    H272660   0.755   5.294  12.087 -0.5946 -0.4218  0.3555
17057TIP3   OH272661   6.465   3.599   4.382 -0.0711  0.4089  0.0993
17057TIP3    H172662   6.473   3.555   4.297  0.8183  0.4240  0.1672
17057TIP3    H272663   6.409   3.674   4.364  0.6949  0.8175 -0.6410
17058TIP3   OH272664   3.360   5.499   1.255 -0.1456 -0.2262 -0.4918
17058TIP3    H172665   3.444   5.516   1.298 -0.2489 -1.9786  0.5013
17058TIP3    H272666   3.383   5.486   1.163  1.1216 -3.1015  0.1053
17059TIP3   OH272667   1.082   3.111   1.672 -0.0665  1.0922  0.1223
17059TIP3    H172668   1.003   3.158   1.644  0.3156  1.0208 -1.1134
17059TIP3    H272669   1.052   3.021   1.686 -0.4478  1.3233  0.8604
17060TIP3   OH272670   2.236   2.751  11.154  0.6918  0.2696  0.0028
17060TIP3    H172671   2.311   2.696  11.175  0.2445 -0.2604  0.2306
17060TIP3    H272672   2.244   2.768  11.060 -0.5098 -2.2813 -0.6352
17061TIP3   OH272673   2.969   6.798   0.467  0.1005 -0.3409 -0.2167
17061TIP3    H172674   3.024   6.744   0.410 -0.1500 -0.2472 -0.5541
17061TIP3    H272675   3.000   6.780   0.555  1.1498  0.2577 -0.4478
17062TIP3   OH272676   4.198   5.772  16.627 -0.0281 -0.6301  0.1712
17062TIP3    H172677   4.275   5.721  16.601 -0.4434 -0.8482 -0.6604
17062TIP3    H272678   4.183   5.831  16.553 -1.2270 -1.2513 -0.1045
17063TIP3   OH272679   3.541   1.441   2.086 -0.1825 -0.5212 -0.1010
17063TIP3    H172680   3.606   1.381   2.051 -1.1709 -1.0514 -1.0779
17063TIP3    H272681   3.592   1.503   2.139  0.9217 -1.8719  0.4810
17064TIP3   OH272682   4.969   2.112   1.461 -0.1131 -0.5656 -0.3867
17064TIP3    H172683   5.025   2.036   1.480  0.5419 -0.3533 -1.3788
17064TIP3    H272684   5.029   2.186   1.457 -0.6566 -0.1022 -0.1162
17065TIP3   OH272685   3.927   6.273  13.046 -0.9603 -1.2054 -0.4128
17065TIP3    H172686   3.987   6.347  13.058 -2.3999 -0.3388  2.5765
17065TIP3    H272687   3.932   6.253  12.953  2.6310 -0.1182 -0.6235
17066TIP3   OH272688   6.785   3.223   4.550 -0.5765 -0.0683  0.1292
17066TIP3    H172689   6.852   3.260   4.493  0.9291  0.3208  2.0467
17066TIP3    H272690   6.704   3.264   4.522  0.8135  4.0600  1.4343
17067TIP3   OH272691   3.342   3.426   4.933 -0.0069  0.1393 -0.2516
17067TIP3    H172692   3.268   3.474   4.896  0.4189 -0.3422 -1.8156
17067TIP3    H272693   3.315   3.334   4.928 -0.2606  0.0965  1.4337
17068TIP3   OH272694   0.192   3.387   1.790 -0.0354  0.3846 -0.3456
17068TIP3    H172695   0.149   3.307   1.760 -1.1443  1.0775 -0.6406
17068TIP3    H272696   0.177   3.451   1.721  3.4728  0.0819 -1.6155
17069TIP3   OH272697   4.450   2.763  14.887 -0.1221  0.3045 -0.4274
17069TIP3    H172698   4.524   2.762  14.947  0.1042  0.2356 -0.7046
17069TIP3    H272699   4.378   2.725  14.938  0.2510 -0.4277 -0.4286
17070TIP3   OH272700   4.876   6.796   2.913 -0.0200  0.4309 -0.4849
17070TIP3    H172701   4.797   6.750   2.884  0.6112 -0.0566 -1.4525
17070TIP3    H272702   4.885   6.772   3.005 -2.0241  1.9564  0.2070
17071TIP3   OH272703   4.151   0.164  16.649 -0.0553 -0.0999 -0.3902
17071TIP3    H172704   4.237   0.165  16.691  0.7444  2.3910 -1.8370
17071TIP3    H272705   4.100   0.100  16.699  1.5877  0.7714  2.6449
17072TIP3   OH272706   5.838   1.346   0.547  0.1679 -0.1600 -0.2453
17072TIP3    H172707   5.885   1.418   0.503  0.8495  0.1249  0.9001
17072TIP3    H272708   5.862   1.268   0.498  0.1247  0.2785 -0.9763
17073TIP3   OH272709   4.704   6.659   1.931  0.5038 -0.7734 -0.4896
17073TIP3    H172710   4.788   6.635   1.891  0.8562 -0.6571  0.1613
17073TIP3    H272711   4.726   6.678   2.022 -0.0506  0.3669 -0.5838
17074TIP3   OH272712   6.664   5.870  15.240 -0.0268  0.1097  0.1007
17074TIP3    H172713   6.622   5.792  15.203  0.4171  0.0275 -0.2420
17074TIP3    H272714   6.752   5.840  15.263  0.0567  0.4440  0.2112
17075TIP3   OH272715   0.846   5.979  16.310  0.0901 -0.1343 -0.0686
17075TIP3    H172716   0.821   6.069  16.332  0.6573  0.0475 -0.1622
17075TIP3    H272717   0.877   5.942  16.392 -2.0806 -0.9261  0.4626
17076TIP3   OH272718   1.284   1.931  10.883  0.1218  0.6922 -0.1672
17076TIP3    H172719   1.293   2.026  10.886 -2.9604  1.1050 -0.5254
17076TIP3    H272720   1.370   1.900  10.856  1.9017  3.1553  2.1327
17077TIP3   OH272721   3.156   4.882   0.195  0.9600 -0.0557  0.2316
17077TIP3    H172722   3.071   4.844   0.175  0.1491  1.9703 -0.4251
17077TIP3    H272723   3.185   4.835   0.273 -1.2331 -0.1288  1.0794
17078TIP3   OH272724   5.495   1.042  14.622  0.0889 -0.0883  0.1519
17078TIP3    H172725   5.448   0.987  14.685 -1.3600 -0.9791 -1.6115
17078TIP3    H272726   5.448   1.125  14.623 -1.4271 -0.8500 -1.3213
17079TIP3   OH272727   1.879   1.371   3.261 -0.2826 -0.2022  0.4373
17079TIP3    H172728   1.851   1.293   3.309  1.1385 -0.0666  1.5404
17079TIP3    H272729   1.973   1.377   3.277 -0.4336  2.0160  0.7702
17080TIP3   OH272730   2.840   5.367   4.551 -0.1220 -0.4433 -0.0154
17080TIP3    H172731   2.785   5.296   4.517  0.8204 -0.4538 -1.6284
17080TIP3    H272732   2.786   5.409   4.618 -2.1047 -0.4554 -1.5026
17081TIP3   OH272733   2.425   5.536  14.298 -0.2285 -0.1168  0.0795
17081TIP3    H172734   2.473   5.573  14.224 -1.0192 -0.2778 -0.5183
17081TIP3    H272735   2.338   5.574  14.292 -0.8982 -1.6403 -0.2377
17082TIP3   OH272736   2.116   0.890  16.238  0.0548 -0.0287  0.3573
17082TIP3    H172737   2.135   0.944  16.161  2.0137  1.3749  1.7513
17082TIP3    H272738   2.152   0.804  16.216 -0.1722  0.0981 -0.5870
17083TIP3   OH272739   1.764   3.876  16.282  0.1481 -0.0473 -0.0274
17083TIP3    H172740   1.809   3.913  16.205 -1.7849  1.3393 -0.5676
17083TIP3    H272741   1.795   3.930  16.355  0.9685 -0.4933 -0.0375
17084TIP3   OH272742   2.859   4.599  13.998  0.2471 -0.4211  0.0204
17084TIP3    H172743   2.870   4.504  14.008  0.0437 -0.3595  0.9629
17084TIP3    H272744   2.888   4.618  13.909  0.8393 -1.2895  0.0190
17085TIP3   OH272745   6.635   4.453  11.805 -0.2140  0.7259  0.6219
17085TIP3    H172746   6.641   4.437  11.711  1.3476 -0.4015  0.8786
17085TIP3    H272747   6.667   4.373  11.845  0.5381  1.7290  2.0985
17086TIP3   OH272748   6.562   5.393  14.837 -0.6780  0.1250 -0.3112
17086TIP3    H172749   6.579   5.392  14.743  0.1783  4.4726 -0.4134
17086TIP3    H272750   6.649   5.401  14.877 -1.1696  1.4200  0.5747
17087TIP3   OH272751   2.088   4.143   6.345 -0.0843 -0.2430  0.2316
17087TIP3    H172752   2.120   4.054   6.336  1.6613  0.4094 -0.5482
17087TIP3    H272753   2.033   4.142   6.424 -0.2606 -2.0143  0.1187
17088TIP3   OH272754   1.987   2.843   4.273  0.1334  0.1953  0.5641
17088TIP3    H172755   1.921   2.774   4.263 -0.1226  0.3100  1.4482
17088TIP3    H272756   2.070   2.799   4.255 -0.0303 -0.3403  1.1135
17089TIP3   OH272757   3.986   5.754  13.483  0.4410 -0.2310  0.0965
17089TIP3    H172758   4.032   5.766  13.566  1.2628 -2.4180  0.0157
17089TIP3    H272759   3.955   5.664  13.486  0.4235 -0.3205 -1.9527
17090TIP3   OH272760   2.815   1.474   1.316  0.3500 -0.0479  0.4065
17090TIP3    H172761   2.722   1.464   1.293  0.1664  1.9002  0.0990
17090TIP3    H272762   2.861   1.469   1.232  0.4543 -0.2546  0.4744
17091TIP3   OH272763   3.746   5.131  16.774 -0.3360 -0.5245  0.3786
17091TIP3    H172764   3.690   5.084  16.713  1.2489 -1.3932 -0.4626
17091TIP3    H272765   3.835   5.100  16.755  0.5894  1.5650  0.9323
17092TIP3   OH272766   5.215   6.083   1.104  0.8133  0.0785 -0.1112
17092TIP3    H172767   5.179   6.165   1.138  0.2143 -1.2147  2.6882
17092TIP3    H272768   5.280   6.057   1.169  0.1753 -2.2120 -0.3161
17093TIP3   OH272769   0.814   5.738   3.145  0.2310 -0.7295  0.1631
17093TIP3    H172770   0.777   5.679   3.210  1.0934 -0.6925  0.6993
17093TIP3    H272771   0.879   5.789   3.193 -1.1327  1.3398 -0.0523
17094TIP3   OH272772   2.541   0.458  16.080  0.1757 -0.0190  0.0432
17094TIP3    H172773   2.455   0.472  16.121 -0.9888  0.7575 -2.4294
17094TIP3    H272774   2.558   0.364  16.090 -1.2739 -0.3033  0.0389
17095TIP3   OH272775   3.743   1.070   2.159 -0.1101 -0.8899  0.1084
17095TIP3    H172776   3.667   1.106   2.205 -0.2196  1.2691 -1.6204
17095TIP3    H272777   3.745   1.117   2.076  1.3879 -3.0533 -1.1563
17096TIP3   OH272778   2.537   2.579   3.042  0.3113  0.3369  0.4745
17096TIP3    H172779   2.570   2.652   3.094  1.1635 -0.3379  0.8934
17096TIP3    H272780   2.603   2.510   3.051 -0.5583 -0.5575  0.2322
17097TIP3   OH272781   5.320   3.982   1.416  0.7077 -0.1630 -0.4961
17097TIP3    H172782   5.282   4.059   1.459  1.6292 -0.0735  0.2017
17097TIP3    H272783   5.373   4.017   1.344  1.1531 -0.1237 -0.1586
17098TIP3   OH272784   3.973   6.714   1.859 -0.0694  0.0882  0.1372
17098TIP3    H172785   4.062   6.730   1.891 -1.1584  0.4747  3.3195
17098TIP3    H272786   3.952   6.791   1.806  0.7424  1.0917  1.2197
17099TIP3   OH272787   4.366   0.899  10.568  0.0265 -0.2592 -0.0156
17099TIP3    H172788   4.282   0.936  10.594  0.2657 -0.1190  0.5735
17099TIP3    H272789   4.430   0.969  10.583  0.3015 -0.4779 -0.1338
17100TIP3   OH272790   3.247   3.954  14.140 -0.8865  0.1541  0.5632
17100TIP3    H172791   3.153   3.948  14.124 -0.8142 -2.1375  0.7460
17100TIP3    H272792   3.287   3.929  14.056 -0.4773 -0.9913  1.0779
17101TIP3   OH272793   1.848   1.148   3.400  0.3624 -0.4565 -0.0455
17101TIP3    H172794   1.779   1.138   3.467  0.4326 -1.8055 -0.1473
17101TIP3    H272795   1.917   1.089   3.428  0.2333 -1.3471 -1.5164
17102TIP3   OH272796   1.815   4.805   4.477 -0.1438 -0.4433 -0.4133
17102TIP3    H172797   1.874   4.858   4.423 -1.9560  0.7764 -1.3181
17102TIP3    H272798   1.746   4.779   4.416 -2.2868  0.9950  1.2680
17103TIP3   OH272799   4.226   2.288   0.021 -0.7484  0.0821  0.5553
17103TIP3    H172800   4.310   2.321   0.052  0.8018 -1.2798 -1.9117
17103TIP3    H272801   4.227   2.195   0.044 -1.3686 -0.0524  0.0569
17104TIP3   OH272802   2.432   1.030  13.738 -0.0943  0.4187 -0.0749
17104TIP3    H172803   2.459   0.977  13.813 -2.6101  2.2770  2.3620
17104TIP3    H272804   2.377   0.971  13.686  2.6263 -1.2484 -1.2592
17105TIP3   OH272805   4.622   2.668   4.763 -0.2461  0.0334 -0.1063
17105TIP3    H172806   4.582   2.600   4.818  2.0115 -0.2253  1.3451
17105TIP3    H272807   4.638   2.625   4.679  0.3340 -0.9876  0.5064
17106TIP3   OH272808   2.896   0.693  13.842 -0.5708 -0.4963  0.0330
17106TIP3    H172809   2.981   0.703  13.884 -0.4900 -1.8993  0.2368
17106TIP3    H272810   2.916   0.685  13.749 -0.3741 -1.8416  0.1724
17107TIP3   OH272811   1.919   2.592   5.036  0.6929  0.0124 -0.1899
17107TIP3    H172812   1.995   2.648   5.024  0.4066  0.5154  0.2860
17107TIP3    H272813   1.914   2.579   5.131 -0.0052  0.2563 -0.1901
17108TIP3   OH272814   0.308   5.544   3.470 -0.5148 -0.5271  0.4679
17108TIP3    H172815   0.291   5.611   3.404 -0.1617 -2.2105 -1.4635
17108TIP3    H272816   0.393   5.566   3.506 -0.1817 -0.1839 -0.4894
17109TIP3   OH272817   6.445   6.532  15.856 -0.2195 -0.6174 -0.2478
17109TIP3    H172818   6.396   6.528  15.774 -1.3023 -2.6170  0.4338
17109TIP3    H272819   6.463   6.441  15.878  0.4416 -0.1019  1.5104
17110TIP3   OH272820   4.244   1.069   5.801  0.3257 -0.7202  0.6933
17110TIP3    H172821   4.268   1.157   5.772  1.8550 -1.9991 -2.3629
17110TIP3    H272822   4.314   1.044   5.861  0.9580 -0.5487  0.0401
17111TIP3   OH272823   5.580   5.262   5.215  0.4384 -0.1570  0.5034
17111TIP3    H172824   5.506   5.318   5.240  0.1628 -0.2800 -0.0240
17111TIP3    H272825   5.589   5.201   5.289 -0.4920 -0.6355  0.2435
17112TIP3   OH272826   3.259   2.155   3.077  0.5203  0.5031  1.3879
17112TIP3    H172827   3.215   2.128   3.159 -0.7489 -0.2101  0.5157
17112TIP3    H272828   3.203   2.120   3.008  1.2157  1.6675  0.1970
17113TIP3   OH272829   1.719   3.986  14.022 -0.0012 -0.0021 -0.2099
17113TIP3    H172830   1.691   4.006  13.933  0.8199  1.0366 -0.2656
17113TIP3    H272831   1.717   3.891  14.028 -0.7122 -0.0505 -1.1156
17114TIP3   OH272832   0.054   1.489  15.497 -0.0880 -0.1328 -0.3908
17114TIP3    H172833   0.062   1.402  15.460 -0.7100 -0.2423 -0.2848
17114TIP3    H272834  -0.039   1.497  15.520  0.3216 -0.1796  1.3966
17115TIP3   OH272835   5.648   6.265  13.410  0.1498 -0.1174  0.3864
17115TIP3    H172836   5.687   6.185  13.377  0.5933 -0.5013  1.7570
17115TIP3    H272837   5.643   6.252  13.505 -1.5296  0.7059  0.4565
17116TIP3   OH272838   0.728   4.536   1.333  0.5254 -0.1506  0.2190
17116TIP3    H172839   0.767   4.457   1.294  1.4034  0.4648 -0.1915
17116TIP3    H272840   0.665   4.566   1.269 -1.5042 -1.7540  1.3425
17117TIP3   OH272841   5.844   3.040   3.193  0.1269  0.4372  0.0119
17117TIP3    H172842   5.914   3.037   3.257 -0.4181  1.5560  0.6928
17117TIP3    H272843   5.820   2.948   3.179  0.6270  0.1450  0.9902
17118TIP3   OH272844   3.489   0.557   4.292 -0.3734  0.5825 -0.3653
17118TIP3    H172845   3.431   0.604   4.352 -0.7833  0.1253 -0.4015
17118TIP3    H272846   3.466   0.465   4.302  0.4738  0.3740 -0.2480
17119TIP3   OH272847   4.607   5.368  17.114 -0.1703  0.2703 -0.0398
17119TIP3    H172848   4.537   5.415  17.160 -1.5822 -1.7502 -0.0156
17119TIP3    H272849   4.613   5.284  17.158  1.1361 -0.2468 -1.1262
17120TIP3   OH272850   3.663   0.616  12.121 -0.3439 -0.1995  0.0779
17120TIP3    H172851   3.680   0.530  12.160  1.9413  0.6112  1.0393
17120TIP3    H272852   3.588   0.650  12.169 -0.8123 -1.3459  0.1805
17121TIP3   OH272853   6.412   3.168   5.009 -0.9522 -0.1930  0.0777
17121TIP3    H172854   6.350   3.199   4.943 -1.7957 -1.8159  0.0579
17121TIP3    H272855   6.383   3.210   5.090  0.1379  1.8740 -0.5480
17122TIP3   OH272856   1.243   4.416   6.564  0.0970  0.9307  0.4901
17122TIP3    H172857   1.230   4.362   6.642  0.7550 -0.3872 -0.2811
17122TIP3    H272858   1.165   4.473   6.561 -0.1246  0.7357  1.8659
17123TIP3   OH272859   4.413   6.570  13.070 -0.2043  0.6429  0.4316
17123TIP3    H172860   4.459   6.520  13.137  0.8658 -1.0737 -1.4317
17123TIP3    H272861   4.469   6.646  13.054  1.8109 -1.0737 -1.3265
17124TIP3   OH272862   2.718   2.781  17.175 -0.4272  0.2885 -0.6003
17124TIP3    H172863   2.748   2.718  17.240  0.0705  0.4047 -0.7139
17124TIP3    H272864   2.749   2.746  17.092  0.0550  0.7916 -0.6433
17125TIP3   OH272865   6.789   5.966   3.466  0.4633  0.3904  0.3854
17125TIP3    H172866   6.736   6.041   3.438 -1.8815 -1.0041  0.7267
17125TIP3    H272867   6.792   5.908   3.390  1.8037  0.5844  0.2804
17126TIP3   OH272868   3.894   2.274  16.816 -0.0071  0.2378 -0.1425
17126TIP3    H172869   3.916   2.319  16.897 -0.1088  0.6627 -0.3509
17126TIP3    H272870   3.947   2.194  16.818  0.5272  0.5916  0.0082
17127TIP3   OH272871   3.402   6.565   0.213 -0.2700  0.1729  0.3324
17127TIP3    H172872   3.385   6.496   0.149  3.2406  0.1213 -0.7141
17127TIP3    H272873   3.324   6.565   0.268 -0.9518 -3.7985 -0.3287
17128TIP3   OH272874   3.318   2.816   6.277  0.0619  0.3990 -0.0651
17128TIP3    H172875   3.249   2.752   6.293  0.6923  0.0870  1.5617
17128TIP3    H272876   3.347   2.798   6.188 -0.8782 -0.4847 -0.2128
17129TIP3   OH272877   0.518   2.836  14.425 -0.3188 -0.2204  0.0338
17129TIP3    H172878   0.433   2.843  14.470  0.2076  1.7347  0.8266
17129TIP3    H272879   0.500   2.781  14.349 -2.3478  0.2797  0.0834
17130TIP3   OH272880   4.532   5.284   6.414  0.6539 -0.5684 -0.0982
17130TIP3    H172881   4.466   5.353   6.404 -0.8461 -1.3415  3.0852
17130TIP3    H272882   4.613   5.331   6.432  0.3095  0.3849 -0.9782
17131TIP3   OH272883   5.725   3.504  14.999  0.0531 -0.7460 -0.0340
17131TIP3    H172884   5.676   3.585  15.013 -1.1110 -1.3922 -0.2598
17131TIP3    H272885   5.816   3.527  15.019 -0.4604  0.2573  1.2509
17132TIP3   OH272886   3.676   1.883  13.075 -0.2166 -0.9162  0.5280
17132TIP3    H172887   3.717   1.884  12.989 -1.2816 -3.6314 -0.0915
17132TIP3    H272888   3.596   1.934  13.065 -0.4229 -1.3713 -0.1300
17133TIP3   OH272889   0.822   3.493   2.903  0.1700 -0.1599  0.3516
17133TIP3    H172890   0.750   3.517   2.961 -0.3598 -0.2449 -0.2584
17133TIP3    H272891   0.843   3.574   2.856 -0.7215 -0.5433 -0.7418
17134TIP3   OH272892   5.247   5.772  13.963  0.8906  0.0606  0.4212
17134TIP3    H172893   5.285   5.813  13.885 -1.9685 -0.1435 -1.2100
17134TIP3    H272894   5.269   5.679  13.955 -1.0880 -0.3282 -1.3523
17135TIP3   OH272895   2.309   6.429   0.972  0.2983  0.2666  0.9643
17135TIP3    H172896   2.341   6.436   1.062  1.3834 -1.1967  0.7438
17135TIP3    H272897   2.223   6.388   0.980  0.7319 -0.6103  1.3236
17136TIP3   OH272898   1.670   1.783  10.965  0.0375  0.3733  0.6478
17136TIP3    H172899   1.626   1.710  11.008  0.1447  0.1288  0.3448
17136TIP3    H272900   1.736   1.742  10.910  2.0748  0.7662  2.6285
17137TIP3   OH272901   0.810   5.292   2.431  0.3226  0.1220 -0.4797
17137TIP3    H172902   0.783   5.304   2.340  0.1153  1.6169 -0.2438
17137TIP3    H272903   0.858   5.372   2.452  2.7054 -1.3060 -0.0707
17138TIP3   OH272904   0.917   3.484  14.793  0.4034 -0.6274 -0.1406
17138TIP3    H172905   0.867   3.506  14.872 -0.2042 -0.5244 -0.5487
17138TIP3    H272906   0.935   3.569  14.752  1.3879 -0.6172  0.2760
17139TIP3   OH272907   1.736   5.231  16.327 -1.0270  0.1368 -0.2075
17139TIP3    H172908   1.676   5.195  16.262 -0.8838 -0.3800 -0.0547
17139TIP3    H272909   1.797   5.285  16.276  0.9095 -2.5269 -0.9753
17140TIP3   OH272910   1.314   4.775   0.745  0.7914  0.3840  0.0667
17140TIP3    H172911   1.266   4.858   0.755 -0.3101 -0.3442  1.2322
17140TIP3    H272912   1.288   4.743   0.659 -4.4836 -2.0396  2.1078
17141TIP3   OH272913   0.364   2.846   5.312  0.1555  0.6412 -0.0154
17141TIP3    H172914   0.321   2.791   5.247  1.1322 -1.4847  0.9996
17141TIP3    H272915   0.298   2.911   5.337 -1.1632 -0.2241 -1.1144
17142TIP3   OH272916   4.339   1.945  14.657 -0.3395  0.2945 -0.3271
17142TIP3    H172917   4.248   1.948  14.626  0.1961 -0.0478 -2.0038
17142TIP3    H272918   4.384   2.014  14.608 -0.0818  1.8561  1.9618
17143TIP3   OH272919   3.063   6.819   2.092 -0.0093  0.3959  0.6241
17143TIP3    H172920   3.145   6.817   2.042  0.7280  0.9653  1.7768
17143TIP3    H272921   3.030   6.908   2.080 -0.7978  0.0089 -0.3098
17144TIP3   OH272922   3.938   2.963  11.570 -1.0097 -0.2210 -0.1346
17144TIP3    H172923   4.027   2.996  11.566 -0.9491 -0.2230  0.9643
17144TIP3    H272924   3.916   2.964  11.663 -1.9182 -0.8536 -0.3307
17145TIP3   OH272925   1.945   2.742   5.827 -1.0754 -0.8977  0.8048
17145TIP3    H172926   1.873   2.732   5.765 -0.1102  2.3473 -1.0449
17145TIP3    H272927   1.961   2.836   5.832  2.2090 -1.3785  2.1126
17146TIP3   OH272928   3.724   1.822  11.058 -0.0993  0.2252 -0.1512
17146TIP3    H172929   3.673   1.770  10.996  1.3527 -0.1354 -1.0946
17146TIP3    H272930   3.765   1.757  11.115  1.0384  0.3574 -0.7938
17147TIP3   OH272931   4.795   4.109  12.914 -0.2983  0.2979 -0.0523
17147TIP3    H172932   4.868   4.092  12.853 -0.7664  1.2364 -0.8950
17147TIP3    H272933   4.831   4.172  12.977 -0.5525  1.2653 -0.8497
17148TIP3   OH272934   1.473   6.573   0.617  0.6620  0.2548 -0.5321
17148TIP3    H172935   1.483   6.479   0.628 -1.9327  0.1074  1.7443
17148TIP3    H272936   1.406   6.583   0.549 -1.0913  0.2267  1.0750
17149TIP3   OH272937   6.127   1.249   5.577  0.2595  0.4404 -0.0262
17149TIP3    H172938   6.195   1.182   5.591 -1.8801 -2.1454 -1.2132
17149TIP3    H272939   6.068   1.239   5.652  1.1122  2.7282  1.0458
17150TIP3   OH272940   0.798   6.417  11.251 -0.3052  0.0888  0.3596
17150TIP3    H172941   0.752   6.333  11.253  1.2412 -0.7906  0.6351
17150TIP3    H272942   0.821   6.429  11.159  1.5713 -1.0164  0.6481
17151TIP3   OH272943   1.055   6.241   2.279 -0.0325 -0.4475  0.1164
17151TIP3    H172944   1.028   6.155   2.310  2.3359 -1.3373 -0.0880
17151TIP3    H272945   1.094   6.283   2.356  1.5597 -0.7958 -0.4587
17152TIP3   OH272946   2.045   6.021   0.291  0.0911  0.6842 -0.2955
17152TIP3    H172947   2.020   5.944   0.341  0.4263  0.6982 -0.1062
17152TIP3    H272948   2.106   5.989   0.224 -1.0987  0.5001 -1.3355
17153TIP3   OH272949   3.036   1.653  14.591  0.4763  0.4928 -0.5625
17153TIP3    H172950   3.094   1.674  14.664 -0.1016  1.4935 -0.3654
17153TIP3    H272951   2.978   1.729  14.585  0.0744  0.1123 -1.6247
17154TIP3   OH272952   0.749   3.694   1.589 -0.0441  0.0072 -0.0528
17154TIP3    H172953   0.725   3.769   1.643  0.7299  1.0163 -1.0641
17154TIP3    H272954   0.809   3.643   1.644 -0.3626  0.2677  0.5445
17155TIP3   OH272955   5.246   2.165   2.747  0.3115  0.6361  0.2150
17155TIP3    H172956   5.228   2.234   2.683 -0.5820 -0.8075 -1.1656
17155TIP3    H272957   5.316   2.200   2.802 -0.4635  2.8239 -0.1164
17156TIP3   OH272958   4.472   2.017  14.099  0.2706  0.4892  1.1248
17156TIP3    H172959   4.457   2.069  14.020 -1.0073  0.2888  1.2160
17156TIP3    H272960   4.507   1.934  14.067 -0.7952  0.1921  0.7193
17157TIP3   OH272961   6.537   5.784   1.950  0.0693 -0.4363 -0.9208
17157TIP3    H172962   6.518   5.822   2.036 -0.3350  0.0688 -1.2229
17157TIP3    H272963   6.607   5.721   1.966 -2.3547 -3.0223  0.4075
17158TIP3   OH272964   1.715   3.118   6.174  0.5321 -0.1510  0.0574
17158TIP3    H172965   1.684   3.179   6.241  2.5687 -1.9227  2.8468
17158TIP3    H272966   1.786   3.164   6.130 -1.0308  1.1500 -1.2261
17159TIP3   OH272967   3.677   4.427   3.226  0.0677  0.3553  0.1683
17159TIP3    H172968   3.725   4.373   3.164  1.4320  0.9668  0.6527
17159TIP3    H272969   3.666   4.511   3.181 -1.3672 -0.0411 -0.2819
17160TIP3   OH272970   3.722   3.922   5.410  0.2236 -0.2395 -0.3530
17160TIP3    H172971   3.795   3.881   5.363  0.7736 -1.2631  1.3015
17160TIP3    H272972   3.711   3.868   5.489 -0.4140  1.5997  0.8774
17161TIP3   OH272973   4.205   5.845   1.578 -0.7181 -0.1155 -0.1327
17161TIP3    H172974   4.289   5.830   1.535 -0.4504  0.8807  0.0271
17161TIP3    H272975   4.143   5.790   1.530 -0.0671 -0.5055 -0.5417
17162TIP3   OH272976   0.668   5.025  15.645 -0.2795  0.6702 -0.4566
17162TIP3    H172977   0.627   4.956  15.593  0.7671 -1.2204  1.0855
17162TIP3    H272978   0.660   4.995  15.735  1.9130  1.6345  0.1209
17163TIP3   OH272979   1.182   5.806  15.015  0.1106  0.8463  0.0902
17163TIP3    H172980   1.093   5.795  14.982 -1.0553  2.4118  2.4425
17163TIP3    H272981   1.229   5.730  14.980 -2.1951 -0.2051 -0.9998
17164TIP3   OH272982   3.946   3.821  12.238 -0.2980 -0.5875 -0.2670
17164TIP3    H172983   3.970   3.777  12.156  1.3551 -1.6324  0.6941
17164TIP3    H272984   3.952   3.752  12.305  0.2303  0.6013  0.9844
17165TIP3   OH272985   6.314   0.306   2.977 -0.2155  0.3573 -0.4680
17165TIP3    H172986   6.357   0.234   2.930  1.2336  1.9600 -1.6928
17165TIP3    H272987   6.346   0.385   2.934 -0.1757  1.8474  2.1578
17166TIP3   OH272988   2.847   5.035   4.804  0.3057  0.7263  0.4337
17166TIP3    H172989   2.763   5.003   4.837  1.4132 -2.0045  0.8432
17166TIP3    H272990   2.862   4.985   4.724  2.9239 -1.2035  2.0008
17167TIP3   OH272991   5.376   2.121  16.028 -0.2338 -0.0077 -0.2856
17167TIP3    H172992   5.452   2.102  15.973  0.0272 -2.6234  0.8336
17167TIP3    H272993   5.413   2.156  16.110 -0.2055 -1.1602  0.2102
17168TIP3   OH272994   0.981   0.502  16.691 -0.7076  0.0506  0.2166
17168TIP3    H172995   0.929   0.437  16.737 -0.8690  0.6444  0.9030
17168TIP3    H272996   0.921   0.541  16.627 -1.3390  1.1919  1.4500
17169TIP3   OH272997   3.280   6.630  11.617 -0.0386 -0.0442  0.2377
17169TIP3    H172998   3.346   6.692  11.585 -1.0821  1.3102  0.6113
17169TIP3    H272999   3.240   6.594  11.538 -1.2478  1.8023 -0.0468
17170TIP3   OH273000   1.512   1.535   0.515 -0.0352  0.4440 -0.1306
17170TIP3    H173001   1.483   1.478   0.444 -1.9613  1.4071 -0.1984
17170TIP3    H273002   1.507   1.623   0.478  0.1969  0.8630  0.8115
17171TIP3   OH273003   2.053   3.696  11.252 -0.3930 -0.0578 -0.0526
17171TIP3    H173004   2.084   3.765  11.193  0.4336  1.1141  1.6481
17171TIP3    H273005   2.009   3.634  11.195 -0.2422  1.3434 -1.8049
17172TIP3   OH273006   4.547   1.865   3.664 -0.4793 -0.1894 -0.2908
17172TIP3    H173007   4.514   1.800   3.603  1.8988 -1.9208  0.1026
17172TIP3    H273008   4.496   1.853   3.744 -0.6090 -1.0154 -0.4999
17173TIP3   OH273009   0.433   4.373  13.719 -0.2475 -0.8076  0.6197
17173TIP3    H173010   0.468   4.443  13.775  0.9615 -0.1528 -0.8651
17173TIP3    H273011   0.442   4.294  13.771 -0.3911 -0.0457  1.8378
17174TIP3   OH273012   6.110   2.629   5.359 -0.2902  0.7879 -0.2397
17174TIP3    H173013   6.040   2.626   5.424  1.2403 -0.6910  1.4426
17174TIP3    H273014   6.093   2.555   5.301 -0.6433  0.9975 -0.4026
17175TIP3   OH273015   6.643   6.444   4.163 -0.2002  0.0066  0.5648
17175TIP3    H173016   6.736   6.463   4.149  0.0478 -1.7668 -0.4831
17175TIP3    H273017   6.602   6.530   4.169  1.2223  0.8767 -1.0739
17176TIP3   OH273018   5.433   1.862  15.726 -1.0337  0.8668  0.7706
17176TIP3    H173019   5.356   1.868  15.783 -2.0037  0.7594 -0.4896
17176TIP3    H273020   5.492   1.802  15.772 -2.0796  0.2418  1.3253
17177TIP3   OH273021   0.891   3.005  14.647  0.0512 -0.0999 -0.1191
17177TIP3    H173022   0.916   2.983  14.737 -0.4309  0.7398  0.2409
17177TIP3    H273023   0.869   3.098  14.652 -0.1876 -0.1040 -1.0674
17178TIP3   OH273024   0.872   2.317  16.025  0.3498  0.2887  0.4426
17178TIP3    H173025   0.891   2.282  16.112  0.7561 -0.1607  0.1765
17178TIP3    H273026   0.784   2.286  16.005  0.0502  0.8185  0.8998
17179TIP3   OH273027   4.879   6.743  12.821 -0.1027 -0.8964  0.0441
17179TIP3    H173028   4.784   6.747  12.809 -0.3805 -1.0703  1.8814
17179TIP3    H273029   4.905   6.658  12.786 -0.3660 -0.2323 -1.8653
17180TIP3   OH273030   6.736   2.472   1.772  0.1339  0.0702  0.4517
17180TIP3    H173031   6.784   2.433   1.845  0.4626  1.4802  0.9997
17180TIP3    H273032   6.804   2.497   1.710 -0.0943 -0.3735  0.0112
17181TIP3   OH273033   5.247   2.052  14.111 -0.4319  0.1388 -0.2409
17181TIP3    H173034   5.249   2.111  14.036  0.4771 -0.4750 -0.7255
17181TIP3    H273035   5.337   2.052  14.144 -0.6454 -0.2134  0.3556
17182TIP3   OH273036   6.407   4.522   3.598 -0.5846  0.1364 -0.1142
17182TIP3    H173037   6.423   4.562   3.512  1.1997 -2.3154 -1.0321
17182TIP3    H273038   6.311   4.517   3.605 -0.7739  1.1387 -1.5737
17183TIP3   OH273039   5.715   6.342  14.021 -0.4238 -0.0717  0.2462
17183TIP3    H173040   5.734   6.249  14.010 -1.6327 -0.2059 -0.9509
17183TIP3    H273041   5.738   6.361  14.112  1.6332 -1.0738 -0.0262
17184TIP3   OH273042   3.791   4.760   3.378 -0.7162  0.4719 -0.0378
17184TIP3    H173043   3.776   4.846   3.418  0.8453  1.3208 -1.1581
17184TIP3    H273044   3.871   4.728   3.419  0.6054  1.1113 -1.9991
17185TIP3   OH273045   0.186   2.654   4.332  0.0932 -0.6531 -0.0614
17185TIP3    H173046   0.274   2.641   4.296  0.1013 -1.3890  0.2037
17185TIP3    H273047   0.202   2.682   4.423  0.0536 -0.8248 -0.0017
17186TIP3   OH273048   1.450   1.195   3.945 -0.1455 -0.8415  0.1695
17186TIP3    H173049   1.531   1.173   3.991  0.1333 -0.5053 -0.1496
17186TIP3    H273050   1.380   1.161   4.001  0.1793 -0.3284  0.9061
17187TIP3   OH273051   3.267   4.913  15.293 -0.0884  0.3579 -0.0010
17187TIP3    H173052   3.328   4.982  15.319  0.8392 -0.2030 -0.6039
17187TIP3    H273053   3.202   4.910  15.363  1.1171  0.3327  1.1557
17188TIP3   OH273054   6.808   0.941   5.780  0.0735 -0.1888  0.2953
17188TIP3    H173055   6.791   0.876   5.848 -0.8518  0.0555  0.3105
17188TIP3    H273056   6.808   1.025   5.825  0.6361 -0.1146  0.1730
17189TIP3   OH273057   3.639   5.382  16.868  0.1099 -0.1951 -0.0254
17189TIP3    H173058   3.672   5.307  16.818  0.5366  0.2138 -0.3592
17189TIP3    H273059   3.640   5.455  16.806 -0.3255  0.0846  0.2909
17190TIP3   OH273060   1.031   6.825  15.806  0.3720 -0.3731 -0.1105
17190TIP3    H173061   1.067   6.819  15.717  0.2839 -0.9623 -0.1108
17190TIP3    H273062   1.085   6.891  15.850  0.9546 -0.6857 -0.3462
17191TIP3   OH273063   4.676   5.182  11.109  0.3757  0.1551 -1.0239
17191TIP3    H173064   4.610   5.221  11.052  1.1491  1.0659 -1.3264
17191TIP3    H273065   4.671   5.088  11.090 -0.1501  0.3240 -1.7615
17192TIP3   OH273066   4.066   1.472   4.913 -0.0965  0.1756  0.6465
17192TIP3    H173067   4.095   1.501   5.000 -1.5997 -0.4194  1.3880
17192TIP3    H273068   3.978   1.509   4.904  0.2364  0.6266 -0.8348
17193TIP3   OH273069   6.099   1.356   6.069 -0.0195 -0.7492 -0.1203
17193TIP3    H173070   6.042   1.430   6.087 -0.1630 -1.0622  0.7598
17193TIP3    H273071   6.059   1.282   6.116  0.1274 -1.3857 -0.9686
17194TIP3   OH273072   6.756   2.881  11.444 -0.0368 -0.6694 -0.1850
17194TIP3    H173073   6.701   2.958  11.454  3.0641  1.4605  3.6391
17194TIP3    H273074   6.837   2.913  11.404  1.5459 -1.6543  1.9804
17195TIP3   OH273075   1.905   0.284   3.909 -0.2720  0.2819  0.0337
17195TIP3    H173076   1.883   0.224   3.837 -0.5287 -0.6844  0.9014
17195TIP3    H273077   1.853   0.363   3.890 -0.4712 -0.0219 -0.7417
17196TIP3   OH273078   3.898   6.244   3.434 -0.9298  0.1332  0.1548
17196TIP3    H173079   3.811   6.213   3.408 -0.7819  1.0224 -1.4760
17196TIP3    H273080   3.892   6.339   3.430  0.3536  0.1949 -0.7756
17197TIP3   OH273081   1.323   0.008  10.680 -0.5245  0.5832  0.0075
17197TIP3    H173082   1.274  -0.074  10.677 -1.0030  0.8495  0.5685
17197TIP3    H273083   1.321   0.041  10.590 -2.9230  1.5035  0.3408
17198TIP3   OH273084   4.027   6.598  13.898  0.4058  0.4843 -0.5489
17198TIP3    H173085   4.075   6.598  13.815  0.5618  0.4024 -0.4591
17198TIP3    H273086   4.010   6.505  13.915 -0.1230  0.5360 -0.7740
17199TIP3   OH273087   0.417   2.426  10.536  0.7916  0.1150 -0.2379
17199TIP3    H173088   0.442   2.495  10.597  0.4638  1.1179 -1.2001
17199TIP3    H273089   0.332   2.454  10.502 -0.9759 -2.3801  1.7406
17200TIP3   OH273090   4.019   0.011   5.666  0.3523  0.4339 -0.9065
17200TIP3    H173091   4.039   0.068   5.592  1.4456  2.2615  0.7192
17200TIP3    H273092   3.925   0.024   5.681  0.2236  0.4149 -1.6627
17201TIP3   OH273093   5.773   2.236  15.366 -0.2167  0.2182 -0.6444
17201TIP3    H173094   5.813   2.322  15.374  0.7322 -0.3435  1.3231
17201TIP3    H273095   5.786   2.212  15.274  0.7787  1.5697 -0.8913
17202TIP3   OH273096   3.499   4.867  10.905  0.0288  0.3209 -0.0653
17202TIP3    H173097   3.590   4.844  10.923 -0.0290 -2.0733 -2.3195
17202TIP3    H273098   3.453   4.783  10.906 -1.8250  1.2789 -0.8222
17203TIP3   OH273099   6.814   0.690   4.698  0.1650  0.2198 -0.1485
17203TIP3    H173100   6.768   0.774   4.691  1.4878  0.9444 -0.5328
17203TIP3    H273101   6.904   0.714   4.720  0.3010 -1.1747  0.9910
17204TIP3   OH273102   1.857   6.461   6.449 -0.0399 -0.2901  0.4772
17204TIP3    H173103   1.911   6.385   6.428  0.0574 -0.0051 -0.3224
17204TIP3    H273104   1.911   6.536   6.429 -0.0489 -0.0006  1.5088
17205TIP3   OH273105   4.911   1.962  12.124  0.1561 -0.1020 -0.8850
17205TIP3    H173106   5.005   1.954  12.140  0.3566 -0.8445 -2.2421
17205TIP3    H273107   4.870   1.931  12.205  1.0742  0.5402 -0.1619
17206TIP3   OH273108   2.851   2.948  16.661  0.7146 -0.2944  0.0856
17206TIP3    H173109   2.811   2.923  16.745 -0.1472 -0.2020 -0.2863
17206TIP3    H273110   2.840   2.872  16.605  0.0062  0.1398 -0.3835
17207TIP3   OH273111   4.743   3.236  15.301  0.3398  0.3186  0.2591
17207TIP3    H173112   4.660   3.284  15.295  2.0762  3.6653  0.5268
17207TIP3    H273113   4.731   3.177  15.375 -2.2177 -0.3797 -0.5911
17208TIP3   OH273114   1.779   5.456  17.029  0.1795 -0.4061 -0.1223
17208TIP3    H173115   1.779   5.516  16.954 -2.8152 -0.6570 -0.4556
17208TIP3    H273116   1.778   5.514  17.106 -1.1004 -0.0155 -0.4116
17209TIP3   OH273117   2.724   4.098  14.807  0.1595 -0.1028  0.2983
17209TIP3    H173118   2.694   4.009  14.826 -0.7603 -0.6158 -2.8296
17209TIP3    H273119   2.660   4.131  14.743  2.4467  1.4329 -1.3506
17210TIP3   OH273120   4.666   6.161  14.773  0.3803  0.2414 -0.0638
17210TIP3    H173121   4.608   6.236  14.762  0.2630  0.1604  0.0077
17210TIP3    H273122   4.639   6.121  14.856 -0.3202 -0.5551 -0.6527
17211TIP3   OH273123   1.000   3.331   2.634 -0.3008  0.0741  0.4028
17211TIP3    H173124   0.950   3.352   2.555  0.1944  0.5866  0.2215
17211TIP3    H273125   1.004   3.414   2.682  0.8126  0.1678  0.1663
17212TIP3   OH273126   1.722   0.758  16.288  0.0766 -0.3910  0.1425
17212TIP3    H173127   1.707   0.664  16.295 -2.5238 -0.0946 -0.3471
17212TIP3    H273128   1.720   0.789  16.379 -0.2532 -0.6683  0.2329
17213TIP3   OH273129   6.331   2.897   0.251  0.1812  0.1201  0.1760
17213TIP3    H173130   6.344   2.910   0.157 -1.1361 -0.3707 -0.0982
17213TIP3    H273131   6.247   2.939   0.270 -0.6898 -1.6942  0.6476
17214TIP3   OH273132   0.630   3.977  14.262 -0.1729 -0.8631 -0.4515
17214TIP3    H173133   0.650   4.022  14.344 -0.1489 -1.0171 -0.3720
17214TIP3    H273134   0.616   3.886  14.287 -1.0227 -0.7542 -0.4953
17215TIP3   OH273135   2.852   1.155  12.085 -0.2055  0.1299 -0.2109
17215TIP3    H173136   2.795   1.085  12.117 -1.0063  0.2889 -1.2402
17215TIP3    H273137   2.805   1.191  12.010  1.3913  0.0764 -1.2751
17216TIP3   OH273138   6.505   5.274   1.972  0.5564 -0.4739 -0.0433
17216TIP3    H173139   6.549   5.294   1.889  1.2694  0.7823  0.6264
17216TIP3    H273140   6.465   5.188   1.956  0.7765 -0.3200 -1.6456
17217TIP3   OH273141   0.187   4.517   1.747  0.1672 -0.2930  0.1684
17217TIP3    H173142   0.096   4.488   1.734 -0.0985  1.2744 -1.8749
17217TIP3    H273143   0.193   4.533   1.841 -1.7997 -0.0603  0.3029
17218TIP3   OH273144   5.384   2.986   5.098  0.1022  0.0085 -0.4291
17218TIP3    H173145   5.405   3.075   5.070  2.7611 -0.1785  0.6656
17218TIP3    H273146   5.309   2.997   5.157  0.0304  1.4461 -0.7533
17219TIP3   OH273147   5.015   6.680   4.751  0.4508  0.0270  0.0278
17219TIP3    H173148   4.954   6.606   4.757  2.2441 -1.5959 -0.8071
17219TIP3    H273149   4.992   6.735   4.826 -1.2053 -1.1450  0.4564
17220TIP3   OH273150   0.618   4.278  14.877 -0.5017  0.3384 -0.1337
17220TIP3    H173151   0.544   4.285  14.938 -0.8479 -1.2381 -0.3247
17220TIP3    H273152   0.631   4.184  14.866  1.7618  0.5615  0.1462
17221TIP3   OH273153   4.176   3.671   4.383 -0.0105 -0.3385 -0.1487
17221TIP3    H173154   4.262   3.691   4.421 -1.5514  4.3691  1.6453
17221TIP3    H273155   4.137   3.608   4.443  1.2049 -0.4690  0.5414
17222TIP3   OH273156   1.816   1.291   3.998  0.1298  0.5708  0.1022
17222TIP3    H173157   1.875   1.326   4.065  0.1537  0.8077 -0.0439
17222TIP3    H273158   1.772   1.217   4.041  2.0585 -0.9593 -0.4450
17223TIP3   OH273159   2.241   5.279  15.059 -0.0957  0.0270  0.0836
17223TIP3    H173160   2.264   5.187  15.066 -2.0461 -0.7165 -1.9289
17223TIP3    H273161   2.317   5.320  15.017  0.6343 -0.7212  0.6640
17224TIP3   OH273162   2.661   4.439   3.378 -0.1959  0.1191  0.2795
17224TIP3    H173163   2.686   4.493   3.302 -0.8318  0.1659  0.0982
17224TIP3    H273164   2.693   4.488   3.453  2.0308 -0.7726 -0.0075
17225TIP3   OH273165   4.782   5.622   2.753  0.0518  0.1919 -0.0573
17225TIP3    H173166   4.700   5.577   2.773  0.2469 -0.0398  0.2237
17225TIP3    H273167   4.779   5.636   2.658 -0.3375  0.2384 -0.0402
17226TIP3   OH273168   5.045   2.736  12.002  0.1217 -0.0716 -0.7104
17226TIP3    H173169   5.106   2.673  11.965  0.7110 -0.8738  1.4344
17226TIP3    H273170   5.082   2.758  12.088 -0.7752  2.1808 -0.8273
17227TIP3   OH273171   5.871   1.403   4.166  0.0726 -0.1949 -0.0884
17227TIP3    H173172   5.937   1.334   4.160  0.4453  0.0579  0.9479
17227TIP3    H273173   5.917   1.477   4.205 -1.0624 -0.3702  1.7122
17228TIP3   OH273174   4.255   1.048  16.296  0.1922  0.6199 -0.2790
17228TIP3    H173175   4.195   1.122  16.293  0.0798  0.5212 -0.5135
17228TIP3    H273176   4.203   0.974  16.265  0.6174  0.6606 -1.1191
17229TIP3   OH273177   1.875   5.125  14.750 -0.4586  0.0300  0.0098
17229TIP3    H173178   1.921   5.135  14.667  1.1603 -0.1795  0.8257
17229TIP3    H273179   1.918   5.188  14.809 -2.3543  1.0267  0.4053
17230TIP3   OH273180   2.003   5.098   5.709 -0.1025  0.5148 -0.0193
17230TIP3    H173181   2.093   5.129   5.700  0.0956  0.5529  1.7023
17230TIP3    H273182   1.954   5.146   5.641  1.0371  1.0453 -0.4912
17231TIP3   OH273183   0.668   4.884   5.235 -0.1353 -0.3381 -0.7589
17231TIP3    H173184   0.645   4.925   5.318 -0.1385  0.9428 -1.3573
17231TIP3    H273185   0.664   4.790   5.252 -0.9886 -0.1064  0.4474
17232TIP3   OH273186   3.307   0.769  13.416 -0.7714  0.0852 -0.1155
17232TIP3    H173187   3.288   0.676  13.426  0.9002 -0.3762 -0.9904
17232TIP3    H273188   3.224   0.807  13.385 -1.2919 -1.2027 -0.3710
17233TIP3   OH273189   0.290   0.226   0.422 -0.1617  0.1257  0.6154
17233TIP3    H173190   0.301   0.230   0.517 -1.8060 -0.6455  0.8686
17233TIP3    H273191   0.342   0.151   0.394  2.7166  2.0260  0.4499
17234TIP3   OH273192   5.484   6.194  14.721  0.3564  0.3719  0.4560
17234TIP3    H173193   5.569   6.167  14.756  0.6780  1.4598  0.5390
17234TIP3    H273194   5.422   6.171  14.790  0.7715  0.9072  1.0142
17235TIP3   OH273195   5.915   1.281  12.929  0.7980  0.2413  0.4841
17235TIP3    H173196   5.939   1.367  12.894 -0.3222  1.2604  2.0594
17235TIP3    H273197   5.852   1.245  12.866  2.0364  0.0754 -0.7107
17236TIP3   OH273198   4.115   1.717  13.344  0.4359  0.6701  0.1328
17236TIP3    H173199   4.095   1.791  13.400 -3.6247 -0.1733  0.0825
17236TIP3    H273200   4.081   1.741  13.258  0.3108 -0.6867 -0.2314
17237TIP3   OH273201   1.702   2.452  16.403  0.4575  0.5837 -0.0216
17237TIP3    H173202   1.687   2.498  16.321  1.2205  0.6017 -0.1572
17237TIP3    H273203   1.792   2.474  16.427 -0.1984  1.7162  1.5381
17238TIP3   OH273204   3.076   3.033  11.439 -0.0804  0.0037  0.2251
17238TIP3    H173205   3.168   3.007  11.438 -0.2991 -0.7880 -1.0650
17238TIP3    H273206   3.073   3.107  11.500  1.1344 -0.8819  1.4243
17239TIP3   OH273207   2.044   5.498   0.411  0.2854  0.5300 -0.7968
17239TIP3    H173208   2.007   5.450   0.337  2.4519  0.2261 -1.7559
17239TIP3    H273209   2.007   5.454   0.488 -1.1074  0.1124 -1.6574
17240TIP3   OH273210   1.980   0.450   6.249 -0.1347 -0.3299  0.5273
17240TIP3    H173211   1.992   0.471   6.342  1.6208 -0.2361  0.3043
17240TIP3    H273212   1.989   0.355   6.245 -1.1478 -0.4439  0.5552
17241TIP3   OH273213   4.093   3.173   0.439  0.0447  0.1282  0.4090
17241TIP3    H173214   4.156   3.133   0.499  0.1772  0.1279  0.2690
17241TIP3    H273215   4.087   3.111   0.366 -1.6262 -0.8796  1.3422
17242TIP3   OH273216   1.843   5.277  13.274 -0.3222 -0.0792 -0.1636
17242TIP3    H173217   1.807   5.222  13.205 -0.3400  0.0528 -0.2598
17242TIP3    H273218   1.937   5.259  13.274 -0.5781 -1.6821  1.1954
17243TIP3   OH273219   6.745   5.723  14.506  0.7281  0.6545  0.3660
17243TIP3    H173220   6.650   5.713  14.513  0.7944  0.7251  1.4707
17243TIP3    H273221   6.776   5.723  14.596  1.8283  0.2182  0.0031
17244TIP3   OH273222   5.576   1.051   0.681  0.3042 -0.3113  0.3720
17244TIP3    H173223   5.665   1.022   0.699  0.9412  1.1158 -0.3608
17244TIP3    H273224   5.569   1.051   0.586 -0.9888 -1.8007  0.4087
17245TIP3   OH273225   6.779   5.270  12.014 -0.3341  0.3165  0.0581
17245TIP3    H173226   6.853   5.209  12.006 -0.5438  0.2445 -1.4899
17245TIP3    H273227   6.798   5.339  11.950 -0.6052  1.3736  1.0858
17246TIP3   OH273228   5.658   4.375  13.690  0.0151 -0.4163 -0.0540
17246TIP3    H173229   5.634   4.300  13.745  1.6791 -0.2428  0.9966
17246TIP3    H273230   5.638   4.348  13.601  0.2191 -1.9698  0.3488
17247TIP3   OH273231   6.202   2.962   4.417  0.8335 -0.4224  0.8709
17247TIP3    H173232   6.285   2.989   4.454  1.4169  1.1380 -1.3384
17247TIP3    H273233   6.224   2.889   4.359  0.5475 -0.5151  0.8778
17248TIP3   OH273234   5.209   0.837  13.185 -0.7689 -0.2683 -0.0059
17248TIP3    H173235   5.205   0.841  13.090 -2.2350 -0.6436  0.0099
17248TIP3    H273236   5.219   0.928  13.213  1.1006 -0.2722 -0.5231
17249TIP3   OH273237   0.103   2.211  16.783  0.2428 -0.3247  0.0384
17249TIP3    H173238   0.088   2.157  16.705 -0.4346 -1.3504  0.8499
17249TIP3    H273239   0.043   2.285  16.772  2.4629  1.3316 -1.9683
17250TIP3   OH273240   5.523   1.341  11.269  0.3619 -0.8888 -0.4136
17250TIP3    H173241   5.583   1.378  11.204  0.2233  0.6923  0.3060
17250TIP3    H273242   5.556   1.374  11.352 -1.9146  0.6972 -0.0553
17251TIP3   OH273243   4.638   4.107   0.693 -0.9096  0.7787 -0.5330
17251TIP3    H173244   4.732   4.096   0.684 -0.4966  2.9134  0.6420
17251TIP3    H273245   4.601   4.057   0.619  1.0615 -0.5655 -0.6841
17252TIP3   OH273246   5.857   2.229  15.857 -0.1801 -0.1712  0.2126
17252TIP3    H173247   5.859   2.174  15.779 -0.2786  1.0653 -0.6919
17252TIP3    H273248   5.840   2.317  15.824  1.2062  0.6207  1.4964
17253TIP3   OH273249   6.783   4.847   2.512  0.6334  0.0370 -0.5947
17253TIP3    H173250   6.708   4.895   2.546 -0.2390 -1.1838 -0.6991
17253TIP3    H273251   6.749   4.759   2.495  2.2849 -0.7737  0.0967
17254TIP3   OH273252   0.950   4.110   5.116 -0.0490 -0.5291  0.2251
17254TIP3    H173253   0.924   4.076   5.202  0.1778 -3.3259 -0.7106
17254TIP3    H273254   1.039   4.077   5.104  0.7262  1.5950 -0.2622
17255TIP3   OH273255   2.468   1.722   0.394  0.1437  0.1872  0.2777
17255TIP3    H173256   2.487   1.632   0.418  2.0648  0.3144 -0.6129
17255TIP3    H273257   2.380   1.738   0.430 -1.0464 -2.5767 -1.0422
17256TIP3   OH273258   3.579   1.508   5.214 -0.0674  0.6389 -0.0848
17256TIP3    H173259   3.658   1.525   5.162 -1.0314  0.1281 -1.7664
17256TIP3    H273260   3.537   1.594   5.222  1.5834  1.3331  2.5433
17257TIP3   OH273261   5.505   1.805  10.970 -0.2023 -0.4261  0.2389
17257TIP3    H173262   5.507   1.834  10.879 -1.1854 -0.6059  0.1401
17257TIP3    H273263   5.595   1.812  11.000 -0.0409  0.6132 -0.4386
17258TIP3   OH273264   6.114   3.737  15.207  0.0818  0.0227  0.9180
17258TIP3    H173265   6.043   3.787  15.247 -0.0343  0.6891 -0.0800
17258TIP3    H273266   6.154   3.689  15.279 -0.2339  1.0557  1.7910
17259TIP3   OH273267   4.921   4.986   1.189  0.1434 -0.4973  0.1999
17259TIP3    H173268   4.966   4.989   1.104 -0.9608 -2.9099 -0.5791
17259TIP3    H273269   4.889   5.075   1.203  0.6833  0.0486 -1.7354
17260TIP3   OH273270   3.494   1.773   5.183 -0.0754  0.2497  0.6311
17260TIP3    H173271   3.441   1.809   5.112  1.7765  0.4136 -0.7412
17260TIP3    H273272   3.489   1.838   5.253  1.5188  2.2594 -1.0108
17261TIP3   OH273273   5.499   5.580   5.505  0.1513  0.1393  0.3234
17261TIP3    H173274   5.539   5.662   5.476  0.4758 -0.6297 -1.5641
17261TIP3    H273275   5.409   5.604   5.529  0.2913  1.0759 -0.0555
17262TIP3   OH273276   3.026   2.872   4.605  0.0563  0.5356  0.0716
17262TIP3    H173277   2.956   2.932   4.576  0.1262  0.7883  0.4139
17262TIP3    H273278   2.992   2.834   4.686 -0.1465 -0.1812 -0.3447
17263TIP3   OH273279   4.708   2.209  15.411  0.3697  0.1638 -0.4728
17263TIP3    H173280   4.638   2.223  15.475 -0.6065  2.3711 -1.9024
17263TIP3    H273281   4.672   2.143  15.351  0.0873  0.2591 -0.4088
17264TIP3   OH273282   6.228   2.251   0.888 -0.1290 -0.1451  0.3491
17264TIP3    H173283   6.138   2.228   0.866  0.1477 -0.7139 -0.1986
17264TIP3    H273284   6.271   2.264   0.804 -0.0893  1.7316  0.6044
17265TIP3   OH273285   1.057   4.455  16.825  0.4224  0.0937 -0.1728
17265TIP3    H173286   1.128   4.468  16.762 -0.6556  1.1521 -1.2272
17265TIP3    H273287   0.989   4.410  16.774 -0.4362  0.8966  0.2492
17266TIP3   OH273288   0.987   4.350   2.282  0.0497 -0.1479  0.5760
17266TIP3    H173289   0.893   4.368   2.279  0.4500  2.2646 -3.1472
17266TIP3    H273290   1.024   4.426   2.327  0.3594 -0.5340  0.9834
17267TIP3   OH273291   1.508   5.091   2.002  0.1553  0.0778 -0.3761
17267TIP3    H173292   1.511   5.071   1.909  0.2122 -0.7444 -0.2062
17267TIP3    H273293   1.599   5.105   2.027  0.6707 -3.5032  0.3165
17268TIP3   OH273294   4.535   2.559   6.525  0.3847  0.5851 -0.3705
17268TIP3    H173295   4.454   2.591   6.565 -0.0368  1.1998 -1.6778
17268TIP3    H273296   4.545   2.470   6.559 -0.0218  1.0243  0.9776
17269TIP3   OH273297   4.221   6.721  10.631  0.0231  0.0717 -0.3085
17269TIP3    H173298   4.136   6.739  10.590  0.1797 -0.0989 -0.7147
17269TIP3    H273299   4.286   6.748  10.566  0.2745 -0.1887 -0.1713
17270TIP3   OH273300   1.614   5.762   4.214  0.7804  0.3489 -0.4942
17270TIP3    H173301   1.634   5.670   4.234  1.1216  0.4015 -0.5863
17270TIP3    H273302   1.698   5.807   4.224  0.4377  0.8087  0.4454
17271TIP3   OH273303   4.544   4.159   0.274 -0.8486 -0.0760 -0.1408
17271TIP3    H173304   4.464   4.208   0.292 -1.4529 -0.0100 -2.6528
17271TIP3    H273305   4.540   4.084   0.333 -2.4444  0.2377  0.1933
17272TIP3   OH273306   5.206   4.284  17.139  0.0171  0.4365 -0.0104
17272TIP3    H173307   5.167   4.233  17.209 -0.0034  0.7897  0.2386
17272TIP3    H273308   5.275   4.335  17.182  0.7821 -0.2077 -0.4507
17273TIP3   OH273309   3.225   2.628  14.294 -0.4445 -0.3704  0.2514
17273TIP3    H173310   3.264   2.621  14.382 -0.5197 -0.1699  0.3008
17273TIP3    H273311   3.241   2.543  14.254 -0.4681 -0.4857  0.4845
17274TIP3   OH273312   3.847   5.913  12.607 -0.2500 -0.1072  0.7018
17274TIP3    H173313   3.756   5.934  12.588 -0.1626 -0.2198  0.1277
17274TIP3    H273314   3.853   5.914  12.702 -0.7481  0.3341  0.7315
17275TIP3   OH273315   5.748   4.641  13.752  0.7283 -0.2069  0.0484
17275TIP3    H173316   5.833   4.606  13.725  0.6939 -2.1966  2.2075
17275TIP3    H273317   5.686   4.570  13.732 -0.6101  1.4553 -2.1169
17276TIP3   OH273318   6.216   3.225   1.708  0.1210  0.0674  0.2925
17276TIP3    H173319   6.274   3.230   1.784  0.0520  0.6376  0.3097
17276TIP3    H273320   6.163   3.304   1.714 -0.9106 -0.6172  0.4847
17277TIP3   OH273321   6.573   2.225  13.851 -0.1715  0.6181 -0.4252
17277TIP3    H173322   6.630   2.292  13.812 -1.4136  3.1965  1.8872
17277TIP3    H273323   6.634   2.159  13.885  1.3709  2.2630  0.1846
17278TIP3   OH273324   0.972   3.991   3.671 -0.0833  0.1268  0.1822
17278TIP3    H173325   0.935   4.076   3.646  0.0343  0.2213  0.3234
17278TIP3    H273326   1.001   3.952   3.589 -0.3808  0.1081  0.0854
17279TIP3   OH273327   3.925   0.761  12.247  0.0267  0.2334  0.2588
17279TIP3    H173328   3.860   0.765  12.177  0.1456  1.2473  0.1785
17279TIP3    H273329   3.876   0.776  12.327  0.3144  2.7173  0.0640
17280TIP3   OH273330   5.615   1.897  11.605  0.1958  0.1687 -0.6231
17280TIP3    H173331   5.534   1.939  11.634  0.8652  0.1911  1.3384
17280TIP3    H273332   5.658   1.963  11.551 -0.7391  0.4253 -1.0649
17281TIP3   OH273333   5.034   4.761   5.266  0.0563 -0.1354 -0.1660
17281TIP3    H173334   5.125   4.776   5.242  0.0468 -2.1357 -1.7261
17281TIP3    H273335   5.034   4.675   5.310 -1.0235 -0.0037  0.1289
17282TIP3   OH273336   3.763   3.335  11.419  0.9151 -0.0342  0.0713
17282TIP3    H173337   3.781   3.429  11.408 -0.3361  0.6744  3.0596
17282TIP3    H273338   3.848   3.296  11.438  1.2688  0.7664  0.1710
17283TIP3   OH273339   5.047   5.840   3.980  0.4247  0.7246 -0.0810
17283TIP3    H173340   5.126   5.892   3.995  1.6510 -0.3299 -2.3300
17283TIP3    H273341   5.047   5.776   4.051  1.7292  0.6260 -0.1372
17284TIP3   OH273342   4.493   2.298   1.430 -0.5958  0.5619  0.3743
17284TIP3    H173343   4.513   2.213   1.468 -0.6001  0.2413 -0.3195
17284TIP3    H273344   4.481   2.356   1.505 -0.2585  0.0291  0.8493
17285TIP3   OH273345   2.548   3.974   2.781 -0.0712  0.7859  0.3144
17285TIP3    H173346   2.523   3.962   2.690 -0.1613  0.6943  0.3507
17285TIP3    H273347   2.572   3.886   2.811  1.1767  1.0083  0.0209
17286TIP3   OH273348   1.788   1.763   0.916 -0.1621  0.3895 -0.3263
17286TIP3    H173349   1.742   1.682   0.937 -1.5669  0.7804 -1.7416
17286TIP3    H273350   1.762   1.783   0.826  0.9281  1.9095 -0.3421
17287TIP3   OH273351   3.445   4.815   0.475  1.0398 -0.2886 -0.3764
17287TIP3    H173352   3.492   4.808   0.558  0.0157 -0.5537  0.1918
17287TIP3    H273353   3.361   4.853   0.498  1.6158  1.9070 -1.6315
17288TIP3   OH273354   5.889   1.409  14.329  0.2899 -0.6786 -0.0468
17288TIP3    H173355   5.819   1.403  14.264 -0.8424 -1.6177  1.2257
17288TIP3    H273356   5.956   1.348  14.298 -0.2290 -1.1054 -0.3330
17289TIP3   OH273357   5.795   3.050  15.780  0.5819  0.2705  0.0477
17289TIP3    H173358   5.804   2.957  15.802 -1.2799  0.3943  1.6450
17289TIP3    H273359   5.782   3.093  15.865 -3.6135  1.2665 -0.8480
17290TIP3   OH273360   5.383   5.441  14.330  1.1017 -0.1516  0.0451
17290TIP3    H173361   5.414   5.367  14.278 -1.7189 -1.3541 -0.1413
17290TIP3    H273362   5.401   5.416  14.420  0.9924 -0.6533 -0.0703
17291TIP3   OH273363   5.444   1.038  13.429 -0.7946 -0.6735  0.3019
17291TIP3    H173364   5.461   0.971  13.363 -1.2871 -0.5367  0.0347
17291TIP3    H273365   5.529   1.083  13.440 -0.7677 -0.5419 -0.4112
17292TIP3   OH273366   5.379   1.462  14.729 -0.6387  0.4341  0.0245
17292TIP3    H173367   5.465   1.501  14.743  0.6254 -2.1222 -0.0494
17292TIP3    H273368   5.347   1.443  14.817 -1.0710  1.2044  0.0431
17293TIP3   OH273369   0.296   0.844   0.757 -0.1775  0.1757 -0.1768
17293TIP3    H173370   0.298   0.911   0.826  2.0689  0.4741 -0.4477
17293TIP3    H273371   0.358   0.876   0.691  0.1038 -1.6352 -0.8467
17294TIP3   OH273372   1.990   6.556   1.337 -0.0682  0.4418 -0.4235
17294TIP3    H173373   1.976   6.496   1.410  1.0303 -0.1856 -0.7198
17294TIP3    H273374   1.924   6.625   1.351  0.7818  0.9004  1.7528
17295TIP3   OH273375   0.277   6.636  16.552 -0.0043  0.0816  0.0015
17295TIP3    H173376   0.337   6.680  16.491  0.1745 -1.2608 -0.8532
17295TIP3    H273377   0.190   6.659  16.520  0.0798  0.1717 -0.1683
17296TIP3   OH273378   3.352   3.513   6.359  0.1074 -0.0154 -0.1919
17296TIP3    H173379   3.422   3.530   6.422  0.7067  2.8338 -1.4786
17296TIP3    H273380   3.331   3.599   6.323 -3.5269 -0.8655 -0.4728
17297TIP3   OH273381   3.573   4.579  10.703  0.6355  0.2497  0.0299
17297TIP3    H173382   3.515   4.530  10.645 -1.9111  2.3692  0.5683
17297TIP3    H273383   3.573   4.530  10.785  0.2204 -0.1923 -0.2324
17298TIP3   OH273384   3.034   1.071   4.222 -0.2790 -0.0932  0.6685
17298TIP3    H173385   2.956   1.069   4.166 -3.0813 -0.5840  4.1648
17298TIP3    H273386   3.051   1.164   4.237  1.9792  0.1739 -2.5416
17299TIP3   OH273387   3.323   6.406  16.156  0.4555 -0.4016 -0.3553
17299TIP3    H173388   3.273   6.470  16.104 -0.7667  0.0857  1.3399
17299TIP3    H273389   3.382   6.365  16.092  0.0045  1.1332 -1.8518
17300TIP3   OH273390   6.372   2.815  14.663 -0.3866  0.3476 -0.0769
17300TIP3    H173391   6.464   2.838  14.667 -0.1419 -0.6649  1.4293
17300TIP3    H273392   6.336   2.848  14.746 -0.4855 -2.4594  1.1326
17301TIP3   OH273393   1.150   3.554  11.753  0.3853 -0.1731  0.3513
17301TIP3    H173394   1.243   3.550  11.732  0.4700  0.6820  0.5153
17301TIP3    H273395   1.142   3.628  11.813 -0.1777 -1.1855  1.5789
17302TIP3   OH273396   0.281   4.541   4.273  0.0412 -0.5553  0.6820
17302TIP3    H173397   0.351   4.476   4.265 -0.0443 -0.8748  2.3320
17302TIP3    H273398   0.278   4.582   4.187  2.4507 -0.3345  0.6380
17303TIP3   OH273399   6.663   3.026  15.391  0.3607 -0.0827 -0.2833
17303TIP3    H173400   6.586   3.055  15.343  1.3831  1.2780 -1.1972
17303TIP3    H273401   6.737   3.061  15.340  1.5462 -0.4746  1.1104
17304TIP3   OH273402   2.253   3.565   3.958  0.0855 -0.0909 -0.1047
17304TIP3    H173403   2.222   3.653   3.939 -0.9320 -0.1399  1.2126
17304TIP3    H273404   2.174   3.513   3.969  0.4508 -0.0847  4.0622
17305TIP3   OH273405   2.818   1.843   5.720 -0.1162 -0.1643 -0.4062
17305TIP3    H173406   2.884   1.778   5.697 -1.2637 -1.2000 -0.9256
17305TIP3    H273407   2.737   1.811   5.679 -0.4956  2.2489 -1.7384
17306TIP3   OH273408   3.223   6.466  11.402 -0.2157 -0.3254 -0.2483
17306TIP3    H173409   3.261   6.386  11.439  2.5783  0.9576 -0.0747
17306TIP3    H273410   3.259   6.470  11.313 -2.6399 -0.6690 -1.3226
17307TIP3   OH273411   3.304   2.187   3.508  0.0048  0.3568 -0.4256
17307TIP3    H173412   3.318   2.269   3.460  0.6641  0.3717 -0.2177
17307TIP3    H273413   3.211   2.169   3.497 -0.2391  1.3508 -0.1363
17308TIP3   OH273414   2.491   0.663   4.693 -0.6247  0.2750  0.6719
17308TIP3    H173415   2.565   0.718   4.669  0.2134  0.5368  3.4830
17308TIP3    H273416   2.422   0.724   4.719 -1.4259  0.0048 -0.6940
17309TIP3   OH273417   6.766   5.669  16.133 -0.1811  0.2931  0.6765
17309TIP3    H173418   6.845   5.631  16.095 -0.5165  0.7892 -0.5604
17309TIP3    H273419   6.705   5.595  16.140 -0.2387  0.2573 -0.1073
17310TIP3   OH273420   5.663   3.749   4.830 -0.5270  0.6322 -0.7647
17310TIP3    H173421   5.644   3.837   4.798 -2.8236  0.2841 -0.5743
17310TIP3    H273422   5.582   3.722   4.875  0.4759 -1.1801  0.0894
17311TIP3   OH273423   2.969   6.147   5.519  0.0070 -0.5917  0.2419
17311TIP3    H173424   2.966   6.184   5.430 -0.5380 -0.2884  0.3796
17311TIP3    H273425   3.014   6.064   5.509  0.8748 -0.0893 -0.1516
17312TIP3   OH273426   5.166   6.384  14.621  0.4433 -0.1775 -0.3041
17312TIP3    H173427   5.249   6.377  14.574 -0.4144 -0.2218 -1.8504
17312TIP3    H273428   5.114   6.447  14.572 -0.4752 -0.1910  0.6011
17313TIP3   OH273429   2.783   2.608  12.802  0.3507 -0.1111 -0.3546
17313TIP3    H173430   2.758   2.529  12.850 -0.8785  0.6713  0.3649
17313TIP3    H273431   2.745   2.597  12.715 -0.8555  0.1848  0.1135
17314TIP3   OH273432   4.542   1.285  14.514  0.2223 -0.1651  0.5969
17314TIP3    H173433   4.528   1.349  14.444 -0.4665  1.4677  2.1492
17314TIP3    H273434   4.554   1.338  14.593 -1.8416 -1.9394  2.2188
17315TIP3   OH273435   1.288   0.312  16.840 -0.4042 -0.1976 -0.7465
17315TIP3    H173436   1.238   0.394  16.843  0.7373  0.4949  0.0295
17315TIP3    H273437   1.371   0.333  16.883  0.2596 -1.5287 -1.3309
17316TIP3   OH273438   2.340   1.240  16.733  0.6532 -0.0541 -0.0540
17316TIP3    H173439   2.292   1.276  16.659  0.1661 -0.7297 -0.0795
17316TIP3    H273440   2.393   1.313  16.766 -1.3156  1.0737  0.7465
17317TIP3   OH273441   1.247   3.766  10.717  0.1772 -0.5956  0.3450
17317TIP3    H173442   1.309   3.705  10.678  0.8314 -0.3606  0.9937
17317TIP3    H273443   1.296   3.808  10.788 -0.1987  0.7779 -0.1581
17318TIP3   OH273444   5.983   4.882  12.635  0.4733  0.3683  0.0601
17318TIP3    H173445   5.971   4.814  12.701  0.5854 -0.2694 -0.5643
17318TIP3    H273446   6.071   4.915  12.651  0.7467 -0.2274 -0.1595
17319TIP3   OH273447   2.934   3.378   2.075 -0.4538  0.0545  0.2510
17319TIP3    H173448   2.849   3.395   2.035 -1.0142  0.1140  1.4187
17319TIP3    H273449   2.940   3.440   2.147  1.2539  1.0866 -0.6919
17320TIP3   OH273450   4.019   1.215  14.598 -0.0942  0.0369 -0.4225
17320TIP3    H173451   3.991   1.295  14.554  0.5093  1.6645  1.9644
17320TIP3    H273452   4.114   1.211  14.585 -0.1410 -0.3925 -0.6636
17321TIP3   OH273453   4.075   1.042  13.843  0.0331  0.3072  0.0049
17321TIP3    H173454   4.012   1.031  13.772  0.5445 -0.4767 -0.3421
17321TIP3    H273455   4.074   0.959  13.890  3.0575 -0.9678 -1.8947
17322TIP3   OH273456   1.402   1.858  14.579 -0.2397 -0.0267  0.4128
17322TIP3    H173457   1.472   1.901  14.529 -0.8014  0.3451 -0.0636
17322TIP3    H273458   1.375   1.784  14.523 -0.7142  0.2554  0.2703
17323TIP3   OH273459   6.003   1.809  14.910  0.0873  0.1151  0.5115
17323TIP3    H173460   5.995   1.750  14.984  2.2046 -0.7047  0.1652
17323TIP3    H273461   6.008   1.751  14.834 -0.9197  0.8926 -0.1705
17324TIP3   OH273462   5.379   5.519  15.345 -0.1884 -0.0402 -0.5000
17324TIP3    H173463   5.443   5.558  15.404  0.4002  0.5768 -1.5135
17324TIP3    H273464   5.362   5.432  15.381  1.0681 -0.1367 -0.1030
17325TIP3   OH273465   6.658   5.582   4.954 -0.3313 -0.0208  0.2056
17325TIP3    H173466   6.570   5.552   4.976  0.4206 -2.5128  0.1287
17325TIP3    H273467   6.705   5.584   5.038 -0.2811  0.7040  0.1672
17326TIP3   OH273468   0.775   1.939  12.417 -0.0112 -0.3682 -0.2197
17326TIP3    H173469   0.755   2.028  12.445 -0.7943 -1.0198  1.3896
17326TIP3    H273470   0.870   1.940  12.402  0.1911  0.4549  0.9433
17327TIP3   OH273471   0.394   4.030  14.129  0.6850  0.1321  0.0981
17327TIP3    H173472   0.365   3.944  14.098 -0.6356  0.5118  0.2192
17327TIP3    H273473   0.477   4.013  14.173 -0.0595 -1.2654  1.0430
17328TIP3   OH273474   1.248   2.502  16.416 -0.3218  0.5263 -0.0267
17328TIP3    H173475   1.164   2.486  16.459 -0.2280  0.2876  0.0696
17328TIP3    H273476   1.290   2.416  16.412 -1.6485 -0.1010 -3.4986
17329TIP3   OH273477   6.710   1.234   4.101  0.2148  0.6767  0.0465
17329TIP3    H173478   6.691   1.211   4.192  3.1322  0.6522  0.7452
17329TIP3    H273479   6.758   1.317   4.107 -0.9015  1.5082 -1.6406
17330TIP3   OH273480   3.007   5.500  12.237 -0.3132 -0.0476 -0.0514
17330TIP3    H173481   2.927   5.537  12.198 -0.8971 -0.4385  0.7526
17330TIP3    H273482   3.027   5.558  12.310 -0.0506 -0.1528 -0.0386
17331TIP3   OH273483   5.069   6.712  16.056 -0.2236 -0.0106  0.8033
17331TIP3    H173484   5.145   6.709  15.997 -1.6329 -0.4007 -1.0956
17331TIP3    H273485   5.096   6.770  16.127  1.2926  1.1916 -0.6599
17332TIP3   OH273486   5.672   2.974   1.287 -0.2425 -0.7388 -0.3650
17332TIP3    H173487   5.607   2.915   1.249 -1.6618  0.1449  0.6214
17332TIP3    H273488   5.658   3.057   1.242 -1.7273  0.2315  1.7164
17333TIP3   OH273489   5.952   4.911   0.653  0.3487  0.3586  0.1168
17333TIP3    H173490   6.021   4.860   0.697  0.4219  1.1559  0.9506
17333TIP3    H273491   5.981   5.002   0.661 -0.5668  0.6607  0.0273
17334TIP3   OH273492   5.616   0.545   3.802  0.3913  0.4653 -0.1253
17334TIP3    H173493   5.560   0.564   3.878 -0.0897  2.1705 -0.8538
17334TIP3    H273494   5.699   0.516   3.839 -0.1486  0.3381  1.0241
17335TIP3   OH273495   5.625   3.610  16.115 -0.0331 -0.0884  0.8671
17335TIP3    H173496   5.657   3.589  16.027 -2.2549 -0.2816  0.0429
17335TIP3    H273497   5.604   3.525  16.153 -0.1538  0.0698  1.1508
17336TIP3   OH273498   0.082   4.089   5.727  0.4572 -0.1751  0.4541
17336TIP3    H173499   0.105   4.169   5.681 -0.3372 -0.1544  0.0789
17336TIP3    H273500   0.118   4.019   5.673  0.1601 -0.1203  0.1859
17337TIP3   OH273501   3.331   3.325   1.208  0.2314 -0.3738 -0.0546
17337TIP3    H173502   3.413   3.275   1.204  0.0606 -0.5955 -1.0687
17337TIP3    H273503   3.356   3.409   1.244  1.2311  0.1503 -1.8223
17338TIP3   OH273504   3.350   0.888  16.921 -0.2686  0.1524 -0.6297
17338TIP3    H173505   3.410   0.881  16.995 -0.9212  1.3891  0.0431
17338TIP3    H273506   3.393   0.840  16.850  0.7176 -0.3952  0.3210
17339TIP3   OH273507   6.454   4.888  16.274  0.1207  0.2630 -0.6906
17339TIP3    H173508   6.400   4.841  16.211  0.7296 -0.9338 -0.3359
17339TIP3    H273509   6.394   4.911  16.345 -0.1111 -0.3080 -0.6968
17340TIP3   OH273510   0.679   0.118   3.960  0.0476 -0.0271  0.3928
17340TIP3    H173511   0.745   0.137   4.027  0.4613  0.5503 -0.1665
17340TIP3    H273512   0.648   0.030   3.981  2.4666 -1.1816 -0.5394
17341TIP3   OH273513   0.042   6.247   5.205 -0.0311 -0.5902 -0.2165
17341TIP3    H173514   0.066   6.204   5.287 -0.7385  1.8825  1.3953
17341TIP3    H273515  -0.053   6.252   5.207 -0.1001 -1.0584 -1.5314
17342TIP3   OH273516   0.688   2.717  11.726  0.1408 -0.5093  0.1496
17342TIP3    H173517   0.716   2.804  11.752 -0.0337  0.2036 -1.8912
17342TIP3    H273518   0.752   2.689  11.661  0.2189 -1.9502  0.7896
17343TIP3   OH273519   2.033   2.904  12.652 -0.0969  1.0494 -0.1138
17343TIP3    H173520   1.938   2.890  12.642  0.2666 -2.6191  0.0360
17343TIP3    H273521   2.048   2.895  12.746  0.6254 -1.2133 -0.3838
17344TIP3   OH273522   0.661   5.322  16.390 -0.2735 -0.2045  0.2442
17344TIP3    H173523   0.679   5.399  16.335  1.7878 -1.3826 -0.8432
17344TIP3    H273524   0.574   5.294  16.363  0.4734 -0.4520 -2.1599
17345TIP3   OH273525   5.487   2.573  11.328  0.3160  0.4143 -0.1503
17345TIP3    H173526   5.576   2.608  11.327 -0.0311  1.2910 -0.6832
17345TIP3    H273527   5.431   2.648  11.346 -0.3573 -0.0587 -0.2282
17346TIP3   OH273528   2.693   3.087  13.485  0.0083  0.0406 -0.1920
17346TIP3    H173529   2.664   3.108  13.574 -0.0834 -1.6303  0.2041
17346TIP3    H273530   2.651   3.153  13.430 -2.1752 -0.5424  0.6958
17347TIP3   OH273531   1.937   6.463   6.107 -0.0348  0.7584  0.5255
17347TIP3    H173532   1.921   6.386   6.162 -2.4882  1.2295  0.6004
17347TIP3    H273533   1.980   6.526   6.165 -0.3544  0.3535  1.2068
17348TIP3   OH273534   4.828   6.230  16.758 -0.2486 -0.1216 -0.1961
17348TIP3    H173535   4.759   6.168  16.733 -1.8338  1.3860  0.2820
17348TIP3    H273536   4.844   6.211  16.850 -1.0102  0.3999  0.0557
17349TIP3   OH273537   0.327   5.383   4.201  0.0141 -0.2662 -0.2564
17349TIP3    H173538   0.255   5.385   4.139 -0.5875 -1.1524  0.3733
17349TIP3    H273539   0.403   5.413   4.152 -0.1290 -2.3240 -1.8685
17350TIP3   OH273540   3.103   5.836  16.007  0.1137 -0.0613  0.0608
17350TIP3    H173541   3.158   5.914  16.006 -0.8519  0.6268 -0.5203
17350TIP3    H273542   3.019   5.865  15.973 -1.6617 -0.3457  3.7002
17351TIP3   OH273543   5.853   2.970   2.134  0.1027  0.1447  0.0529
17351TIP3    H173544   5.914   2.908   2.172 -0.3771 -1.3300 -1.4874
17351TIP3    H273545   5.798   2.997   2.208 -0.2614 -1.9750  0.6226
17352TIP3   OH273546   1.647   4.360   1.661 -0.5898 -0.5135 -0.1595
17352TIP3    H173547   1.705   4.392   1.730 -1.3317  2.6057 -0.8390
17352TIP3    H273548   1.629   4.269   1.686  2.1396 -0.6752  1.6681
17353TIP3   OH273549   1.196   2.687   5.127  0.0040  0.6423  0.0568
17353TIP3    H173550   1.166   2.714   5.041  0.6943  1.0527 -0.0710
17353TIP3    H273551   1.251   2.610   5.111 -1.7331 -0.7424  0.3918
17354TIP3   OH273552   4.385   2.186   2.052 -0.2550 -0.1400 -0.1410
17354TIP3    H173553   4.457   2.249   2.062  0.2758 -0.7492 -0.1201
17354TIP3    H273554   4.310   2.230   2.093  0.2683  0.2117  0.4581
17355TIP3   OH273555   4.372   3.416  11.486 -0.3501 -0.0996 -0.8045
17355TIP3    H173556   4.426   3.347  11.447 -0.6829  0.6880 -2.7414
17355TIP3    H273557   4.282   3.387  11.472 -0.5090  0.9297 -2.1240
17356TIP3   OH273558   3.950   6.529   3.416 -0.4502  0.0514 -0.3375
17356TIP3    H173559   3.944   6.544   3.510 -3.7521  0.2585 -0.4414
17356TIP3    H273560   4.000   6.603   3.383  1.1417 -0.2454  1.2511
17357TIP3   OH273561   4.688   4.893  11.615 -0.7876 -0.4680  0.0360
17357TIP3    H173562   4.660   4.816  11.565  0.6953 -0.6613 -0.5333
17357TIP3    H273563   4.783   4.894  11.607 -0.8096  1.9643 -0.7511
17358TIP3   OH273564   0.703   4.813  12.526  0.4961 -0.2534  0.4858
17358TIP3    H173565   0.676   4.903  12.542  1.1084  0.2772 -1.2632
17358TIP3    H273566   0.758   4.818  12.448  1.5655 -1.9792  1.0924
17359TIP3   OH273567   1.047   1.192   3.106 -0.2233 -0.3334 -0.0104
17359TIP3    H173568   1.119   1.254   3.093  1.6183 -1.6772  2.8214
17359TIP3    H273569   1.050   1.136   3.028  0.3701  0.9103 -0.9356
17360TIP3   OH273570   2.413   1.751   2.112 -0.0808  0.0590  0.3618
17360TIP3    H173571   2.430   1.739   2.018 -1.1030 -2.2760  0.4054
17360TIP3    H273572   2.472   1.822   2.138  1.0658 -0.0062 -1.7993
17361TIP3   OH273573   0.873   6.058   3.276  0.6203 -0.4557 -0.3101
17361TIP3    H173574   0.945   6.114   3.307  1.1079 -1.0948 -0.2584
17361TIP3    H273575   0.860   6.084   3.185  0.0686  0.5274  0.0397
17362TIP3   OH273576   4.597   6.169  11.216 -0.8496 -0.4631 -1.0300
17362TIP3    H173577   4.602   6.102  11.148  2.0469 -1.0482 -0.4093
17362TIP3    H273578   4.602   6.252  11.169  1.8397 -0.8709 -1.6378
17363TIP3   OH273579   5.492   5.874  13.756  0.4211 -0.3374 -0.2406
17363TIP3    H173580   5.460   5.955  13.796 -0.3694 -0.8006  0.0944
17363TIP3    H273581   5.586   5.889  13.743  0.6129  0.0270  1.3238
17364TIP3   OH273582   6.436   3.964   0.153 -0.6349 -0.1897  0.0871
17364TIP3    H173583   6.436   4.044   0.100 -1.4800  0.5021  1.0898
17364TIP3    H273584   6.498   3.906   0.108 -0.6269  0.7042 -1.1305
17365TIP3   OH273585   5.758   0.661  16.973 -0.1946 -0.0825 -0.0432
17365TIP3    H173586   5.848   0.629  16.966 -0.4123 -0.4188 -1.7771
17365TIP3    H273587   5.715   0.600  17.032  0.5446 -0.2641  0.3291
17366TIP3   OH273588   0.584   3.984  14.913  1.1361  0.3154 -0.2882
17366TIP3    H173589   0.527   3.944  14.847  0.5149  1.2105 -0.2988
17366TIP3    H273590   0.670   3.987  14.870  0.8664  0.3408 -0.8368
17367TIP3   OH273591   1.942   1.067  13.542  0.1256  0.7534 -0.7534
17367TIP3    H173592   1.847   1.071  13.550 -0.2479 -1.0566 -3.2435
17367TIP3    H273593   1.958   1.013  13.465  3.2076  0.3067  0.0496
17368TIP3   OH273594   6.236   1.007  12.254  0.2701  0.2248  0.2817
17368TIP3    H173595   6.164   1.065  12.229  1.1684  1.7679  1.1647
17368TIP3    H273596   6.275   0.980  12.171 -1.1749 -0.5006 -0.2061
17369TIP3   OH273597   2.055   5.305  14.865  0.0743  0.3376 -0.1824
17369TIP3    H173598   2.091   5.391  14.844  1.4671 -0.6567 -2.1601
17369TIP3    H273599   2.110   5.274  14.937 -0.9188  1.3386  1.0748
17370TIP3   OH273600   4.068   4.376  12.246 -0.6351 -0.1902 -0.1490
17370TIP3    H173601   4.013   4.299  12.260  1.0651 -1.1900  1.4400
17370TIP3    H273602   4.035   4.441  12.307 -0.7466 -0.4118  0.0268
17371TIP3   OH273603   2.567   5.175  15.163 -0.0398  0.0570  0.0024
17371TIP3    H173604   2.575   5.211  15.074 -0.3627 -2.8392 -1.3307
17371TIP3    H273605   2.479   5.139  15.166 -0.3838  0.9711  1.9096
17372TIP3   OH273606   3.637   2.666   5.508 -0.3457 -1.0531  0.1576
17372TIP3    H173607   3.563   2.727   5.513  0.2594 -0.2600 -0.3377
17372TIP3    H273608   3.680   2.688   5.425  1.2328 -0.5771  1.0746
17373TIP3   OH273609   1.035   4.942   6.327 -0.2190  0.1880 -0.0070
17373TIP3    H173610   1.012   5.027   6.290 -1.1506 -0.4517 -0.9312
17373TIP3    H273611   0.988   4.938   6.410 -1.2194  0.0429 -0.5749
17374TIP3   OH273612   1.420   2.857   4.304 -0.7768 -0.1972 -0.2713
17374TIP3    H173613   1.435   2.948   4.277 -1.7881  0.4414  1.2273
17374TIP3    H273614   1.506   2.826   4.331 -0.2564  0.0076 -1.5830
17375TIP3   OH273615   4.096   4.820   1.573 -0.1868 -0.1400  0.0447
17375TIP3    H173616   4.030   4.806   1.640 -0.1168  1.6245  0.5307
17375TIP3    H273617   4.179   4.802   1.618 -0.1799  0.4531  0.2879
17376TIP3   OH273618   2.730   5.644  12.477  0.0185  0.6796  0.0142
17376TIP3    H173619   2.656   5.677  12.528  0.3787  1.6616 -0.0690
17376TIP3    H273620   2.806   5.661  12.533  0.2318  0.1384 -0.1083
17377TIP3   OH273621   0.263   0.863   4.535 -0.5181  0.0317  0.3696
17377TIP3    H173622   0.278   0.838   4.626 -0.0555 -1.1264 -0.0136
17377TIP3    H273623   0.215   0.790   4.497 -1.8231  1.0416 -0.0135
17378TIP3   OH273624   0.068   4.166  12.991 -0.6927  0.0040 -0.2566
17378TIP3    H173625   0.050   4.091  13.048 -0.0821 -0.1514 -0.2538
17378TIP3    H273626   0.140   4.212  13.034 -0.0605 -0.2560 -1.0156
17379TIP3   OH273627   1.070   4.026  15.253  0.3576 -0.4837  0.5505
17379TIP3    H173628   0.977   4.025  15.276  0.3010 -2.2108  0.3899
17379TIP3    H273629   1.112   3.967  15.316  1.4534  0.6469  0.9302
17380TIP3   OH273630   4.273   1.388   6.278  0.0297 -0.2303  0.1733
17380TIP3    H173631   4.247   1.461   6.222 -2.0913 -0.0014  1.3340
17380TIP3    H273632   4.198   1.329   6.275 -0.1502 -0.2219  2.6912
17381TIP3   OH273633   2.256   0.829   4.745 -0.4916 -0.2925  0.4159
17381TIP3    H173634   2.171   0.806   4.707 -1.8838  0.6571  2.7623
17381TIP3    H273635   2.290   0.896   4.685 -0.5679 -1.8657 -1.4714
17382TIP3   OH273636   1.533   4.638  12.591  0.2695 -0.3518 -0.0848
17382TIP3    H173637   1.485   4.556  12.574  0.3729 -0.1566 -1.4982
17382TIP3    H273638   1.584   4.620  12.670  0.6613 -1.8306 -0.6272
17383TIP3   OH273639   6.541   6.172   1.654 -0.3131  0.0185 -0.0076
17383TIP3    H173640   6.610   6.196   1.715  0.6495 -1.6989 -0.3746
17383TIP3    H273641   6.473   6.239   1.668  0.8280  0.9657  1.3031
17384TIP3   OH273642   2.700   4.671   2.359  0.4186 -0.0514 -0.2056
17384TIP3    H173643   2.785   4.630   2.374  0.0388 -1.2773 -1.2510
17384TIP3    H273644   2.701   4.696   2.266 -0.2992  0.0606 -0.1914
17385TIP3   OH273645   5.415   2.901  12.504  0.5108 -0.2023 -0.7044
17385TIP3    H173646   5.438   2.819  12.547  1.4225 -0.0696 -0.9124
17385TIP3    H273647   5.389   2.876  12.415 -1.5082 -0.4912 -0.0839
17386TIP3   OH273648   4.163   3.093   5.221  0.4359 -0.0959 -0.3101
17386TIP3    H173649   4.152   3.116   5.129  1.6488 -0.5543 -0.5954
17386TIP3    H273650   4.255   3.066   5.228  0.2997 -0.2999  0.9835
17387TIP3   OH273651   4.541   4.699   4.544  0.3930  0.4431 -0.3187
17387TIP3    H173652   4.572   4.681   4.455  0.1572  1.6298 -0.6608
17387TIP3    H273653   4.453   4.734   4.531  0.1394  0.0813  0.4281
17388TIP3   OH273654   1.262   6.373   0.233 -0.4474  0.8475 -0.4944
17388TIP3    H173655   1.203   6.297   0.235  1.4761 -0.7825 -1.8626
17388TIP3    H273656   1.228   6.428   0.162 -0.8978  0.4284 -0.6102
17389TIP3   OH273657   5.515   0.431  12.045 -0.4243  0.1840  0.1705
17389TIP3    H173658   5.471   0.461  11.966 -1.7270 -0.4915  0.6185
17389TIP3    H273659   5.493   0.497  12.111 -2.6041 -1.2030  0.9412
17390TIP3   OH273660   0.671   6.114   6.271  0.2998  0.4275  0.4590
17390TIP3    H173661   0.692   6.199   6.307  0.6667  0.0823  1.0674
17390TIP3    H273662   0.583   6.125   6.233 -0.5028  0.5584  2.2684
17391TIP3   OH273663   6.299   3.240  15.385 -0.6819 -0.4805 -0.5811
17391TIP3    H173664   6.318   3.177  15.315 -0.3898 -0.1379 -0.8143
17391TIP3    H273665   6.207   3.226  15.406 -0.6237 -0.9764 -0.6406
17392TIP3   OH273666   0.508   1.606  11.501  0.0944 -0.3605 -1.0884
17392TIP3    H173667   0.575   1.611  11.569  1.1181 -1.6431 -1.9406
17392TIP3    H273668   0.426   1.627  11.546  1.0428  1.2757 -0.0198
17393TIP3   OH273669   5.309   2.678   5.215 -0.1951  0.2549  0.0824
17393TIP3    H173670   5.270   2.711   5.297  0.5295 -0.3486  0.6811
17393TIP3    H273671   5.249   2.708   5.147 -0.8509  0.7147  0.8386
17394TIP3   OH273672   0.458   2.283  16.647  0.3642  0.2227 -0.2633
17394TIP3    H173673   0.524   2.341  16.684 -0.5164  0.0453  1.6982
17394TIP3    H273674   0.382   2.293  16.704  0.2843 -3.0708  0.4030
17395TIP3   OH273675   5.806   2.099  13.047 -0.1908 -0.2713 -0.5099
17395TIP3    H173676   5.891   2.118  13.007 -0.1453  0.3685 -0.1174
17395TIP3    H273677   5.818   2.013  13.088  0.1032 -0.4209 -0.8924
17396TIP3   OH273678   4.272   2.001  11.533 -0.7859  0.1538 -0.2738
17396TIP3    H173679   4.188   2.033  11.566 -0.4327 -0.4457  1.2796
17396TIP3    H273680   4.273   1.908  11.555  0.3658  0.2033 -0.0514
17397TIP3   OH273681   0.908   4.076   3.265  0.2026  0.0548  0.5000
17397TIP3    H173682   0.907   4.002   3.204  0.3656 -0.0339  0.6045
17397TIP3    H273683   0.996   4.113   3.255 -0.5004  1.4502 -1.0093
17398TIP3   OH273684   6.183   3.149  12.295  0.0104 -0.5114 -0.0677
17398TIP3    H173685   6.226   3.101  12.225 -1.0222 -1.6507  0.0406
17398TIP3    H273686   6.091   3.150  12.271 -0.2281 -0.0878  0.8083
17399TIP3   OH273687   0.884   0.039   4.692 -0.1985 -0.4369 -0.3668
17399TIP3    H173688   0.831   0.029   4.613  0.4720 -0.1726 -0.8546
17399TIP3    H273689   0.940  -0.039   4.694  0.1726 -0.1751 -0.4531
17400TIP3   OH273690   0.663   6.090   1.492 -0.2369 -0.7375  0.4071
17400TIP3    H173691   0.718   6.151   1.443 -2.0368  1.8938  1.4474
17400TIP3    H273692   0.584   6.082   1.440 -1.2614  0.3340  1.7135
17401TIP3   OH273693   1.532   6.437  13.719  0.0119  0.6726  0.2369
17401TIP3    H173694   1.504   6.434  13.627 -0.8094  0.6821  0.4804
17401TIP3    H273695   1.493   6.359  13.758  2.6600 -0.9395 -0.0295
17402TIP3   OH273696   2.253   2.577  12.612  0.0470 -0.1271 -0.0996
17402TIP3    H173697   2.169   2.532  12.609 -0.9694  1.7555 -1.1612
17402TIP3    H273698   2.233   2.668  12.591  1.9432  1.0148  2.4650
17403TIP3   OH273699   0.564   3.811   0.597 -0.0205  0.0397  0.2492
17403TIP3    H173700   0.476   3.776   0.609  0.8548 -2.9704 -1.1919
17403TIP3    H273701   0.609   3.794   0.680 -0.3821  0.2783  0.4957
17404TIP3   OH273702   4.183   1.895   0.848 -0.0953  0.2932 -0.5852
17404TIP3    H173703   4.277   1.893   0.864 -0.1145  1.5480 -0.2235
17404TIP3    H273704   4.148   1.822   0.899  0.5802  0.3850  0.0187
17405TIP3   OH273705   6.098   5.382   2.199  0.1751  0.0766 -0.2995
17405TIP3    H173706   6.069   5.461   2.244 -0.1197  0.7045 -1.5510
17405TIP3    H273707   6.023   5.356   2.145  0.0227 -1.4608  0.5915
17406TIP3   OH273708   3.040   6.013   3.110 -0.6171  0.5777 -0.0601
17406TIP3    H173709   3.038   6.013   3.206 -0.0847 -1.2196 -0.0268
17406TIP3    H273710   2.990   6.092   3.086 -1.0193  0.9062  1.6716
17407TIP3   OH273711   2.189   6.619   5.386  0.3306 -0.3181  0.1051
17407TIP3    H173712   2.221   6.559   5.453  0.9891  0.0348  0.1153
17407TIP3    H273713   2.121   6.570   5.340  0.2434 -0.7512  0.6847
17408TIP3   OH273714   5.937   5.830   0.008  0.3637 -0.4681 -0.6026
17408TIP3    H173715   5.860   5.864   0.054  1.5517  0.4696  0.8078
17408TIP3    H273716   5.920   5.736  -0.001 -0.3016 -0.5598  1.0984
17409TIP3   OH273717   4.702   5.545   0.864  0.0820 -0.8761 -0.1736
17409TIP3    H173718   4.676   5.549   0.956 -1.9896  0.1939 -0.7473
17409TIP3    H273719   4.723   5.635   0.840 -2.6446 -0.5171 -1.5559
17410TIP3   OH273720   0.502   0.925  12.968  0.5418  0.6568  0.1413
17410TIP3    H173721   0.571   0.867  12.999  1.5956  1.6030 -0.3322
17410TIP3    H273722   0.452   0.948  13.046 -0.2330 -1.2527  0.2646
17411TIP3   OH273723   1.632   0.962  12.472 -0.2976 -0.8642 -0.4059
17411TIP3    H173724   1.609   0.894  12.408  0.3354 -1.6585  0.2002
17411TIP3    H273725   1.571   0.948  12.545 -2.7416  1.6000 -1.7820
17412TIP3   OH273726   3.056   4.762   4.140  0.1738 -0.3954 -0.3875
17412TIP3    H173727   3.142   4.721   4.147 -0.4976 -1.5880  1.7074
17412TIP3    H273728   2.997   4.691   4.118 -0.7439 -0.2957  1.5368
17413TIP3   OH273729   0.595   6.753   2.003 -0.4266 -0.3216 -0.8174
17413TIP3    H173730   0.579   6.660   2.019  0.3171 -0.5744 -1.4850
17413TIP3    H273731   0.515   6.785   1.962 -1.1463 -0.3803  0.4961
17414TIP3   OH273732   4.558   0.346   1.510 -0.1100  0.1062 -0.1089
17414TIP3    H173733   4.629   0.345   1.446 -0.2522  0.7093 -0.2839
17414TIP3    H273734   4.597   0.309   1.589 -0.1410 -1.3848 -0.7410
17415TIP3   OH273735   1.215   2.283   0.530  0.1867  0.3038  0.0265
17415TIP3    H173736   1.295   2.317   0.570 -0.2976  0.7067  0.6750
17415TIP3    H273737   1.207   2.331   0.447  0.3348  0.6404  0.2048
17416TIP3   OH273738   2.132   1.426  11.800 -0.2592  0.2467 -0.0991
17416TIP3    H173739   2.162   1.473  11.722 -1.3079  0.1833 -0.5596
17416TIP3    H273740   2.208   1.374  11.827  0.6035  1.4456 -0.1570
17417TIP3   OH273741   1.759   0.450  10.417 -0.5062 -0.7346 -0.1829
17417TIP3    H173742   1.847   0.420  10.439 -0.9201  0.0934  3.2503
17417TIP3    H273743   1.702   0.381  10.451 -1.2358  0.0572  0.2339
17418TIP3   OH273744   4.650   1.286  12.532 -0.2346 -0.0204  0.2344
17418TIP3    H173745   4.694   1.369  12.552 -0.6222 -0.2418  2.1360
17418TIP3    H273746   4.665   1.274  12.438  0.4955  1.8030  0.0706
17419TIP3   OH273747   0.619   3.764   3.907  0.2794 -0.7786  0.4461
17419TIP3    H173748   0.540   3.733   3.951 -0.2015  0.9416  0.8774
17419TIP3    H273749   0.587   3.830   3.845  1.4168  0.2821  0.9578
17420TIP3   OH273750   2.958   2.277  16.240 -0.1569 -0.0359 -0.1098
17420TIP3    H173751   3.042   2.234  16.252 -0.8106 -1.9844 -1.8368
17420TIP3    H273752   2.897   2.226  16.293 -0.4470  0.6749  0.2543
17421TIP3   OH273753   1.602   5.105  14.818  0.3650 -0.6271  0.6659
17421TIP3    H173754   1.679   5.129  14.766  0.4724  0.8536  1.4669
17421TIP3    H273755   1.546   5.058  14.756  0.5727  0.9261 -0.7719
17422TIP3   OH273756   2.384   1.035  12.199  0.1946  0.0160  0.1586
17422TIP3    H173757   2.318   1.078  12.253  0.4489 -0.0886  0.5569
17422TIP3    H273758   2.347   0.949  12.180  0.7329 -0.5171  1.4143
17423TIP3   OH273759   2.056   6.708   5.960  0.0775 -0.1502  0.2653
17423TIP3    H173760   2.078   6.760   6.037 -0.6427  2.3073 -1.0676
17423TIP3    H273761   1.968   6.674   5.978 -0.0267  0.2905  0.5908
17424TIP3   OH273762   6.523   3.302   4.548 -0.0929 -0.3850  0.0402
17424TIP3    H173763   6.507   3.388   4.585  0.3887 -0.8362  1.3716
17424TIP3    H273764   6.487   3.306   4.460  0.0552  1.2126  0.0303
17425TIP3   OH273765   4.496   6.522   4.688  0.2574 -0.5391 -0.1011
17425TIP3    H173766   4.554   6.448   4.708  0.7600 -0.5204 -1.3877
17425TIP3    H273767   4.423   6.483   4.641 -0.6217 -0.5067  1.1935
17426TIP3   OH273768   3.692   0.672  10.893 -0.0222 -0.6209  0.2725
17426TIP3    H173769   3.727   0.741  10.836 -1.1888 -0.1660  0.0953
17426TIP3    H273770   3.683   0.596  10.835  0.4890 -0.6882  0.2767
17427TIP3   OH273771   3.123   5.361  16.232  0.3029 -0.1644  0.2887
17427TIP3    H173772   3.109   5.395  16.320 -2.0233 -0.7067  0.1985
17427TIP3    H273773   3.105   5.435  16.174 -0.3866 -0.3779  0.2217
17428TIP3   OH273774   3.193   2.378   4.288  0.2700 -0.0210  0.2393
17428TIP3    H173775   3.201   2.414   4.200  0.7639 -0.4538  0.1000
17428TIP3    H273776   3.267   2.317   4.296 -0.6327 -1.1332  0.4068
17429TIP3   OH273777   2.685   4.063   5.655 -0.1201 -0.0475 -0.0611
17429TIP3    H173778   2.744   3.994   5.623  0.8441  0.6176  0.2441
17429TIP3    H273779   2.665   4.038   5.745 -0.1361 -0.1568 -0.0945
17430TIP3   OH273780   1.412   0.640   4.260  0.4366  0.0280 -0.1519
17430TIP3    H173781   1.429   0.682   4.176 -1.5681  1.6375  0.1832
17430TIP3    H273782   1.490   0.660   4.313  0.4430  1.5070 -0.6941
17431TIP3   OH273783   3.623   3.788  11.786  0.4083  0.1833 -0.2295
17431TIP3    H173784   3.614   3.795  11.881 -0.4240  2.1347 -0.4090
17431TIP3    H273785   3.596   3.698  11.766 -1.6134  0.4262  1.1499
17432TIP3   OH273786   0.119   6.719  16.858 -0.0791 -0.0029 -0.0891
17432TIP3    H173787   0.061   6.733  16.784 -1.4133  0.6451  1.0213
17432TIP3    H273788   0.062   6.684  16.927  1.5882 -3.0456 -0.1005
17433TIP3   OH273789   6.074   3.012  16.431  0.2077 -0.4967 -0.2106
17433TIP3    H173790   6.033   3.084  16.480 -1.4258 -0.9182 -0.8632
17433TIP3    H273791   6.115   2.958  16.498 -0.9696 -0.4260  0.6133
17434TIP3   OH273792   6.245   3.948  14.808 -0.1785  0.0579 -0.1046
17434TIP3    H173793   6.179   4.015  14.829  0.3739  0.2810  0.9743
17434TIP3    H273794   6.297   3.940  14.888  0.3290 -1.0201 -0.5295
17435TIP3   OH273795   4.724   1.793   0.980  0.0965  0.2847 -0.6792
17435TIP3    H173796   4.767   1.844   0.913 -0.3524  0.8524 -0.5413
17435TIP3    H273797   4.672   1.856   1.030 -1.3534 -0.4398 -1.1903
17436TIP3   OH273798   5.218   0.118   4.243  0.3460  0.0958 -0.2846
17436TIP3    H173799   5.155   0.052   4.212 -0.6430 -0.1591  2.0709
17436TIP3    H273800   5.275   0.071   4.303  0.5555  1.0808  0.3152
17437TIP3   OH273801   6.639   0.753  11.676  0.0759 -0.6788 -0.4956
17437TIP3    H173802   6.616   0.843  11.700  0.3937 -0.4220 -1.1408
17437TIP3    H273803   6.698   0.723  11.746  1.6063  0.3224 -1.3178
17438TIP3   OH273804   3.892   4.580  11.742  0.5854 -0.1583  0.2119
17438TIP3    H173805   3.863   4.666  11.771 -1.2277 -0.1392 -1.4394
17438TIP3    H273806   3.843   4.519  11.796 -0.1895 -0.1179 -0.4189
17439TIP3   OH273807   4.164   5.248   0.489  0.0248  0.1728  0.0684
17439TIP3    H173808   4.109   5.239   0.411  1.9518 -0.1632 -1.3307
17439TIP3    H273809   4.185   5.158   0.513 -1.5801  0.2020  1.8219
17440TIP3   OH273810   4.462   5.558  16.902 -0.3543 -0.3248  0.2692
17440TIP3    H173811   4.482   5.481  16.955  0.1104 -0.2779  0.1643
17440TIP3    H273812   4.491   5.535  16.814  0.3144  0.1778  0.3479
17441TIP3   OH273813   5.837   5.366   2.533 -0.2324 -0.2051 -0.1655
17441TIP3    H173814   5.889   5.314   2.471 -0.0432 -0.2458  0.0269
17441TIP3    H273815   5.833   5.453   2.493  1.2344  0.1992  0.5179
17442TIP3   OH273816   3.615   1.820   1.803  0.3243  0.5337 -0.3358
17442TIP3    H173817   3.627   1.907   1.841 -0.0811  0.3533  0.2053
17442TIP3    H273818   3.538   1.829   1.747 -0.1088  0.3541  0.2311
17443TIP3   OH273819   0.620   5.682   1.723  0.5643 -0.4146  0.4737
17443TIP3    H173820   0.707   5.718   1.739  0.9989 -1.1261 -0.1919
17443TIP3    H273821   0.628   5.589   1.747 -0.4224 -0.1845  1.8086
17444TIP3   OH273822   1.428   2.544  11.654  0.2368 -0.2294 -0.0730
17444TIP3    H173823   1.515   2.545  11.614  0.5581  1.0885  0.6082
17444TIP3    H273824   1.371   2.586  11.589  0.5870  1.1026  0.4652
17445TIP3   OH273825   6.080   6.148   5.159 -0.6906 -0.4073  0.1973
17445TIP3    H173826   6.056   6.210   5.089 -1.0589 -1.4297 -0.6036
17445TIP3    H273827   6.115   6.072   5.113 -1.1751 -1.2045  1.1112
17446TIP3   OH273828   4.179   3.188  11.581  0.9190  0.5627  0.0260
17446TIP3    H173829   4.192   3.098  11.553 -0.1985 -0.0106  1.2976
17446TIP3    H273830   4.261   3.211  11.626  1.5710  0.5181 -1.1108
17447TIP3   OH273831   3.983   4.528   3.606 -0.1879 -0.0362  0.2162
17447TIP3    H173832   3.917   4.558   3.668  0.8056 -2.0154  2.3688
17447TIP3    H273833   4.066   4.542   3.652  0.6705 -0.5009 -1.1412
17448TIP3   OH273834   1.038   6.789   5.802  0.5684 -0.0382  0.2166
17448TIP3    H173835   1.090   6.842   5.862  0.6143  0.6245 -0.4003
17448TIP3    H273836   1.069   6.814   5.715 -0.0054 -0.4584 -0.1139
17449TIP3   OH273837   3.414   4.341   0.730 -0.0527 -0.3227 -0.0966
17449TIP3    H173838   3.466   4.420   0.714  0.1246 -0.4454 -0.1319
17449TIP3    H273839   3.468   4.269   0.697  0.2432 -0.5632  0.8731
17450TIP3   OH273840   4.552   1.193  16.646  0.1813  0.5653 -0.4473
17450TIP3    H173841   4.642   1.175  16.672 -0.1657 -2.1040 -0.7679
17450TIP3    H273842   4.559   1.236  16.561  1.1492  1.5226  0.1004
17451TIP3   OH273843   4.365   0.772  13.988 -0.3045 -0.1713 -0.0608
17451TIP3    H173844   4.440   0.720  14.016  0.2761  0.2663 -0.7624
17451TIP3    H273845   4.392   0.862  14.002 -1.3457 -0.0420  1.2463
17452TIP3   OH273846   0.094   6.774  16.333 -0.0172  0.0414 -0.0382
17452TIP3    H173847   0.029   6.759  16.264  0.5532 -1.8705 -0.2109
17452TIP3    H273848   0.129   6.861  16.314 -0.4512 -0.1093 -1.6822
17453TIP3   OH273849   4.902   5.196  17.173 -0.5674 -0.8771 -0.2805
17453TIP3    H173850   4.965   5.262  17.146  1.6709 -2.1435  1.4164
17453TIP3    H273851   4.877   5.222  17.262 -4.8622  1.1720 -1.7899
17454TIP3   OH273852   0.770   5.072  13.408  0.4756  0.5278 -0.7796
17454TIP3    H173853   0.721   5.017  13.469 -0.5722  0.5518 -1.5702
17454TIP3    H273854   0.718   5.152  13.402  0.1650  0.2388 -2.2475
17455TIP3   OH273855   5.098   0.558   3.134  0.0727  0.0979  0.3196
17455TIP3    H173856   5.111   0.560   3.039 -0.7929 -1.5425  0.1229
17455TIP3    H273857   5.076   0.648   3.157  1.7953  0.8502 -0.7790
17456TIP3   OH273858   1.727   0.006   0.820 -0.1339 -0.1238 -0.1680
17456TIP3    H173859   1.761  -0.033   0.900 -1.9064 -1.6816 -0.0996
17456TIP3    H273860   1.697  -0.069   0.768 -1.3853  0.9971 -1.1517
17457TIP3   OH273861   1.282   0.421   5.825  0.0302 -0.4075  0.2315
17457TIP3    H173862   1.368   0.456   5.852 -0.5624  1.9340 -0.6810
17457TIP3    H273863   1.303   0.356   5.758  1.1203  0.0405  0.1107
17458TIP3   OH273864   0.070   0.005   5.973  0.1373 -0.1244  0.3167
17458TIP3    H173865   0.057  -0.028   5.884  1.9566  2.0231 -0.8304
17458TIP3    H273866  -0.016   0.039   5.999 -0.8001 -2.1529  0.0607
17459TIP3   OH273867   4.799   0.750  11.156 -0.0472 -0.2740  0.2395
17459TIP3    H173868   4.766   0.799  11.081 -1.9187 -0.9741  0.5449
17459TIP3    H273869   4.809   0.815  11.225 -0.9500 -0.0439  0.1668
17460TIP3   OH273870   3.878   5.217  13.150  0.4346  0.0807 -0.1928
17460TIP3    H173871   3.852   5.201  13.059  0.7888 -1.6737 -0.0343
17460TIP3    H273872   3.973   5.205  13.150  0.3745 -0.4712  0.4864
17461TIP3   OH273873   4.674   2.666  13.468 -0.2258 -0.2751 -0.0865
17461TIP3    H173874   4.715   2.630  13.547  0.2827 -1.6530 -0.9400
17461TIP3    H273875   4.610   2.600  13.443 -0.9311  0.5214 -0.3988
17462TIP3   OH273876   4.042   5.959   1.796  0.5544  0.0318  0.2079
17462TIP3    H173877   4.018   6.045   1.761  0.2675  0.4549  1.4012
17462TIP3    H273878   4.104   5.923   1.732  1.7371  1.7054  0.3596
17463TIP3   OH273879   4.559   4.370  14.853 -0.5397  0.1356 -0.0754
17463TIP3    H173880   4.611   4.397  14.777 -1.0120 -0.4271 -0.5989
17463TIP3    H273881   4.485   4.323  14.817 -2.1425  2.0174  0.5869
17464TIP3   OH273882   2.338   4.102   5.114  0.3670  0.0622 -0.6440
17464TIP3    H173883   2.359   4.192   5.138  0.2203  0.1237 -0.7427
17464TIP3    H273884   2.264   4.110   5.054  2.1447  0.0844 -2.9723
17465TIP3   OH273885   2.925   4.996  14.257 -0.4722 -0.0312 -0.1326
17465TIP3    H173886   3.003   5.021  14.207 -0.8300  1.2550 -0.0754
17465TIP3    H273887   2.853   5.003  14.194 -0.5931 -0.9566 -0.1136
17466TIP3   OH273888   6.205   5.085   1.007 -0.3331  0.2171 -0.7118
17466TIP3    H173889   6.293   5.089   1.044  0.4593 -1.6107 -2.2611
17466TIP3    H273890   6.149   5.125   1.074  1.4758  0.2155  0.8776
17467TIP3   OH273891   0.056   2.634  12.658 -0.0311 -0.3494  0.2888
17467TIP3    H173892   0.104   2.610  12.737  0.5059 -2.2739 -0.5531
17467TIP3    H273893   0.021   2.551  12.625  0.7342  0.2004 -2.1223
17468TIP3   OH273894   6.550   1.531  16.742 -0.0320 -0.5088  0.2502
17468TIP3    H173895   6.539   1.436  16.748  0.2758 -0.4723  2.0125
17468TIP3    H273896   6.528   1.563  16.829  0.0923  1.0287 -0.2533
17469TIP3   OH273897   3.053   1.945   4.553 -0.4787 -0.5130 -0.0683
17469TIP3    H173898   2.975   1.995   4.531 -0.0772  0.6533  1.0243
17469TIP3    H273899   3.125   2.008   4.545  0.4287 -1.6405 -1.3758
17470TIP3   OH273900   1.589   1.500   4.286  0.6929  0.5657 -0.0930
17470TIP3    H173901   1.574   1.584   4.329 -1.0230 -0.3726  1.3140
17470TIP3    H273902   1.598   1.521   4.193 -1.3137  2.1673  0.0064
17471TIP3   OH273903   6.205   5.627   2.359 -0.4564  0.3414  0.0440
17471TIP3    H173904   6.254   5.545   2.361 -1.7756 -0.4960 -0.6260
17471TIP3    H273905   6.215   5.658   2.269 -1.4177 -0.0105 -0.1912
17472TIP3   OH273906   4.164   0.157   1.911 -0.3526 -0.4792  0.4058
17472TIP3    H173907   4.209   0.104   1.845  1.8285  0.2693  1.2190
17472TIP3    H273908   4.209   0.241   1.909 -0.0038 -0.5204  3.0142
17473TIP3   OH273909   0.726   1.888  14.323  0.6904  0.2500  0.1056
17473TIP3    H173910   0.712   1.846  14.408  1.9318 -1.6313 -0.5479
17473TIP3    H273911   0.744   1.816  14.263 -0.5993  1.4905 -1.8888
17474TIP3   OH273912   3.425   3.710   4.421  0.2421 -0.2108 -1.0948
17474TIP3    H173913   3.339   3.677   4.445 -0.6665  2.2092 -0.7579
17474TIP3    H273914   3.428   3.703   4.326 -0.0662 -0.8297 -1.0663
17475TIP3   OH273915   1.694   5.676  15.834 -0.2655  0.1191 -0.1373
17475TIP3    H173916   1.755   5.604  15.821 -0.3559  0.0769 -0.3354
17475TIP3    H273917   1.641   5.677  15.754 -1.4863 -0.7588  0.6293
17476TIP3   OH273918   5.949   1.728   0.809  0.5503  0.1948 -0.0906
17476TIP3    H173919   5.995   1.812   0.815  1.1579  0.0859 -2.2263
17476TIP3    H273920   5.920   1.724   0.717 -1.0968 -1.1103  0.4447
17477TIP3   OH273921   4.155   1.817   5.673 -0.3421  0.5904  0.1692
17477TIP3    H173922   4.210   1.847   5.745  1.6657 -1.1170 -0.5518
17477TIP3    H273923   4.066   1.823   5.707  0.4953  0.2039  2.6495
17478TIP3   OH273924   1.744   4.158  13.141  0.2763  0.3297 -0.6522
17478TIP3    H173925   1.786   4.130  13.223  2.8393  0.0349 -1.9908
17478TIP3    H273926   1.701   4.240  13.164 -0.2307 -0.4046  1.2871
17479TIP3   OH273927   5.786   5.487   1.087 -0.0616 -0.0134 -0.6623
17479TIP3    H173928   5.841   5.502   1.010 -0.2367  0.2094 -0.7465
17479TIP3    H273929   5.792   5.569   1.135 -1.2379  0.4375 -1.2541
17480TIP3   OH273930   3.297   4.589   4.160  0.5054  0.5035 -0.3877
17480TIP3    H173931   3.358   4.543   4.102  1.5392  1.1913  0.1265
17480TIP3    H273932   3.318   4.556   4.248 -0.6800 -0.1245 -0.3130
17481TIP3   OH273933   2.461   0.684   3.469 -0.2418  0.0330  0.1054
17481TIP3    H173934   2.498   0.645   3.390  0.0948 -0.8367  0.6673
17481TIP3    H273935   2.507   0.640   3.541  1.9189  3.1421  0.8222
17482TIP3   OH273936   4.275   3.671  11.427  0.0072  0.3849  0.3849
17482TIP3    H173937   4.333   3.599  11.452  0.4144  0.9578  1.1388
17482TIP3    H273938   4.278   3.672  11.331 -1.1111 -1.4768  0.2774
17483TIP3   OH273939   6.288   5.404  11.179  0.2125  0.0546  0.0523
17483TIP3    H173940   6.369   5.454  11.187  0.5233 -0.0557 -1.9296
17483TIP3    H273941   6.229   5.460  11.129 -0.4487 -0.4345  0.2538
17484TIP3   OH273942   1.444   1.856  16.178  0.0622  0.1149 -0.3919
17484TIP3    H173943   1.390   1.878  16.102 -2.2665  1.0004  1.3941
17484TIP3    H273944   1.513   1.922  16.179  0.3749 -0.1573 -1.9183
17485TIP3   OH273945   1.478   0.897   0.935  0.0305 -0.4471  0.4233
17485TIP3    H173946   1.547   0.963   0.927 -1.0723  0.6224 -0.8311
17485TIP3    H273947   1.465   0.886   1.029  1.5239 -0.2795  0.6703
17486TIP3   OH273948   0.017   0.476   3.448 -0.2736 -0.3340 -0.1830
17486TIP3    H173949   0.100   0.481   3.495  0.1771 -1.9010 -0.7319
17486TIP3    H273950  -0.028   0.401   3.487 -1.3494  0.3644 -0.0377
17487TIP3   OH273951   4.258   1.801   3.198 -0.8642 -0.4372 -0.3478
17487TIP3    H173952   4.278   1.804   3.104 -0.2544  0.2006 -0.2069
17487TIP3    H273953   4.237   1.709   3.215  2.3882 -1.3237 -0.4370
17488TIP3   OH273954   0.697   1.411  11.358 -0.0284  0.3605 -0.1405
17488TIP3    H173955   0.635   1.353  11.312  0.0646 -0.4713  0.7428
17488TIP3    H273956   0.642   1.464  11.415 -0.0443  0.5700 -0.3512
17489TIP3   OH273957   5.909   6.153  11.707  0.2384 -0.0012 -0.2154
17489TIP3    H173958   5.939   6.112  11.625  0.3917  1.3613 -0.8703
17489TIP3    H273959   5.974   6.127  11.772  0.1997 -0.9825 -0.5414
17490TIP3   OH273960   4.796   4.715  12.822 -0.2232  0.7394  0.1995
17490TIP3    H173961   4.791   4.658  12.745 -0.0699 -0.9623  1.4147
17490TIP3    H273962   4.862   4.780  12.799 -0.7150  0.7217 -1.3835
17491TIP3   OH273963   0.674   2.018  14.096  0.0137  0.4231  0.5436
17491TIP3    H173964   0.649   2.111  14.092 -0.9232  0.1503 -0.4366
17491TIP3    H273965   0.693   2.003  14.188 -0.4456  1.4358  0.8272
17492TIP3   OH273966   6.108   1.943   2.887  0.4498  0.2543  0.2961
17492TIP3    H173967   6.130   2.025   2.932  2.1911  0.5904 -1.0753
17492TIP3    H273968   6.023   1.960   2.845 -1.0461  0.0589  3.0023
17493TIP3   OH273969   2.676   1.629   3.858  0.0638  0.0877 -0.1566
17493TIP3    H173970   2.709   1.633   3.948  0.8495  1.3193 -0.4714
17493TIP3    H273971   2.584   1.657   3.865 -0.0468 -0.3848  0.3340
17494TIP3   OH273972   5.671   6.784  13.708 -0.1600  0.0010  0.2520
17494TIP3    H173973   5.687   6.690  13.717  0.8802  0.3409  3.3040
17494TIP3    H273974   5.758   6.821  13.694 -0.6696  0.4867 -1.8685
17495TIP3   OH273975   3.258   5.715  10.716 -0.0344 -0.2975  0.3458
17495TIP3    H173976   3.335   5.697  10.661  0.3325  0.8780  0.4525
17495TIP3    H273977   3.215   5.789  10.674  0.0799  0.4231  1.4700
17496TIP3   OH273978   4.741   0.768   0.696  0.6160 -0.0433 -0.4279
17496TIP3    H173979   4.710   0.768   0.787 -1.1262  0.2014 -0.9905
17496TIP3    H273980   4.696   0.694   0.655  0.9087  0.2214 -1.2479
17497TIP3   OH273981   5.749   3.825  14.375  0.3547 -0.2328  0.0316
17497TIP3    H173982   5.684   3.833  14.446 -0.9303 -0.8590 -1.0402
17497TIP3    H273983   5.753   3.913  14.337 -2.4459 -0.8277 -2.0208
17498TIP3   OH273984   4.586   2.662  14.611 -0.1071  0.1188  0.5854
17498TIP3    H173985   4.678   2.679  14.632  0.0536 -0.1063  0.0808
17498TIP3    H273986   4.538   2.690  14.689  0.2464  1.7039  0.2688
17499TIP3   OH273987   0.755   3.330  10.460 -0.6891 -0.1254  0.1891
17499TIP3    H173988   0.758   3.422  10.432  0.3780  0.0928  0.9171
17499TIP3    H273989   0.831   3.321  10.518 -0.3831 -1.6450 -0.3933
17500TIP3   OH273990   5.189   5.446  15.804 -0.1657 -0.6067  0.1678
17500TIP3    H173991   5.157   5.403  15.884 -0.9680  0.0055  0.1847
17500TIP3    H273992   5.184   5.539  15.823  0.1406 -0.4677 -0.4124
17501TIP3   OH273993   4.534   5.392   3.842  0.0288 -0.3383  0.0174
17501TIP3    H173994   4.566   5.480   3.864 -1.1455  0.0388  0.2785
17501TIP3    H273995   4.614   5.341   3.830  0.7861  0.0833  2.5529
17502TIP3   OH273996   4.375   2.712  15.687 -0.5972  0.4743  0.4445
17502TIP3    H173997   4.302   2.745  15.636 -0.0872  1.5728  0.4008
17502TIP3    H273998   4.445   2.777  15.675  1.1314 -1.5359 -1.2292
17503TIP3   OH273999   3.100   4.342  12.493 -0.3452 -0.7001 -0.8232
17503TIP3    H174000   3.096   4.345  12.589  2.0813 -0.6878 -0.6685
17503TIP3    H274001   3.065   4.427  12.466 -1.3927 -0.8384  0.0120
17504TIP3   OH274002   5.059   5.329   4.682  0.4323 -0.2103  0.2454
17504TIP3    H174003   5.123   5.258   4.683 -1.4075 -1.9821  1.9705
17504TIP3    H274004   5.004   5.310   4.607  0.8856  0.3249 -0.2270
17505TIP3   OH274005   3.283   5.283   2.206 -0.1228  0.2196 -0.2739
17505TIP3    H174006   3.304   5.234   2.127  0.2937 -0.4980  0.2746
17505TIP3    H274007   3.194   5.256   2.228 -0.5569  1.0480 -0.9504
17506TIP3   OH274008   1.219   5.600   3.567  0.1929 -0.1321  0.0423
17506TIP3    H174009   1.217   5.526   3.506 -0.8458 -0.7728  0.8306
17506TIP3    H274010   1.269   5.569   3.642  1.0064  0.4763 -0.2297
17507TIP3   OH274011   6.309   5.563  13.864  0.3530  0.1794 -0.3779
17507TIP3    H174012   6.367   5.492  13.891 -1.0778 -0.4731  1.1657
17507TIP3    H274013   6.223   5.537  13.897 -0.2538  2.5745  0.1131
17508TIP3   OH274014   1.458   3.985   3.901 -0.4878 -0.1440 -0.5766
17508TIP3    H174015   1.542   4.009   3.860 -0.4846 -2.9625 -2.5114
17508TIP3    H274016   1.392   4.010   3.836 -1.0898  0.7238  0.3255
17509TIP3   OH274017   2.116   0.010  11.443  0.3667  0.5597 -0.1931
17509TIP3    H174018   2.079   0.092  11.474  0.5793  0.1512  1.2184
17509TIP3    H274019   2.131  -0.042  11.523  0.7476 -0.6290 -1.0010
17510TIP3   OH274020   0.974   2.279  14.305 -0.7701 -0.2665  0.0221
17510TIP3    H174021   0.893   2.314  14.269 -1.0329  0.0820  0.9247
17510TIP3    H274022   1.031   2.355  14.315 -0.3261 -0.5101 -0.6131
17511TIP3   OH274023   1.133   2.290  14.007  0.3268  0.1755  0.0914
17511TIP3    H174024   1.220   2.328  14.024  0.6915  0.3785 -1.9165
17511TIP3    H274025   1.073   2.364  14.014  0.5285  0.3459  0.0455
17512TIP3   OH274026   0.501   6.835  15.628  0.4702  0.5865  0.4328
17512TIP3    H174027   0.514   6.779  15.551 -0.0036 -0.7326  1.2876
17512TIP3    H274028   0.572   6.810  15.687  0.5797  1.2996  0.6127
17513TIP3   OH274029   1.707   6.565  11.509 -0.2804 -0.2532  0.4765
17513TIP3    H174030   1.729   6.644  11.458  0.0230 -0.4541  0.2910
17513TIP3    H274031   1.735   6.493  11.453 -2.2421 -0.5603 -0.1722
17514TIP3   OH274032   3.902   6.616   1.559 -0.4282  0.0886 -0.1845
17514TIP3    H174033   3.985   6.598   1.515 -0.2639 -3.6958  1.2884
17514TIP3    H274034   3.927   6.652   1.644 -0.4228  0.8699 -0.5105
17515TIP3   OH274035   5.225   3.271  12.975 -0.6562 -0.1816 -0.0608
17515TIP3    H174036   5.178   3.340  13.022  2.0928  0.0686  2.6390
17515TIP3    H274037   5.211   3.292  12.882 -3.9625  1.0227  0.5486
17516TIP3   OH274038   3.825   5.025  16.495 -0.2132 -0.9043 -0.2194
17516TIP3    H174039   3.838   4.998  16.585 -2.8709 -1.8583 -0.0341
17516TIP3    H274040   3.813   4.944  16.446  0.7586 -0.3875 -1.4035
17517TIP3   OH274041   0.775   5.413  16.135 -0.2652 -0.3698 -0.4986
17517TIP3    H174042   0.802   5.412  16.043  0.2578 -1.7164 -0.3515
17517TIP3    H274043   0.856   5.394  16.183 -0.7405 -0.7078  0.1784
17518TIP3   OH274044   5.189   3.614  15.940  0.4430  0.1632  0.2625
17518TIP3    H174045   5.266   3.671  15.945  1.5300 -1.2831  0.7277
17518TIP3    H274046   5.199   3.554  16.014 -2.3635  1.3350  1.7439
17519TIP3   OH274047   3.158   1.889  12.685  0.0412 -0.4733 -0.0552
17519TIP3    H174048   3.236   1.943  12.681 -1.6653  2.1275 -0.9468
17519TIP3    H274049   3.119   1.908  12.770 -1.2171  0.7827 -0.8638
17520TIP3   OH274050   6.442   3.418  14.151 -0.0376 -0.4287 -0.2537
17520TIP3    H174051   6.371   3.400  14.213  0.3670 -0.9653  0.0665
17520TIP3    H274052   6.438   3.347  14.087 -0.4027  0.0803 -0.8019
17521TIP3   OH274053   0.995   2.633   4.493 -0.0883 -0.0881 -0.3966
17521TIP3    H174054   0.982   2.550   4.538  0.2452 -0.6297 -1.2753
17521TIP3    H274055   1.083   2.627   4.456 -0.0655  0.6500 -0.4763
17522TIP3   OH274056   4.692   6.493  13.657  0.4362  0.3837  0.0748
17522TIP3    H174057   4.739   6.530  13.582  0.2824 -1.5255 -1.0490
17522TIP3    H274058   4.702   6.398  13.646 -2.1316 -0.0437  0.7925
17523TIP3   OH274059   3.818   5.306   3.233  0.3023 -0.3685 -0.2677
17523TIP3    H174060   3.761   5.334   3.161  0.7718 -0.6317 -0.7482
17523TIP3    H274061   3.886   5.373   3.237 -1.3474  1.3549  1.9452
17524TIP3   OH274062   3.009   5.831   4.914  0.1891 -0.5427  0.4431
17524TIP3    H174063   2.975   5.867   4.833 -0.4592 -1.9804  0.0509
17524TIP3    H274064   3.089   5.785   4.889  0.7820  0.2345  0.8683
17525TIP3   OH274065   4.692   3.915   3.066 -0.1015  0.3579  0.3091
17525TIP3    H174066   4.603   3.888   3.089 -0.3091 -0.4027 -1.2518
17525TIP3    H274067   4.682   3.966   2.985  0.9756 -0.9198 -0.6903
17526TIP3   OH274068   0.883   1.706   4.534  0.6355 -0.6319  0.8884
17526TIP3    H174069   0.810   1.700   4.595  2.1888 -1.9310  2.7375
17526TIP3    H274070   0.905   1.615   4.513 -0.1910 -0.2555 -2.1691
17527TIP3   OH274071   1.328   1.897  12.218  0.2148 -0.1835  0.0385
17527TIP3    H174072   1.401   1.957  12.231 -0.3176  0.3394  0.6318
17527TIP3    H274073   1.335   1.833  12.289 -1.0456  1.0272  1.2992
17528TIP3   OH274074   4.919   3.548  14.916  0.7075  0.6193 -0.0776
17528TIP3    H174075   4.993   3.579  14.968  0.0611  1.9834  0.0672
17528TIP3    H274076   4.907   3.614  14.849 -2.1387  2.0190  1.5926
17529TIP3   OH274077   2.121   4.412   0.725 -0.2147 -0.7413  0.9481
17529TIP3    H174078   2.086   4.501   0.729 -2.1921 -1.4458  0.3040
17529TIP3    H274079   2.160   4.405   0.638 -0.2473 -0.5713  0.9203
17530TIP3   OH274080   2.443   3.730   3.450  0.1244 -0.0530 -0.3282
17530TIP3    H174081   2.410   3.695   3.367  1.0232  0.9060 -1.1212
17530TIP3    H274082   2.368   3.729   3.508 -0.8277  0.3107 -1.5125
17531TIP3   OH274083   1.648   0.970   4.792 -0.2838  0.9417  0.1978
17531TIP3    H174084   1.737   1.005   4.796 -0.9015  2.4189  1.9186
17531TIP3    H274085   1.654   0.885   4.834  0.4103  0.7732 -0.2190
17532TIP3   OH274086   6.285   0.083   4.152  0.2500  0.4314  0.2787
17532TIP3    H174087   6.230   0.086   4.230  0.3552 -1.4581  0.4601
17532TIP3    H274088   6.364   0.037   4.180  1.0842  1.3399 -0.4967
17533TIP3   OH274089   4.857   6.432   1.131 -0.1027  0.4721  0.3628
17533TIP3    H174090   4.919   6.359   1.127 -1.7597 -1.0281  1.2501
17533TIP3    H274091   4.873   6.481   1.050  0.9778 -0.9021 -0.2917
17534TIP3   OH274092   2.334   2.685   5.681 -0.3580  0.0975  0.7524
17534TIP3    H174093   2.334   2.775   5.713 -0.5312  0.1231  0.6766
17534TIP3    H274094   2.421   2.652   5.705 -0.0513  0.4874  0.2074
17535TIP3   OH274095   2.192   3.866   0.400 -0.1634  0.1600  0.0275
17535TIP3    H174096   2.223   3.800   0.338  0.0284  0.9389 -0.7160
17535TIP3    H274097   2.096   3.861   0.393 -0.2229 -1.2226  1.2506
17536TIP3   OH274098   6.706   5.712  15.740  0.0369  0.2096  0.1113
17536TIP3    H174099   6.801   5.718  15.737  0.0159  0.3814 -0.4723
17536TIP3    H274100   6.686   5.623  15.710 -0.0255  0.6110 -1.1228
17537TIP3   OH274101   4.545   0.492   0.806  0.0422  0.0710  0.2090
17537TIP3    H174102   4.518   0.502   0.897  1.2724  1.1881  0.4803
17537TIP3    H274103   4.630   0.450   0.810 -0.9679 -2.1759 -0.5767
17538TIP3   OH274104   6.800   6.233   5.748  0.0783  0.4557  0.0207
17538TIP3    H174105   6.801   6.149   5.702  2.0246 -0.3430  1.4120
17538TIP3    H274106   6.713   6.237   5.789 -0.4368 -0.3474 -0.9432
17539TIP3   OH274107   4.652   5.424  16.767 -0.2421 -0.7697 -0.2092
17539TIP3    H174108   4.676   5.399  16.678  0.9469  0.3734 -0.2402
17539TIP3    H274109   4.728   5.401  16.820  1.2601  3.0779 -0.3333
17540TIP3   OH274110   3.693   2.676   1.002  0.3511  0.8060 -1.1096
17540TIP3    H174111   3.713   2.599   0.948  1.4641  1.1971 -1.2958
17540TIP3    H274112   3.778   2.718   1.015 -0.2153  1.9205 -0.8856
17541TIP3   OH274113   5.483   4.060  16.716 -0.2148  0.2320 -0.8791
17541TIP3    H174114   5.450   4.141  16.753 -0.4647 -0.6662  0.9543
17541TIP3    H274115   5.411   3.997  16.726  0.7400 -0.7975 -0.1781
17542TIP3   OH274116   6.421   5.712   1.444 -0.1982  0.8412 -0.0153
17542TIP3    H174117   6.336   5.681   1.474  0.8857 -0.9631  1.4242
17542TIP3    H274118   6.462   5.636   1.403  0.8911  1.5469 -0.3060
17543TIP3   OH274119   4.559   1.140  16.138 -0.6914  0.4066  0.2660
17543TIP3    H174120   4.495   1.209  16.154 -0.1227  0.7989  0.9176
17543TIP3    H274121   4.596   1.121  16.224 -0.4760 -0.3533  0.0163
17544TIP3   OH274122   3.935   4.863  12.976  0.0702 -0.5654  0.0159
17544TIP3    H174123   3.991   4.818  13.039  0.7012  0.5457  0.2745
17544TIP3    H274124   3.991   4.930  12.937 -1.1921  0.9747  0.6991
17545TIP3   OH274125   1.440   0.617   0.536 -0.0816 -0.3250  0.3577
17545TIP3    H174126   1.502   0.635   0.607  0.4534  0.5360 -0.3098
17545TIP3    H274127   1.495   0.607   0.459 -0.7593  0.2796 -0.2165
17546TIP3   OH274128   1.300   5.913   4.854  0.3961 -0.3942 -0.1845
17546TIP3    H174129   1.290   5.954   4.941 -1.0312  0.7967 -0.8525
17546TIP3    H274130   1.288   5.819   4.871 -2.5881  0.0145  0.6268
17547TIP3   OH274131   3.564   0.291   6.081  0.2751  0.0878 -0.2905
17547TIP3    H174132   3.594   0.268   6.169 -1.3404 -1.5013 -0.1117
17547TIP3    H274133   3.469   0.276   6.083  0.0570  1.0002 -2.0172
17548TIP3   OH274134   4.002   5.272   0.845  0.3617 -0.2775 -0.0195
17548TIP3    H174135   4.055   5.349   0.865 -0.9045  0.6554 -0.1567
17548TIP3    H274136   3.942   5.265   0.919 -0.0473 -0.6700 -0.3847
17549TIP3   OH274137   3.245   6.235   1.572 -0.6445 -0.0982 -0.9639
17549TIP3    H174138   3.261   6.211   1.480 -0.0475 -0.7063 -0.7151
17549TIP3    H274139   3.282   6.162   1.622  0.1072  0.7872 -0.2038
17550TIP3   OH274140   1.323   3.338  14.033  0.2805  0.4412  0.2025
17550TIP3    H174141   1.323   3.261  13.976 -1.0372  0.4125  0.2063
17550TIP3    H274142   1.286   3.306  14.115 -1.7734  1.3820 -0.2864
17551TIP3   OH274143   0.885   1.863   4.999  0.3968  0.3400  0.6643
17551TIP3    H174144   0.794   1.854   4.970  0.8621  2.1069 -1.6151
17551TIP3    H274145   0.891   1.954   5.028  1.1350 -0.1493  2.1387
17552TIP3   OH274146   1.939   0.583  10.957 -0.5450  0.2403  0.0185
17552TIP3    H174147   1.865   0.640  10.977  0.2097  0.9668  0.7793
17552TIP3    H274148   2.015   0.629  10.992  0.3340 -0.2788 -1.1419
17553TIP3   OH274149   2.675   6.194   1.923 -0.0450 -0.1167  0.0485
17553TIP3    H174150   2.706   6.268   1.871  0.1516  0.3306  0.7976
17553TIP3    H274151   2.748   6.172   1.980 -0.8079  0.4203  1.2550
17554TIP3   OH274152   2.133   0.934   0.096 -0.1128 -0.0910  0.2638
17554TIP3    H174153   2.196   0.978   0.039  0.7203  0.3596  1.4986
17554TIP3    H274154   2.070   1.002   0.120 -1.6089 -0.6967 -1.5648
17555TIP3   OH274155   6.199   5.337  15.485  0.3891 -0.4368 -1.1384
17555TIP3    H174156   6.229   5.256  15.444  0.5512 -0.3962 -1.1014
17555TIP3    H274157   6.117   5.358  15.441 -0.4703 -1.4599 -0.0995
17556TIP3   OH274158   1.699   4.221  16.553  0.1796  0.0117 -0.0108
17556TIP3    H174159   1.658   4.306  16.536  1.6667  0.8476  0.3869
17556TIP3    H274160   1.631   4.157  16.531 -0.4142  1.2348 -2.0326
17557TIP3   OH274161   3.095   4.366   2.004 -0.1296  0.1953  0.1792
17557TIP3    H174162   3.091   4.395   1.913 -0.2024 -0.5941 -0.0707
17557TIP3    H274163   3.009   4.389   2.040 -0.7265 -1.0122 -0.4224
17558TIP3   OH274164   0.292   1.458  12.560  0.7057 -0.0757 -0.1934
17558TIP3    H174165   0.292   1.525  12.629 -3.7156 -0.7863  0.8142
17558TIP3    H274166   0.303   1.508  12.479 -0.3498  1.6527  0.6594
17559TIP3   OH274167   5.344   4.837  12.322  0.1633 -0.1342 -0.4453
17559TIP3    H174168   5.271   4.823  12.382  0.6435  1.1786  0.4992
17559TIP3    H274169   5.343   4.932  12.306  1.4845 -0.1383 -0.6301
17560TIP3   OH274170   1.064   5.978  11.635  0.1251  0.2147 -0.1102
17560TIP3    H174171   1.020   5.964  11.552  1.1934  1.1850 -0.8739
17560TIP3    H274172   1.077   6.073  11.640  0.5563  0.1223  0.9007
17561TIP3   OH274173   6.253   1.361  17.100  0.5704  0.0171 -0.0306
17561TIP3    H174174   6.231   1.383  17.191  1.7656  0.4453  0.1762
17561TIP3    H274175   6.178   1.311  17.069 -0.3197  0.7594  0.8616
17562TIP3   OH274176   0.821   1.718   3.266  0.1357  0.3034 -0.3378
17562TIP3    H174177   0.910   1.716   3.230  0.5801  1.4041  0.6576
17562TIP3    H274178   0.766   1.745   3.193  0.1435 -3.0471 -1.7847
17563TIP3   OH274179   1.732   1.927  10.574 -0.1672 -0.1720 -0.0557
17563TIP3    H174180   1.775   1.975  10.645  0.6185 -1.0823  0.1000
17563TIP3    H274181   1.787   1.943  10.497 -0.7129  0.3617 -0.3428
17564TIP3   OH274182   5.045   1.565   4.872 -0.3016 -0.0865 -0.1265
17564TIP3    H174183   5.140   1.561   4.878 -0.3807 -0.9298  0.9082
17564TIP3    H274184   5.014   1.545   4.961 -1.4557 -1.0819 -0.7158
17565TIP3   OH274185   3.711   0.438   4.135  0.0373 -0.5671 -0.2175
17565TIP3    H174186   3.627   0.456   4.094  0.3304 -5.0486 -3.6100
17565TIP3    H274187   3.705   0.346   4.162  3.5365 -0.8219  0.1535
17566TIP3   OH274188   1.138   1.022  10.921  0.4971  0.1517  0.9350
17566TIP3    H174189   1.199   0.952  10.943  1.2345  0.4883  0.0106
17566TIP3    H274190   1.138   1.026  10.826  0.2602  1.2229  0.9620
17567TIP3   OH274191   5.454   0.170   2.684 -0.5114 -0.1087  0.0172
17567TIP3    H174192   5.362   0.194   2.671 -0.3406  0.2736 -0.5112
17567TIP3    H274193   5.502   0.224   2.621  0.0671 -0.3737  0.2260
17568TIP3   OH274194   2.472   3.944   0.467 -0.2982  0.4031  0.8414
17568TIP3    H174195   2.431   3.870   0.510 -1.3823  0.8824  0.6749
17568TIP3    H274196   2.506   3.909   0.385 -0.5179  0.0349  0.9075
17569TIP3   OH274197   4.454   3.183   1.083  0.0109  0.0509  0.1144
17569TIP3    H174198   4.499   3.107   1.120  0.7594  0.7515  0.6742
17569TIP3    H274199   4.484   3.257   1.136 -1.8742  0.5390  0.5645
17570TIP3   OH274200   5.512   4.513   4.213 -0.4709  0.6804  0.1582
17570TIP3    H174201   5.598   4.538   4.245 -0.1173  0.6885 -0.7598
17570TIP3    H274202   5.526   4.428   4.171 -0.4783  1.5426 -1.7053
17571TIP3   OH274203   4.823   2.950   0.508  0.2570  0.1082 -0.1128
17571TIP3    H174204   4.898   2.907   0.550  2.0779  0.4140 -2.7859
17571TIP3    H274205   4.753   2.885   0.512  1.1777 -0.8647  0.9840
17572TIP3   OH274206   3.194   5.930  16.775 -0.5255 -0.5247 -0.3081
17572TIP3    H174207   3.213   5.970  16.690 -1.1116  1.2088  0.3293
17572TIP3    H274208   3.168   5.840  16.754 -1.2006  0.0291 -2.0176
17573TIP3   OH274209   1.234   0.747  10.515  0.7447  0.1913 -0.2669
17573TIP3    H174210   1.255   0.658  10.544  1.2907  0.3972 -0.0058
17573TIP3    H274211   1.309   0.772  10.462  1.3594  1.0855  0.9788
17574TIP3   OH274212   6.745   0.351   5.041 -0.3082 -0.0372 -0.8377
17574TIP3    H174213   6.801   0.380   5.114  0.8776  1.1909 -2.1820
17574TIP3    H274214   6.722   0.432   4.995  0.6030 -0.9051 -2.9538
17575TIP3   OH274215   6.190   6.782   2.689 -0.1861  1.0276  0.4070
17575TIP3    H174216   6.243   6.862   2.687  0.2216  0.7583 -0.7542
17575TIP3    H274217   6.140   6.785   2.607 -0.5409  0.3439  0.5925
17576TIP3   OH274218   2.117   4.111   0.145 -0.1250  0.6513  0.0624
17576TIP3    H174219   2.080   4.024   0.159  0.8969  0.2170  0.1908
17576TIP3    H274220   2.042   4.170   0.140 -0.7926 -0.1306  0.7738
17577TIP3   OH274221   4.990   5.790  15.714  0.5559  0.2197 -0.2998
17577TIP3    H174222   5.072   5.771  15.759 -0.2407  0.8695  1.5223
17577TIP3    H274223   4.967   5.879  15.742  0.0599  0.7044 -2.1012
17578TIP3   OH274224   6.533   4.722  12.399  0.2171 -0.5171  0.3127
17578TIP3    H174225   6.625   4.703  12.382  0.0591 -0.5452 -0.5429
17578TIP3    H274226   6.501   4.760  12.317 -0.1907  0.7904  1.0544
17579TIP3   OH274227   5.801   2.103   4.841  0.1646 -0.4989  0.7321
17579TIP3    H174228   5.734   2.156   4.885  1.6247  1.0987  1.1469
17579TIP3    H274229   5.881   2.121   4.889  1.5599  0.2226 -1.6883
17580TIP3   OH274230   1.687   0.856   6.364 -0.1333  0.0291 -0.1549
17580TIP3    H174231   1.741   0.819   6.294 -0.8718 -1.2558 -0.0619
17580TIP3    H274232   1.671   0.783   6.424 -0.5240  0.8192  0.7339
17581TIP3   OH274233   2.559   6.710   0.568 -0.1435  0.3567  0.0703
17581TIP3    H174234   2.553   6.785   0.627  0.1965  0.5615 -0.1555
17581TIP3    H274235   2.653   6.696   0.556 -0.1951  1.0992 -1.4182
17582TIP3   OH274236   4.742   4.364  12.311 -0.3624  0.3501 -0.1840
17582TIP3    H174237   4.749   4.378  12.405  0.7667  1.1572 -0.3629
17582TIP3    H274238   4.680   4.431  12.281 -1.4492 -0.4999  0.0841
17583TIP3   OH274239   2.224   5.066  11.457 -0.2999  0.1108  0.3433
17583TIP3    H174240   2.161   5.035  11.391 -0.4812  0.5069  0.3290
17583TIP3    H274241   2.305   5.081  11.409  0.5544 -2.6715  0.7325
17584TIP3   OH274242   1.996   3.812   2.514  0.3222  1.0119  0.1887
17584TIP3    H174243   1.953   3.878   2.459  0.3432  0.1274 -0.9177
17584TIP3    H274244   1.975   3.839   2.603  1.4830  3.3195 -0.1429
17585TIP3   OH274245   5.316   6.604   2.659 -0.1311  0.6405  0.0670
17585TIP3    H174246   5.227   6.594   2.693  0.0801 -1.7074  0.1314
17585TIP3    H274247   5.372   6.598   2.737  0.1591 -0.3537 -0.2018
17586TIP3   OH274248   0.227   2.990   0.229 -0.0249  0.7863  0.3282
17586TIP3    H174249   0.148   2.939   0.215  0.0594  0.3368  1.3836
17586TIP3    H274250   0.212   3.072   0.182  0.0663 -0.3725 -1.8957
17587TIP3   OH274251   1.097   3.524  14.406  0.0311 -0.0463 -0.1642
17587TIP3    H174252   1.190   3.525  14.428 -0.2287  0.5291  1.0149
17587TIP3    H274253   1.065   3.610  14.432 -1.0898 -0.6992  0.7176
17588TIP3   OH274254   5.519   0.446  12.835  0.0834 -0.2623 -0.3326
17588TIP3    H174255   5.464   0.367  12.830  0.6316 -0.5963 -1.4290
17588TIP3    H274256   5.602   0.415  12.869  0.0049  0.0142  0.1104
17589TIP3   OH274257   4.687   6.377  12.972  0.3173  0.0650  1.2180
17589TIP3    H174258   4.669   6.436  12.899  2.3848  0.9317  1.3513
17589TIP3    H274259   4.728   6.300  12.932  1.2127  0.4290  1.4096
17590TIP3   OH274260   3.725   2.961  12.577  0.1340  0.4563 -0.1027
17590TIP3    H174261   3.768   2.901  12.638 -0.1018  1.2891  0.9101
17590TIP3    H274262   3.748   3.049  12.609 -0.6968  0.9095 -0.7047
17591TIP3   OH274263   0.205   5.859  11.069  0.1159  0.1553 -0.5079
17591TIP3    H174264   0.228   5.950  11.052  1.0501  0.2699  1.1920
17591TIP3    H274265   0.123   5.846  11.022  0.7215  1.4201 -2.0075
17592TIP3   OH274266   0.764   6.251   1.292  0.6832 -0.1825  0.9028
17592TIP3    H174267   0.855   6.277   1.302  0.5850  0.1842  0.8360
17592TIP3    H274268   0.715   6.309   1.350  0.4814 -0.3146  0.8660
17593TIP3   OH274269   3.690   0.595   5.367  0.7618  0.1164 -0.0497
17593TIP3    H174270   3.612   0.616   5.420  1.4089 -1.6521  1.7288
17593TIP3    H274271   3.656   0.587   5.278 -0.7721  1.0608  0.3878
17594TIP3   OH274272   1.623   6.024   0.727  0.0765  0.6764 -0.0454
17594TIP3    H174273   1.675   6.000   0.651  0.0967  0.3972  0.0544
17594TIP3    H274274   1.662   6.105   0.759 -0.0287  0.8795 -0.4225
17595TIP3   OH274275   3.537   2.052  13.861 -0.5227 -0.2841 -0.7730
17595TIP3    H174276   3.513   1.966  13.824  2.4159 -0.9085 -1.4602
17595TIP3    H274277   3.572   2.101  13.787  0.1079  0.6067  0.0931
17596TIP3   OH274278   3.378   4.841   3.944  0.6205  0.9512  0.3952
17596TIP3    H174279   3.368   4.767   4.004  1.2843  1.1541  0.7675
17596TIP3    H274280   3.472   4.862   3.948  0.4817  1.6402  0.0913
17597TIP3   OH274281   0.016   2.120   4.849  0.1851  0.0062  0.1389
17597TIP3    H174282   0.000   2.121   4.755  1.2559  2.1691 -0.0783
17597TIP3    H274283  -0.032   2.196   4.882  0.3228 -0.3714  1.2512
17598TIP3   OH274284   0.709   3.101  13.736  0.1573 -0.1340 -0.4921
17598TIP3    H174285   0.643   3.034  13.756  0.7720 -0.0988  1.9564
17598TIP3    H274286   0.789   3.050  13.719  0.3748 -0.0544  0.2964
17599TIP3   OH274287   2.001   4.816   3.945  0.1281  0.5056 -0.1905
17599TIP3    H174288   1.967   4.825   3.856 -0.2402 -1.1748 -0.2395
17599TIP3    H274289   2.096   4.818   3.935  0.0994 -0.4759 -0.7254
17600TIP3   OH274290   1.494   1.153   4.662 -0.4801  0.8071  0.1768
17600TIP3    H174291   1.500   1.242   4.699  1.1499  0.2983  1.2637
17600TIP3    H274292   1.572   1.109   4.695 -0.8921 -0.8281 -0.9444
17601TIP3   OH274293   0.290   2.433   4.553 -0.3603 -0.2737  0.2627
17601TIP3    H174294   0.301   2.524   4.581  0.9140 -0.2659 -0.2034
17601TIP3    H274295   0.199   2.429   4.522 -1.6060 -0.0909  3.5168
17602TIP3   OH274296   6.731   4.684   5.093 -0.4912 -0.3880 -0.2729
17602TIP3    H174297   6.698   4.608   5.142 -0.0880 -0.0730  0.4907
17602TIP3    H274298   6.787   4.730   5.155  0.8089 -0.5058 -1.3228
17603TIP3   OH274299   0.615   1.322  12.293 -0.2435  0.1760 -0.0297
17603TIP3    H174300   0.542   1.262  12.277 -0.6449  0.6153  0.1273
17603TIP3    H274301   0.591   1.368  12.373  0.8607 -0.6580  0.8039
17604TIP3   OH274302   6.237   2.294   5.606 -0.5902  0.1224  0.0920
17604TIP3    H174303   6.155   2.315   5.650 -0.5095  0.3615  0.1315
17604TIP3    H274304   6.290   2.374   5.614  0.8510 -0.9593  2.7751
17605TIP3   OH274305   2.234   4.597   4.445 -0.1985  0.5984 -0.0780
17605TIP3    H174306   2.329   4.586   4.458 -0.1450  2.6348  1.7234
17605TIP3    H274307   2.215   4.542   4.368  2.1529 -1.0051  0.3496
17606TIP3   OH274308   4.066   1.286  16.298  1.1914 -0.3278  0.0279
17606TIP3    H174309   4.070   1.338  16.218 -0.7252  0.5505  0.4256
17606TIP3    H274310   4.085   1.348  16.368  1.7093 -0.8234  0.3334
17607TIP3   OH274311   2.693   5.746   0.984 -0.0091  0.5222 -0.0614
17607TIP3    H174312   2.694   5.751   1.079  0.2658  1.4515 -0.1023
17607TIP3    H274313   2.682   5.837   0.955 -0.3959  0.2188 -0.9115
17608TIP3   OH274314   6.449   6.181  13.833 -0.2572 -0.4387  0.1158
17608TIP3    H174315   6.507   6.130  13.777 -0.4350 -1.5127  0.8876
17608TIP3    H274316   6.363   6.140  13.823 -1.4200  2.2005 -2.4191
17609TIP3   OH274317   0.942   4.673  16.113 -0.1381  0.1154 -0.5241
17609TIP3    H174318   1.031   4.642  16.099 -0.5113 -1.2376 -0.0998
17609TIP3    H274319   0.910   4.696  16.026  1.1932  2.3795 -0.4898
17610TIP3   OH274320   3.980   6.014   5.031 -0.1748  0.3262  0.8462
17610TIP3    H174321   3.958   5.921   5.033  0.8285  0.0242 -0.4690
17610TIP3    H274322   3.899   6.058   5.054 -0.7023 -0.8644  1.3711
17611TIP3   OH274323   5.950   3.493  14.076 -0.1075 -0.0039 -0.4304
17611TIP3    H174324   5.877   3.472  14.135 -1.0348  0.1107 -1.5205
17611TIP3    H274325   5.913   3.552  14.011  1.0762  0.4263 -0.7491
17612TIP3   OH274326   0.495   0.499   3.053 -0.5685 -0.1512  0.2613
17612TIP3    H174327   0.560   0.566   3.077 -0.7091  0.1914 -0.3047
17612TIP3    H274328   0.462   0.467   3.137  1.2524 -1.2485  0.6179
17613TIP3   OH274329   1.054   5.882  14.638 -0.4765  0.3435 -0.5534
17613TIP3    H174330   1.110   5.839  14.703 -0.0797  1.5274 -0.0895
17613TIP3    H274331   0.981   5.821  14.625 -0.0675 -0.3431  0.2868
17614TIP3   OH274332   1.555   5.745  14.227  0.0769  0.1837  0.9404
17614TIP3    H174333   1.636   5.768  14.272  0.2032 -0.8834  1.2886
17614TIP3    H274334   1.514   5.829  14.207  1.5648  0.7707  0.2011
17615TIP3   OH274335   5.772   1.717  10.993  0.0141  0.5972  0.1509
17615TIP3    H174336   5.797   1.795  10.943 -1.2100 -0.1228 -1.6979
17615TIP3    H274337   5.776   1.645  10.930  1.0075 -0.8784  1.7747
17616TIP3   OH274338   3.378   2.198   0.510 -0.1960 -0.1142 -0.4601
17616TIP3    H174339   3.453   2.139   0.512 -0.4816 -0.5061  1.8281
17616TIP3    H274340   3.305   2.145   0.542 -0.6285  1.2117  0.8653
17617TIP3   OH274341   3.147   1.355   1.620 -0.0313  0.2630  0.0173
17617TIP3    H174342   3.053   1.338   1.613  0.1603 -2.5012  2.1923
17617TIP3    H274343   3.172   1.393   1.536 -2.7509 -0.7086 -1.3306
17618TIP3   OH274344   5.887   5.881   4.939  0.4620 -0.1329  0.1952
17618TIP3    H174345   5.795   5.904   4.954 -0.4196 -3.7214  1.4640
17618TIP3    H274346   5.898   5.888   4.844 -0.9411  0.9447  0.0789
17619TIP3   OH274347   4.957   1.554   1.995 -0.2731  0.2104  0.2090
17619TIP3    H174348   5.044   1.521   2.018 -0.2131 -0.3964 -0.8284
17619TIP3    H274349   4.925   1.493   1.929 -1.1526  0.8971 -0.0163
17620TIP3   OH274350   0.541   3.589   0.100  0.5341  0.0197 -0.4434
17620TIP3    H174351   0.495   3.506   0.094 -0.3098  0.3466  1.0841
17620TIP3    H274352   0.564   3.610   0.010 -1.2009 -0.7745 -1.1134
17621TIP3   OH274353   0.463   2.999  11.552 -0.1436 -0.4056  0.1547
17621TIP3    H174354   0.556   2.998  11.529  0.0395 -0.0543  0.8495
17621TIP3    H274355   0.462   3.008  11.648 -0.8818 -1.3780  0.2564
17622TIP3   OH274356   3.186   2.721  12.324 -0.2294  0.1932 -0.6804
17622TIP3    H174357   3.202   2.814  12.312 -0.4309  0.3759  0.3233
17622TIP3    H274358   3.100   2.718  12.367  0.5802 -0.3421  0.9719
17623TIP3   OH274359   1.385   0.120   5.167  0.1602 -0.7765  0.5260
17623TIP3    H174360   1.366   0.137   5.075  1.0256  1.9467  0.7416
17623TIP3    H274361   1.300   0.100   5.206 -0.4021 -0.7540 -0.6288
17624TIP3   OH274362   3.387   6.007   4.656 -0.0022 -0.8105 -0.1290
17624TIP3    H174363   3.359   5.939   4.595  0.3394 -0.1298 -1.0750
17624TIP3    H274364   3.466   5.973   4.696 -0.4221 -1.4130  0.1967
17625TIP3   OH274365   1.782   1.157   2.161 -0.5885 -0.0725 -0.8898
17625TIP3    H174366   1.859   1.213   2.158 -0.8433  0.4100  0.5791
17625TIP3    H274367   1.714   1.208   2.117 -0.1619 -0.3682 -1.9113
17626TIP3   OH274368   4.978   2.486   5.225  0.0576  0.4610  0.1657
17626TIP3    H174369   4.895   2.439   5.209  0.3696  0.3045 -1.0840
17626TIP3    H274370   4.952   2.577   5.235 -0.1963  0.5413 -1.0994
17627TIP3   OH274371   6.577   2.207  10.735  0.4912  0.5273 -0.2355
17627TIP3    H174372   6.523   2.128  10.729 -1.4900  1.8942 -2.1664
17627TIP3    H274373   6.540   2.256  10.808 -0.1638  0.9169 -0.8114
17628TIP3   OH274374   1.957   0.723  16.627  0.1336 -0.8106 -0.3569
17628TIP3    H174375   1.956   0.769  16.543  0.8597 -0.4192 -0.1567
17628TIP3    H274376   2.000   0.784  16.687 -0.7844 -0.8990  0.4160
17629TIP3   OH274377   5.034   2.006  14.274  0.1230 -0.4637 -0.5135
17629TIP3    H174378   5.120   1.994  14.233  1.4215  0.2719  1.7749
17629TIP3    H274379   5.005   2.092  14.244 -0.1382 -0.9734 -1.7826
17630TIP3   OH274380   4.856   1.157   3.401 -0.0306 -0.1304  0.1019
17630TIP3    H174381   4.845   1.192   3.489 -0.1451 -1.3115  0.5858
17630TIP3    H274382   4.950   1.165   3.383  0.0625 -0.2784  0.5089
17631TIP3   OH274383   0.438   6.247  12.080  0.1032 -0.0508 -0.2184
17631TIP3    H174384   0.523   6.209  12.056  0.2653 -0.6705  1.2298
17631TIP3    H274385   0.458   6.339  12.099  0.4335 -0.1759  0.0449
17632TIP3   OH274386   3.608   3.039   1.073  0.9725  0.3666 -0.1534
17632TIP3    H174387   3.698   3.018   1.047  1.0387  0.7528 -0.2440
17632TIP3    H274388   3.574   3.092   1.002  0.3089 -0.6487 -0.6132
17633TIP3   OH274389   4.275   5.864   4.882  0.1293  0.1992  0.2105
17633TIP3    H174390   4.266   5.953   4.847  1.4312 -0.0765 -0.8894
17633TIP3    H274391   4.246   5.807   4.811  1.1531 -0.3133  0.1907
17634TIP3   OH274392   5.517   2.144  12.984 -0.2405 -0.2690 -0.4673
17634TIP3    H174393   5.611   2.124  12.989  0.0613  1.2788  0.8907
17634TIP3    H274394   5.497   2.143  12.891  1.0631 -0.8523 -0.7620
17635TIP3   OH274395   4.236   4.350   2.818 -0.5124 -0.3050  0.6160
17635TIP3    H174396   4.189   4.361   2.901 -0.2007 -0.3272  0.7962
17635TIP3    H274397   4.179   4.293   2.766 -0.1298 -1.3288  1.2849
17636TIP3   OH274398   2.362   0.535  10.695 -0.2014 -0.6908 -0.4103
17636TIP3    H174399   2.381   0.465  10.632 -1.8310 -0.5436 -1.1338
17636TIP3    H274400   2.269   0.555  10.680  0.6202  2.9855 -1.6436
17637TIP3   OH274401   1.625   5.600  11.020  0.4296  0.3431  0.6469
17637TIP3    H174402   1.604   5.511  10.990  0.9544 -0.4220  2.3718
17637TIP3    H274403   1.610   5.656  10.944 -0.5564 -1.1365 -0.2975
17638TIP3   OH274404   5.968   4.826   4.499 -0.2273  0.8644  0.3346
17638TIP3    H174405   6.024   4.884   4.550 -1.2862  0.8345  1.5746
17638TIP3    H274406   5.963   4.746   4.550  1.3309 -0.4287 -1.4282
17639TIP3   OH274407   0.943   4.234   3.544  0.6289 -0.2294  0.3332
17639TIP3    H174408   1.003   4.220   3.471  0.0403  1.5534 -0.5563
17639TIP3    H274409   0.857   4.244   3.502  0.1108 -0.2561  1.3723
17640TIP3   OH274410   6.076   6.263  17.143  0.2768  0.0139  0.9085
17640TIP3    H174411   6.031   6.338  17.103  0.2864 -0.7082 -0.4897
17640TIP3    H274412   6.169   6.281  17.129  0.2392 -0.8731 -0.6001
17641TIP3   OH274413   3.655   1.495  16.386  0.1090 -0.1574  0.0182
17641TIP3    H174414   3.569   1.512  16.347  0.0074 -1.4002 -0.3441
17641TIP3    H274415   3.641   1.504  16.480 -0.8403 -2.0200  0.0845
17642TIP3   OH274416   6.260   4.391  16.792 -0.3027  0.3602  0.1999
17642TIP3    H174417   6.260   4.302  16.829 -1.0918  0.6400  0.8928
17642TIP3    H274418   6.347   4.425  16.813 -0.4087  0.1719  0.9745
17643TIP3   OH274419   5.763   3.360  13.786  0.5601  0.2231 -0.2622
17643TIP3    H174420   5.855   3.339  13.800  1.1766  0.8345 -2.7378
17643TIP3    H274421   5.733   3.398  13.869  2.9230  1.2008  0.2166
17644TIP3   OH274422   0.706   0.162  12.413 -0.0679  0.0776  0.1579
17644TIP3    H174423   0.710   0.113  12.331  4.0718 -0.3188  0.3859
17644TIP3    H274424   0.706   0.254  12.387  1.9982 -0.0348 -0.3735
17645TIP3   OH274425   2.006   3.283   1.234 -0.4792  0.1982 -0.6603
17645TIP3    H174426   2.029   3.297   1.325 -0.5520 -1.6707 -0.3058
17645TIP3    H274427   1.910   3.288   1.232 -0.5714 -0.9710 -0.3508
17646TIP3   OH274428   1.930   3.243   2.094  0.4992 -0.2536  0.0480
17646TIP3    H174429   1.977   3.326   2.083  0.6813 -0.4318 -0.5994
17646TIP3    H274430   1.990   3.178   2.057  0.5873 -0.7480  1.0452
17647TIP3   OH274431   5.135   1.508   1.114  0.3793 -0.1799 -0.2453
17647TIP3    H174432   5.137   1.462   1.031  0.4606 -1.0062  0.2016
17647TIP3    H274433   5.086   1.451   1.173  1.2615 -0.1365  0.5689
17648TIP3   OH274434   3.761   4.765  16.458 -0.1559 -0.0135  0.6322
17648TIP3    H174435   3.667   4.758  16.473 -0.4685 -1.3627 -1.4855
17648TIP3    H274436   3.788   4.677  16.431  1.7575  0.3046  1.3051
17649TIP3   OH274437   5.504   4.672   2.385  0.9148 -0.4432 -0.3644
17649TIP3    H174438   5.443   4.601   2.407  0.8660 -0.0659  0.7743
17649TIP3    H274439   5.471   4.708   2.303 -0.2818 -0.3837  0.1303
17650TIP3   OH274440   2.015   1.029   1.511 -0.4021 -0.1386 -0.1163
17650TIP3    H174441   2.096   1.079   1.498 -0.7081  0.5419  0.5073
17650TIP3    H274442   2.036   0.942   1.478  1.5129 -0.7931  2.4602
17651TIP3   OH274443   2.311   3.593   2.563  0.1728  0.3847  0.0542
17651TIP3    H174444   2.335   3.528   2.497  0.0591  1.1574 -0.7637
17651TIP3    H274445   2.393   3.611   2.609  0.6749  1.1621 -1.0801
17652TIP3   OH274446   1.464   5.817  11.829 -0.5525  0.0011 -0.0494
17652TIP3    H174447   1.396   5.753  11.806  0.0069 -0.3084 -0.8465
17652TIP3    H274448   1.462   5.819  11.925  0.1737 -2.0476  0.0528
17653TIP3   OH274449   0.002   5.753  11.733 -0.2679 -0.1229  0.7854
17653TIP3    H174450   0.077   5.789  11.686 -1.7538  0.3935 -1.3034
17653TIP3    H274451   0.005   5.796  11.819  1.5921  0.1480  0.6166
17654TIP3   OH274452   2.851   3.661  11.052  0.0926  0.3525 -0.3199
17654TIP3    H174453   2.829   3.638  10.962 -0.0161  2.7166 -0.9499
17654TIP3    H274454   2.943   3.689  11.047 -0.2293  1.5170  0.0738
17655TIP3   OH274455   2.927   0.039  14.068  0.2776  0.1962  0.0989
17655TIP3    H174456   3.013   0.060  14.030 -0.3261  0.1222 -1.3961
17655TIP3    H274457   2.923  -0.056  14.066  0.0573  0.2098 -0.0861
17656TIP3   OH274458   4.837   2.145   2.698 -0.3470  0.5474 -0.3783
17656TIP3    H174459   4.817   2.158   2.605  0.5543  1.5668 -0.4620
17656TIP3    H274460   4.823   2.231   2.737 -1.3263 -0.0252  0.5681
17657TIP3   OH274461   2.072   6.436  11.614  0.3912  0.2940 -0.1629
17657TIP3    H174462   2.064   6.527  11.642 -2.2373  0.0154  0.2327
17657TIP3    H274463   2.008   6.426  11.543  1.7822 -0.8737 -1.3226
17658TIP3   OH274464   3.948   1.597  16.616 -0.1719 -0.1762 -0.6167
17658TIP3    H174465   4.030   1.577  16.573 -0.8617 -0.2218 -1.9571
17658TIP3    H274466   3.933   1.690  16.599 -0.6241 -0.2764 -0.7834
17659TIP3   OH274467   1.604   4.263  14.425 -0.0383  0.3634  0.1331
17659TIP3    H174468   1.607   4.194  14.491  3.2233 -0.7400 -0.9672
17659TIP3    H274469   1.573   4.219  14.345  0.2616  0.6206 -0.1287
17660TIP3   OH274470   4.939   0.414  15.269  0.3853 -0.7798  0.3429
17660TIP3    H174471   4.922   0.361  15.192  0.0916 -0.1150 -0.0583
17660TIP3    H274472   5.014   0.372  15.311  1.4475 -0.3526 -1.0489
17661TIP3   OH274473   3.129   0.910   2.433 -0.1192  0.2793 -0.0769
17661TIP3    H174474   3.164   0.822   2.418  0.1341  0.1994  0.9335
17661TIP3    H274475   3.058   0.919   2.370 -2.5243 -2.0035  2.0824
17662TIP3   OH274476   2.778   0.870   5.513  1.0201  0.6055 -0.4114
17662TIP3    H174477   2.856   0.896   5.562  0.5488  1.6413 -0.1848
17662TIP3    H274478   2.796   0.780   5.486  0.7478 -0.5716  2.8385
17663TIP3   OH274479   5.309   0.157  13.364  0.4556 -0.3553 -0.3184
17663TIP3    H174480   5.216   0.153  13.342 -0.2349  3.4558  1.0483
17663TIP3    H274481   5.354   0.129  13.284 -1.8215 -1.8880 -1.1509
17664TIP3   OH274482   0.922   2.201   2.058 -0.0504 -0.7541 -0.0687
17664TIP3    H174483   0.951   2.286   2.090 -2.8150 -0.6762  2.7437
17664TIP3    H274484   0.977   2.138   2.106 -0.5933 -0.5658  0.8155
17665TIP3   OH274485   1.414   5.455  15.858 -0.4414  0.1040 -0.0656
17665TIP3    H174486   1.390   5.545  15.835 -0.7845  0.1751  0.5466
17665TIP3    H274487   1.369   5.401  15.794 -1.9477  0.2569  0.8009
17666TIP3   OH274488   4.812   2.401  16.955 -0.9165  0.1540  0.0477
17666TIP3    H174489   4.824   2.363  16.868  0.1457 -0.4006  0.4236
17666TIP3    H274490   4.773   2.487  16.938  0.7923  0.7599 -1.1032
17667TIP3   OH274491   0.524   4.386   3.320 -0.1005  0.4359 -0.3698
17667TIP3    H174492   0.575   4.465   3.300  1.1792  0.2712  1.9582
17667TIP3    H274493   0.526   4.335   3.239  2.8732  0.7662 -0.6108
17668TIP3   OH274494   4.673   1.689  13.732  0.2061  0.3505 -0.0485
17668TIP3    H174495   4.748   1.749  13.730 -0.3997  1.1081 -1.4925
17668TIP3    H274496   4.710   1.605  13.761  1.1711  1.2647  1.5177
17669TIP3   OH274497   0.793   4.269  13.219 -0.2216 -0.2958  0.4541
17669TIP3    H174498   0.744   4.257  13.138  1.6097 -1.6730 -0.5345
17669TIP3    H274499   0.804   4.363  13.227  2.1465 -0.1754 -2.6095
17670TIP3   OH274500   5.132   5.158  11.859 -0.3671  0.2279  0.3177
17670TIP3    H174501   5.223   5.138  11.836  0.4820  1.2421  2.4405
17670TIP3    H274502   5.090   5.179  11.776  1.4028 -0.0286 -0.7011
17671TIP3   OH274503   0.640   6.373   0.933 -0.3186 -0.8278  0.1335
17671TIP3    H174504   0.579   6.354   1.005 -0.0050  0.8527  0.8922
17671TIP3    H274505   0.724   6.338   0.963 -0.7159 -2.5512 -0.6288
17672TIP3   OH274506   6.785   1.054  14.299  0.1700 -0.5513  0.1235
17672TIP3    H174507   6.870   1.082  14.334  1.1274  0.7482 -2.9069
17672TIP3    H274508   6.744   1.135  14.268 -0.1070 -1.6054 -2.5363
17673TIP3   OH274509   6.242   0.860   1.727 -0.1019  0.6260  0.8027
17673TIP3    H174510   6.333   0.840   1.703 -0.2553  0.3658  0.4310
17673TIP3    H274511   6.208   0.779   1.764 -0.1270  0.7782  1.1118
17674TIP3   OH274512   1.172   3.410   4.916 -0.7231  0.1384 -0.5217
17674TIP3    H174513   1.086   3.413   4.957  0.3481  1.6958  1.8371
17674TIP3    H274514   1.229   3.368   4.981  0.5718  0.3372 -1.4748
17675TIP3   OH274515   1.126   3.251  14.962 -0.0849  0.4572 -0.1496
17675TIP3    H174516   1.141   3.254  15.057  1.0592  0.8278 -0.3161
17675TIP3    H274517   1.070   3.326  14.944 -1.9094 -0.7051  0.4627
17676TIP3   OH274518   5.682   2.862   4.575 -0.3982  0.1262  0.2079
17676TIP3    H174519   5.593   2.855   4.610 -0.8810 -2.1174 -1.2586
17676TIP3    H274520   5.669   2.872   4.480  0.8641 -2.7602 -0.3559
17677TIP3   OH274521   3.674   4.904   5.032 -0.2143 -0.3780 -0.1153
17677TIP3    H174522   3.689   4.833   4.971 -0.4310 -0.9995  0.5374
17677TIP3    H274523   3.645   4.861   5.113 -2.0081  0.5319 -0.2290
17678TIP3   OH274524   1.360   1.973   5.044 -0.3711  0.4933  0.1906
17678TIP3    H174525   1.417   1.897   5.029 -1.0734  0.1284 -0.7298
17678TIP3    H274526   1.275   1.946   5.009 -0.8792  1.3631  0.7188
17679TIP3   OH274527   3.651   0.263   3.919  0.1998 -0.1888  0.0545
17679TIP3    H174528   3.709   0.268   3.843  0.2010  1.2399  0.1387
17679TIP3    H274529   3.595   0.340   3.912  0.5085  0.2166  1.7573
17680TIP3   OH274530   0.483   1.084   1.387 -0.6849  0.0613  0.6311
17680TIP3    H174531   0.487   1.075   1.292  2.8486 -1.2551  0.7485
17680TIP3    H274532   0.429   1.162   1.401  1.5164  2.5079 -2.6989
17681TIP3   OH274533   4.471   2.448   1.794  0.3273 -0.1560 -0.5211
17681TIP3    H174534   4.431   2.493   1.868 -0.7583  1.0333 -1.7748
17681TIP3    H274535   4.402   2.445   1.728  1.5565 -0.2841 -1.8461
17682TIP3   OH274536   0.597   3.255  12.075  0.0327 -0.1629  0.4674
17682TIP3    H174537   0.561   3.335  12.112  0.4217 -0.7066  2.0709
17682TIP3    H274538   0.690   3.274  12.060  0.4872 -0.7756  2.3120
17683TIP3   OH274539   1.767   5.244   2.906  0.2960  0.2363 -0.1218
17683TIP3    H174540   1.710   5.167   2.905  0.9660 -0.2644 -0.4689
17683TIP3    H274541   1.739   5.293   2.983  0.9944 -1.2088  1.1029
17684TIP3   OH274542   5.774   1.195  17.105  0.0825  0.1934  0.0666
17684TIP3    H174543   5.697   1.149  17.072 -0.1740  0.3397  0.4539
17684TIP3    H274544   5.753   1.288  17.093  0.5696  0.2221 -0.6564
17685TIP3   OH274545   0.814   4.543  13.228  0.1121 -0.0277 -0.1925
17685TIP3    H174546   0.756   4.573  13.299  0.4409  0.0658  0.0405
17685TIP3    H274547   0.890   4.600  13.235 -0.4013  0.8672 -1.4502
17686TIP3   OH274548   5.425   4.325   1.712  0.2974  0.0080  0.2354
17686TIP3    H174549   5.361   4.276   1.660 -0.6491  0.5828  0.8205
17686TIP3    H274550   5.404   4.417   1.695 -0.4165  0.2215  2.0337
17687TIP3   OH274551   5.157   2.427  14.821 -0.3510 -0.0200 -0.3190
17687TIP3    H174552   5.111   2.344  14.827  0.4537 -0.3593  2.1403
17687TIP3    H274553   5.107   2.486  14.877 -0.0846  0.7711 -0.8952
17688TIP3   OH274554   3.754   3.392   3.941 -0.1820  0.7654 -0.3055
17688TIP3    H174555   3.703   3.471   3.958 -0.3096  0.6421 -0.1051
17688TIP3    H274556   3.695   3.320   3.966  0.0308  0.6166 -0.2299
17689TIP3   OH274557   3.302   4.211  11.548  1.0259  0.2752 -0.2475
17689TIP3    H174558   3.319   4.118  11.530 -1.7688 -0.0110 -2.0820
17689TIP3    H274559   3.269   4.211  11.638 -0.7581 -0.8871 -0.8308
17690TIP3   OH274560   6.226   0.220   5.029 -0.1212 -0.6908  0.2394
17690TIP3    H174561   6.200   0.304   5.068 -0.5664 -0.6817 -0.0736
17690TIP3    H274562   6.276   0.245   4.951 -1.9528 -0.6920 -0.9968
17691TIP3   OH274563   3.424   1.865   3.506 -0.0536  0.3887  0.2174
17691TIP3    H174564   3.499   1.863   3.447 -0.4974  2.0165 -0.4505
17691TIP3    H274565   3.348   1.852   3.449 -0.4115  0.6926  0.6215
17692TIP3   OH274566   5.717   4.454  15.661 -0.5230 -0.4376 -0.5038
17692TIP3    H174567   5.694   4.386  15.725  1.6078 -2.1797 -1.4678
17692TIP3    H274568   5.805   4.481  15.685  0.8778 -2.0668 -3.3448
17693TIP3   OH274569   4.034   0.698  16.939 -0.4178  0.2898 -0.6968
17693TIP3    H174570   4.043   0.734  16.851  0.3094  0.9468 -0.3663
17693TIP3    H274571   3.978   0.622  16.928 -0.9370  0.7878 -1.6164
17694TIP3   OH274572   3.697   1.995   3.678  0.0154  0.4046  0.5270
17694TIP3    H174573   3.689   1.917   3.622  1.0463  0.8138 -0.2307
17694TIP3    H274574   3.697   2.068   3.616  0.2062  0.9229  1.1391
17695TIP3   OH274575   4.756   0.995  13.805 -0.0093  0.5815  0.0262
17695TIP3    H174576   4.673   0.988  13.758  0.2531  0.0092 -0.3642
17695TIP3    H274577   4.791   1.081  13.779 -2.0321  2.4277  2.8132
17696TIP3   OH274578   3.311   3.254  12.529  0.4251  0.0983  0.8482
17696TIP3    H174579   3.220   3.238  12.555  0.3760  0.5493  0.9537
17696TIP3    H274580   3.347   3.166  12.516 -0.7670 -0.1090 -1.8483
17697TIP3   OH274581   4.606   1.806   0.430 -0.1724  0.0801  0.2525
17697TIP3    H174582   4.541   1.740   0.455  0.0076 -1.2375 -2.3760
17697TIP3    H274583   4.689   1.758   0.429  0.2344  0.7769 -0.0005
17698TIP3   OH274584   4.902   6.211  17.035 -0.3511  0.4584 -0.2242
17698TIP3    H174585   4.943   6.258  17.109 -0.4689  0.6641 -0.2887
17698TIP3    H274586   4.809   6.233  17.042 -0.2696  1.0219 -0.8281
17699TIP3   OH274587   6.769   4.686  15.412  0.2241 -0.0718 -0.0862
17699TIP3    H174588   6.855   4.647  15.399 -0.0649 -0.6877 -0.1996
17699TIP3    H274589   6.746   4.668  15.503 -0.6222 -1.6650 -0.5775
17700TIP3   OH274590   0.157   0.303   5.219  1.0993  0.3298 -0.8916
17700TIP3    H174591   0.078   0.251   5.229 -0.0552  1.9402 -1.3320
17700TIP3    H274592   0.226   0.239   5.201 -0.4896 -0.9596 -2.7549
17701TIP3   OH274593   6.474   3.086   1.816 -0.1621  0.4882 -0.5233
17701TIP3    H174594   6.466   3.172   1.857  0.0507  0.7477 -1.0276
17701TIP3    H274595   6.511   3.103   1.730  0.8417 -0.2023 -0.2497
17702TIP3   OH274596   2.997   1.595   3.261  0.0824  0.9424  0.3724
17702TIP3    H174597   2.976   1.682   3.228  0.8011  1.1617  0.4635
17702TIP3    H274598   2.931   1.538   3.223 -1.5894  1.8064  1.8509
17703TIP3   OH274599   0.092   2.714   6.452 -0.5157 -0.5844 -0.0250
17703TIP3    H174600   0.137   2.770   6.389 -1.7786  0.2367 -0.2235
17703TIP3    H274601   0.091   2.765   6.533  1.1725 -1.6685  0.7334
17704TIP3   OH274602   5.140   0.588   0.006  0.8477  0.1202 -0.2159
17704TIP3    H174603   5.226   0.579   0.046  0.4793 -0.9976  0.3433
17704TIP3    H274604   5.122   0.503  -0.033  0.2314  0.5161 -0.8227
17705TIP3   OH274605   4.354   2.064  11.819  0.1585  0.6376  0.4107
17705TIP3    H174606   4.284   2.070  11.754 -0.2478 -0.4989  0.7070
17705TIP3    H274607   4.340   1.979  11.860  0.6124  1.1950  1.7565
17706TIP3   OH274608   6.039   2.715   2.380 -0.2372 -0.1032  0.3854
17706TIP3    H174609   5.982   2.784   2.414 -0.0472 -0.0783  0.6638
17706TIP3    H274610   5.981   2.641   2.364 -0.3800 -0.0090  0.4650
17707TIP3   OH274611   5.405   2.065   0.045 -0.0625  0.1968  0.6662
17707TIP3    H174612   5.322   2.041   0.086  0.2008 -0.3906  0.8684
17707TIP3    H274613   5.467   2.000   0.078  0.9094  1.7725  2.0810
17708TIP3   OH274614   4.018   6.205  15.279 -0.6353 -0.0871  0.2334
17708TIP3    H174615   3.985   6.201  15.190  1.1428  0.8044 -0.5088
17708TIP3    H274616   3.941   6.222  15.333 -1.6226  0.1643 -1.2114
17709TIP3   OH274617   4.860   3.139  10.983 -0.0605  0.1944 -0.2831
17709TIP3    H174618   4.845   3.227  10.948  0.8159  0.4083 -0.1328
17709TIP3    H274619   4.902   3.091  10.912 -2.1921 -0.6839 -1.0270
17710TIP3   OH274620   5.646   4.501  16.535 -0.2510  0.1634 -0.0822
17710TIP3    H174621   5.557   4.531  16.552 -0.8418 -1.7584  0.4879
17710TIP3    H274622   5.671   4.454  16.614  0.3816 -1.2533 -1.0786
17711TIP3   OH274623   0.026   0.928  16.946 -0.0504 -0.6686 -0.8958
17711TIP3    H174624  -0.027   0.973  17.012  1.3931 -0.5365  0.2071
17711TIP3    H274625   0.082   0.996  16.909  0.7638 -1.1765 -0.6126
17712TIP3   OH274626   5.081   4.361   4.731  0.4481  0.4064 -0.7819
17712TIP3    H174627   5.064   4.388   4.822 -0.1005  0.9178 -1.0299
17712TIP3    H274628   5.174   4.380   4.718  1.0798 -1.5690  0.3024
17713TIP3   OH274629   6.774   3.377   4.783 -0.1555  0.7121  0.1340
17713TIP3    H174630   6.857   3.425   4.782  0.5441 -0.4593  0.6980
17713TIP3    H274631   6.785   3.308   4.718 -0.5783  0.3629  0.4303
17714TIP3   OH274632   1.526   1.704   5.681 -0.3184  0.5171  0.3395
17714TIP3    H174633   1.441   1.749   5.687 -0.9577 -0.6639  0.4941
17714TIP3    H274634   1.548   1.707   5.588 -0.7623  0.4267  0.2286
17715TIP3   OH274635   4.100   5.148  15.998  0.4749  0.2359 -0.0157
17715TIP3    H174636   4.085   5.091  16.074  2.1719 -0.2389 -0.0025
17715TIP3    H274637   4.149   5.093  15.937 -0.3760  0.7949 -1.2332
17716TIP3   OH274638   1.965   2.551  16.101  0.4030  0.1186 -0.6882
17716TIP3    H174639   2.027   2.497  16.149  1.2090 -0.3872 -2.2445
17716TIP3    H274640   1.994   2.547  16.010 -2.3037 -0.6772 -1.6034
17717TIP3   OH274641   6.268   6.550  16.987 -0.0736 -0.1811  0.0903
17717TIP3    H174642   6.183   6.512  16.967 -0.6779  0.7350  0.8542
17717TIP3    H274643   6.325   6.474  17.000 -0.1209 -0.8558 -2.8095
17718TIP3   OH274644   4.372   0.666   1.811 -0.0404 -0.4321 -0.2477
17718TIP3    H174645   4.369   0.705   1.898  0.6131 -2.0189  0.5262
17718TIP3    H274646   4.344   0.736   1.752 -2.1497  0.2167  1.3851
17719TIP3   OH274647   2.411   4.502   7.061 -0.1829 -0.6570 -0.0764
17719TIP3    H174648   2.352   4.546   6.999 -0.5936  0.0608  0.7975
17719TIP3    H274649   2.495   4.500   7.016 -0.4496 -0.0615 -0.6322
17720TIP3   OH274650   4.682   4.957  12.168  0.0315  0.1520  0.0386
17720TIP3    H174651   4.647   4.908  12.094 -1.3225 -1.5669  1.6974
17720TIP3    H274652   4.610   5.013  12.196  0.1959  0.0700  0.6418
17721TIP3   OH274653   5.242   3.085  15.267  0.9131  0.2578  0.6910
17721TIP3    H174654   5.263   3.136  15.344 -0.5795 -0.9922  2.0063
17721TIP3    H274655   5.197   3.146  15.209  0.6596  0.8466  1.4903
17722TIP3   OH274656   5.073   0.471  11.728 -0.6748  0.2742  0.0395
17722TIP3    H174657   5.110   0.407  11.668 -1.0799 -1.2519  1.3675
17722TIP3    H274658   5.072   0.427  11.813  1.6853  2.9821  1.6675
17723TIP3   OH274659   0.476   4.149  13.881 -0.1278  0.1621  0.1903
17723TIP3    H174660   0.428   4.131  13.962  0.0741  1.2300  0.5703
17723TIP3    H274661   0.503   4.063  13.850  0.9255 -0.2181  1.9737
17724TIP3   OH274662   5.144   5.215   2.807  0.5024  0.1110  0.0618
17724TIP3    H174663   5.060   5.260   2.805 -0.2234 -1.1656  0.2653
17724TIP3    H274664   5.204   5.272   2.760 -0.7556  0.5136 -1.1098
17725TIP3   OH274665   1.278   6.647   0.808  0.4955  0.3477 -0.2725
17725TIP3    H174666   1.364   6.632   0.769  0.7156 -0.6758  0.5474
17725TIP3    H274667   1.295   6.706   0.881  1.1842 -2.5326  2.1195
17726TIP3   OH274668   1.117   3.937   3.403 -0.1301 -0.4278  0.3698
17726TIP3    H174669   1.078   3.927   3.316  0.2322 -1.7372  0.3332
17726TIP3    H274670   1.148   4.028   3.406  0.4144 -0.5449 -1.0988
17727TIP3   OH274671   0.756   6.481   4.000 -0.2550 -0.4585 -0.1670
17727TIP3    H174672   0.755   6.511   3.909 -0.0450 -1.8561 -0.6403
17727TIP3    H274673   0.684   6.419   4.005 -0.6831  0.0956  0.8079
17728TIP3   OH274674   2.758   3.281   5.285 -0.5801  0.2594 -0.2874
17728TIP3    H174675   2.768   3.227   5.206 -1.3807 -0.1366 -0.1344
17728TIP3    H274676   2.716   3.222   5.348  1.3757  0.1117  0.9382
17729TIP3   OH274677   4.870   6.732   5.669 -0.1445 -0.4727 -0.0482
17729TIP3    H174678   4.952   6.707   5.625 -0.8888 -2.2241 -0.4941
17729TIP3    H274679   4.806   6.739   5.598 -0.3529  1.1986  0.2594
17730TIP3   OH274680   2.306   2.074  12.004  0.2271  0.3501  0.5845
17730TIP3    H174681   2.238   2.083  11.938  0.3294 -1.6616  0.1464
17730TIP3    H274682   2.350   2.160  12.006  0.8494  0.2079 -2.6725
17731TIP3   OH274683   4.737   1.920   4.947 -0.1090 -1.1097 -0.4467
17731TIP3    H174684   4.655   1.957   4.913 -0.6482 -1.8046  0.0700
17731TIP3    H274685   4.720   1.826   4.952 -0.4049 -0.9782  2.6195
17732TIP3   OH274686   0.360   1.709   2.243 -0.3134 -0.2233 -0.1998
17732TIP3    H174687   0.355   1.747   2.155  0.8470  0.7030  0.1163
17732TIP3    H274688   0.438   1.655   2.242  0.2366  0.5279  0.5218
17733TIP3   OH274689   6.049   5.488   0.954  0.2644 -0.4684  0.2717
17733TIP3    H174690   6.085   5.572   0.924  0.9051 -0.3026  1.4530
17733TIP3    H274691   6.090   5.422   0.898  0.1225 -0.0381 -0.3500
17734TIP3   OH274692   5.046   0.572  16.492 -0.3762 -0.0344 -0.6958
17734TIP3    H174693   5.079   0.511  16.426 -0.9457 -0.5425 -0.5251
17734TIP3    H274694   5.123   0.621  16.521  0.2140 -1.1028 -0.3900
17735TIP3   OH274695   4.509   6.743  13.605 -0.4895 -0.3117  0.1985
17735TIP3    H174696   4.559   6.669  13.639 -1.6299 -1.8258 -1.2770
17735TIP3    H274697   4.447   6.765  13.675  0.9769  0.4164  1.3196
17736TIP3   OH274698   6.434   6.014   4.206  0.1991  0.0695  0.2871
17736TIP3    H174699   6.452   6.025   4.299  1.4289 -2.2402  0.3864
17736TIP3    H274700   6.424   6.103   4.173 -0.3934  0.9393  2.6159
17737TIP3   OH274701   1.185   5.097  11.983 -0.3192 -0.0784  0.3949
17737TIP3    H174702   1.109   5.041  11.966 -0.3765 -0.2911  1.3193
17737TIP3    H274703   1.160   5.183  11.948  0.2080 -0.8636 -2.0863
17738TIP3   OH274704   2.694   0.117   5.364  0.3910 -0.5079 -0.0614
17738TIP3    H174705   2.788   0.101   5.367  0.2660 -1.2730  0.0279
17738TIP3    H274706   2.655   0.030   5.364 -0.2823 -0.2388 -1.4501
17739TIP3   OH274707   4.337   6.638  16.723  0.6473 -0.2961  0.0102
17739TIP3    H174708   4.308   6.663  16.811 -1.3053  0.8212 -0.8865
17739TIP3    H274709   4.270   6.578  16.692  1.0317 -0.2450 -0.9422
17740TIP3   OH274710   4.530   3.692  15.829  0.1941 -0.1548  0.4479
17740TIP3    H174711   4.571   3.606  15.840 -0.8707 -0.7036  0.2758
17740TIP3    H274712   4.471   3.682  15.754  1.4076  1.2701 -0.7599
17741TIP3   OH274713   3.661   5.037   0.273  0.4995  0.5145  0.2000
17741TIP3    H174714   3.699   4.982   0.342  3.4051  0.0684 -1.6207
17741TIP3    H274715   3.694   5.125   0.291  1.6471  0.3134 -0.8314
17742TIP3   OH274716   4.864   3.824  17.102  0.1018 -0.3073 -0.6202
17742TIP3    H174717   4.789   3.786  17.056 -1.0243  0.5481  0.4149
17742TIP3    H274718   4.827   3.856  17.185  1.6848 -0.1485  0.0667
17743TIP3   OH274719   2.308   3.756  15.604 -0.7193 -0.6910 -0.2767
17743TIP3    H174720   2.333   3.686  15.665 -0.3835  0.4639  0.9662
17743TIP3    H274721   2.215   3.771  15.622  0.2255  2.5184  3.1639
17744TIP3   OH274722   6.041   0.396   4.169 -0.1227  0.3461 -0.0554
17744TIP3    H174723   6.128   0.435   4.165  0.9357 -1.8003  0.1640
17744TIP3    H274724   6.039   0.334   4.096 -1.0400 -0.4328  0.6022
17745TIP3   OH274725   2.830   2.590   5.726 -0.1192  0.0524  0.3457
17745TIP3    H174726   2.844   2.579   5.632 -0.9179 -0.0931  0.2366
17745TIP3    H274727   2.819   2.500   5.758  0.8414  0.0531  0.6971
17746TIP3   OH274728   0.553   2.247   6.342 -0.3423 -0.4458 -0.0811
17746TIP3    H174729   0.564   2.322   6.283 -0.1254 -0.2058  0.2613
17746TIP3    H274730   0.636   2.201   6.339 -0.7833 -1.2289 -1.0329
17747TIP3   OH274731   6.664   4.750  12.840  0.4248 -0.1649 -0.0828
17747TIP3    H174732   6.625   4.716  12.921 -0.6334  0.9949 -0.0617
17747TIP3    H274733   6.747   4.788  12.868  0.7424 -1.0431  0.2019
17748TIP3   OH274734   1.975   0.597  12.552  0.5251 -0.4594 -0.3043
17748TIP3    H174735   1.962   0.533  12.622  1.2358  0.7731  0.9968
17748TIP3    H274736   1.952   0.681  12.591  0.0690  0.1720 -1.8333
17749TIP3   OH274737   6.102   3.519  10.686 -0.2074 -0.2697 -0.1832
17749TIP3    H174738   6.022   3.465  10.688 -1.1961  1.1823  0.8975
17749TIP3    H274739   6.172   3.459  10.711 -1.1659 -1.2318  0.2592
17750TIP3   OH274740   2.053   4.597  15.008  0.2385 -0.1620 -0.4551
17750TIP3    H174741   2.105   4.659  15.059 -0.3798  0.4094 -0.5020
17750TIP3    H274742   1.967   4.597  15.050  0.2403 -1.0193 -0.4373
17751TIP3   OH274743   4.284   5.776   2.915 -0.7034 -0.0815  0.0498
17751TIP3    H174744   4.200   5.731   2.908 -0.4852 -0.8345  1.7011
17751TIP3    H274745   4.345   5.721   2.866 -0.6649 -1.0095  1.0986
17752TIP3   OH274746   3.938   4.538  17.006  0.1100  0.1715 -0.3584
17752TIP3    H174747   3.892   4.454  17.011  1.2629 -0.4851 -0.3650
17752TIP3    H274748   4.031   4.514  17.002  0.5492  1.4907  1.1257
17753TIP3   OH274749   5.438   1.746  12.768  0.2750  0.4334 -0.1925
17753TIP3    H174750   5.360   1.690  12.764 -0.2902  1.2275 -0.5879
17753TIP3    H274751   5.448   1.766  12.861 -0.6280  1.1812 -0.2436
17754TIP3   OH274752   3.609   2.550   1.447 -0.0595 -0.3963 -0.4583
17754TIP3    H174753   3.570   2.611   1.384 -1.1312 -0.5232  0.0560
17754TIP3    H274754   3.697   2.584   1.462 -0.7639  1.2888  0.1270
17755TIP3   OH274755   5.031   4.097  13.546 -0.1356  0.1251  0.5429
17755TIP3    H174756   4.984   4.098  13.463  1.3179 -0.2283 -0.3170
17755TIP3    H274757   5.014   4.010  13.582  1.9298 -1.0388 -1.0549
17756TIP3   OH274758   0.999   2.451  12.133 -0.6500  1.0452  0.3202
17756TIP3    H174759   0.949   2.460  12.053  1.3330  1.9895 -0.8887
17756TIP3    H274760   0.959   2.512  12.194 -2.7118 -0.2962  0.4067
17757TIP3   OH274761   3.570   5.349  14.655  0.1048  0.3227  0.1648
17757TIP3    H174762   3.611   5.384  14.576 -0.7938 -0.9932 -0.9254
17757TIP3    H274763   3.533   5.265  14.628 -1.5855  0.5398  1.5832
17758TIP3   OH274764   5.148   0.534   3.467 -0.8207  0.2183  0.2344
17758TIP3    H174765   5.166   0.552   3.375  0.8245  1.6735  0.7956
17758TIP3    H274766   5.216   0.472   3.493 -0.9883  0.1824  0.6002
17759TIP3   OH274767   2.727   2.734  14.471 -0.8059  0.1758 -0.2805
17759TIP3    H174768   2.800   2.715  14.413 -0.2206 -1.8473  1.0222
17759TIP3    H274769   2.756   2.809  14.523  0.9306 -1.3192  1.0463
17760TIP3   OH274770   6.747   2.737  15.485  0.1843  0.5661  0.1795
17760TIP3    H174771   6.696   2.663  15.452 -0.7523  1.3112 -0.0853
17760TIP3    H274772   6.698   2.815  15.457  0.4912  1.2713  1.5027
17761TIP3   OH274773   1.790   2.126   5.032  0.1500 -0.4472 -0.5119
17761TIP3    H174774   1.852   2.197   5.022  0.2677 -0.1866  1.6933
17761TIP3    H274775   1.842   2.046   5.021  0.6808 -0.2196  0.3119
17762TIP3   OH274776   6.468   1.800   2.978 -0.5233 -0.5128  0.2733
17762TIP3    H174777   6.528   1.779   2.906 -0.8394 -0.1533 -0.0999
17762TIP3    H274778   6.494   1.887   3.007  0.2782 -1.0692  1.2993
17763TIP3   OH274779   3.578   0.092  15.222 -0.1675  0.5051 -1.0502
17763TIP3    H174780   3.508   0.071  15.160 -1.1386  3.3268 -1.0884
17763TIP3    H274781   3.654   0.110  15.167  1.0663 -3.5274 -0.9706
17764TIP3   OH274782   1.797   5.673   5.483  0.4029 -0.2284 -0.0780
17764TIP3    H174783   1.741   5.596   5.497  0.9139 -0.9627 -1.8385
17764TIP3    H274784   1.871   5.658   5.541 -0.9610  0.5685  1.9995
17765TIP3   OH274785   1.888   4.606   1.046  0.2728 -0.3418 -0.7057
17765TIP3    H174786   1.891   4.700   1.026  1.3966 -0.4249 -0.9881
17765TIP3    H274787   1.801   4.592   1.083  0.1816  0.8626 -0.4254
17766TIP3   OH274788   0.424   2.481  14.736  0.3066 -0.3571  0.3604
17766TIP3    H174789   0.405   2.565  14.696  0.2099 -0.2419  0.6437
17766TIP3    H274790   0.505   2.495  14.785  0.2198 -0.3918  0.5151
17767TIP3   OH274791   1.373   4.284  10.218  0.1132  0.6105  0.0042
17767TIP3    H174792   1.341   4.229  10.147  1.4001 -0.7977  0.4612
17767TIP3    H274793   1.465   4.262  10.226  0.7483  2.9952  0.1123
17768TIP3   OH274794   4.382   6.728   0.660 -0.1180 -0.2677  0.2760
17768TIP3    H174795   4.310   6.665   0.655  0.3719 -0.9060  0.9528
17768TIP3    H274796   4.352   6.794   0.721 -0.0501 -0.6548  0.7362
17769TIP3   OH274797   3.251   0.261   4.620  0.6923  0.2843  0.0735
17769TIP3    H174798   3.288   0.325   4.560  0.9051 -1.5772 -1.9252
17769TIP3    H274799   3.287   0.284   4.706 -0.0397  3.3644 -0.3575
17770TIP3   OH274800   6.045   1.208  10.581  0.3443  0.2074 -0.0327
17770TIP3    H174801   6.026   1.187  10.490  1.5020 -1.1371 -0.0022
17770TIP3    H274802   6.042   1.304  10.585 -0.0730  0.2699 -1.3877
17771TIP3   OH274803   2.034   5.110  16.510  0.1004 -0.2595 -0.2960
17771TIP3    H174804   2.128   5.097  16.520  0.6296  1.7811 -1.9786
17771TIP3    H274805   2.000   5.114  16.600  2.1954  2.4559  0.5009
17772TIP3   OH274806   6.145   6.494   1.384 -0.2976  0.2362 -0.8361
17772TIP3    H174807   6.074   6.518   1.325 -0.5906 -0.3507 -0.7276
17772TIP3    H274808   6.167   6.576   1.429 -0.7261  0.4753 -1.0532
17773TIP3   OH274809   4.983   6.516   2.544  0.4744  0.4864 -0.0662
17773TIP3    H174810   5.018   6.504   2.632 -2.3430 -0.5420  1.0217
17773TIP3    H274811   4.899   6.560   2.557  0.6013  1.5717 -2.3924
17774TIP3   OH274812   0.769   1.637   0.917  0.0835  0.2742  0.0690
17774TIP3    H174813   0.838   1.570   0.911  1.5796  1.8769 -1.8933
17774TIP3    H274814   0.705   1.612   0.851 -0.4635 -0.3443  0.8096
17775TIP3   OH274815   5.019   5.038  15.920  0.2429 -0.4898 -0.4236
17775TIP3    H174816   4.970   5.032  16.002  0.8898  0.5035  0.0536
17775TIP3    H274817   5.087   4.971  15.927 -0.0733 -0.8104 -0.4090
17776TIP3   OH274818   0.680   0.041  16.026 -0.6285 -0.3074 -0.2346
17776TIP3    H174819   0.666   0.081  15.940 -0.8610 -1.6096 -0.8391
17776TIP3    H274820   0.667   0.112  16.089 -2.5584  0.2270 -1.1686
17777TIP3   OH274821   6.462   3.794  13.966  0.2516  0.0799 -0.2001
17777TIP3    H174822   6.454   3.875  13.915  0.2485  0.5740  0.5835
17777TIP3    H274823   6.541   3.752  13.931  0.4401  0.5773 -0.3849
17778TIP3   OH274824   6.804   6.773   4.657 -0.5228 -0.4877 -0.6524
17778TIP3    H174825   6.864   6.818   4.598 -0.5419 -1.0168 -1.0825
17778TIP3    H274826   6.825   6.807   4.743 -0.8259  0.6694 -1.0200
17779TIP3   OH274827   0.420   3.135   4.341 -0.4349  0.1206 -0.1686
17779TIP3    H174828   0.421   3.047   4.305  2.1880 -0.2754  0.6882
17779TIP3    H274829   0.435   3.192   4.265 -0.7403 -0.2690 -0.5267
17780TIP3   OH274830   2.050   3.231   2.341 -0.0028  0.2553 -0.0881
17780TIP3    H174831   2.074   3.323   2.330  0.5213  0.2660  1.0031
17780TIP3    H274832   2.002   3.209   2.261  0.3639  1.3097 -0.6173
17781TIP3   OH274833   2.005   5.229   4.745  0.1353  0.1627  0.4531
17781TIP3    H174834   1.978   5.307   4.793 -2.2576  0.2871 -0.9577
17781TIP3    H274835   1.928   5.203   4.695  2.2218 -0.3193 -2.8741
17782TIP3   OH274836   4.002   6.498  15.001  0.2641 -0.4175 -0.5282
17782TIP3    H174837   3.941   6.452  15.059  1.0187  0.8012  1.3454
17782TIP3    H274838   3.959   6.582  14.984  1.0366  0.1228  0.1360
17783TIP3   OH274839   4.791   4.128   1.987  0.3277  0.5268  0.1145
17783TIP3    H174840   4.822   4.214   1.960 -0.5346  0.6654 -0.4780
17783TIP3    H274841   4.852   4.100   2.055  0.4600  1.7215  0.5024
17784TIP3   OH274842   2.285   5.159   2.080 -0.3409  0.0758 -0.3750
17784TIP3    H174843   2.238   5.153   2.163 -0.4229 -2.0761 -0.5329
17784TIP3    H274844   2.230   5.216   2.026 -0.0540  1.8992  1.1444
17785TIP3   OH274845   2.799   6.463   0.945 -0.1778  0.0362 -0.5490
17785TIP3    H174846   2.726   6.470   0.884  1.0242  0.3318 -2.0061
17785TIP3    H274847   2.875   6.446   0.889  0.9572  0.2752  0.8771
17786TIP3   OH274848   1.844   6.605  12.000  0.8472 -0.0049  0.0964
17786TIP3    H174849   1.886   6.519  12.004  0.1435 -0.3546  0.1380
17786TIP3    H274850   1.756   6.590  12.035  0.7409  0.7460  0.1575
17787TIP3   OH274851   3.658   0.604  16.042 -0.4483  0.6869  0.9667
17787TIP3    H174852   3.579   0.644  16.006 -0.5903  0.2982  0.8394
17787TIP3    H274853   3.667   0.521  15.995  0.4493  1.0626  0.4584
17788TIP3   OH274854   0.008   5.832   2.023 -0.4951 -0.0140  0.4457
17788TIP3    H174855  -0.010   5.759   1.965  0.2149  0.2191 -0.0781
17788TIP3    H274856   0.084   5.876   1.984  0.7105 -0.4951  2.1243
17789TIP3   OH274857   3.687   1.961   3.373  0.4294 -0.2110  0.0018
17789TIP3    H174858   3.716   2.000   3.290  3.3330 -0.2989  0.8585
17789TIP3    H274859   3.761   1.906   3.400 -0.6268 -0.5451  2.4322
17790TIP3   OH274860   4.745   5.076  16.646  0.1482  0.1268 -0.2004
17790TIP3    H174861   4.715   4.996  16.688  1.8932 -1.2903 -1.5162
17790TIP3    H274862   4.815   5.108  16.703 -2.4943  2.5595  2.0086
17791TIP3   OH274863   4.508   3.719   3.098  0.2368 -0.4685 -0.0055
17791TIP3    H174864   4.433   3.721   3.157  0.0468 -0.9561 -0.2283
17791TIP3    H274865   4.543   3.630   3.107  0.8531 -0.2100  0.1804
17792TIP3   OH274866   3.086   3.005  15.569 -0.2934  0.1741 -0.2747
17792TIP3    H174867   3.082   3.089  15.614 -1.3145  0.7326 -1.3755
17792TIP3    H274868   3.019   2.952  15.611  0.1328  0.0036  0.2033
17793TIP3   OH274869   6.243   2.168   1.140  0.3860  0.4862  0.1723
17793TIP3    H174870   6.218   2.202   1.055 -0.4746  1.1991  0.6912
17793TIP3    H274871   6.162   2.169   1.192  1.0400  0.7762  1.2266
17794TIP3   OH274872   5.989   1.648  15.113  0.4101 -0.0744  0.4042
17794TIP3    H174873   5.966   1.667  15.204 -0.1450 -0.2601  0.3070
17794TIP3    H274874   5.988   1.553  15.107 -1.4832 -0.0655 -0.2501
17795TIP3   OH274875   3.003   2.022  11.863 -0.2819 -1.1056 -0.0583
17795TIP3    H174876   2.928   1.966  11.881  0.3443 -1.7212  0.7648
17795TIP3    H274877   3.057   1.971  11.802 -0.2712 -0.9094 -0.2124
17796TIP3   OH274878   0.035   4.319   0.972  1.0058  0.8633 -0.0993
17796TIP3    H174879   0.043   4.358   1.059  0.7167 -1.2348  0.9310
17796TIP3    H274880  -0.049   4.351   0.939  0.3764  0.4605  1.0633
17797TIP3   OH274881   3.359   4.905  15.746 -0.1131 -0.2614  0.3490
17797TIP3    H174882   3.405   4.863  15.674  0.4942 -0.1270  0.6546
17797TIP3    H274883   3.392   4.994  15.747 -1.2084  0.1622 -0.1328
17798TIP3   OH274884   0.200   0.867  16.195  0.5425 -0.6136 -0.0766
17798TIP3    H174885   0.181   0.894  16.285  3.1862  1.2741  0.0366
17798TIP3    H274886   0.191   0.947  16.143  2.4608 -0.8316 -0.8496
17799TIP3   OH274887   4.725   5.788   4.699 -0.0619 -0.2387 -0.1243
17799TIP3    H174888   4.699   5.738   4.622  0.5091  0.2581 -0.6517
17799TIP3    H274889   4.784   5.730   4.746 -0.9723 -0.8220  0.3340
17800TIP3   OH274890   5.329   4.602   1.934 -0.3356 -0.6743  0.6399
17800TIP3    H174891   5.404   4.641   1.889 -3.4300  3.8526 -1.3270
17800TIP3    H274892   5.274   4.569   1.863 -1.6490 -0.9194  1.7488
17801TIP3   OH274893   4.788   2.198  17.119  0.1107  0.4192 -0.4354
17801TIP3    H174894   4.814   2.276  17.070 -0.3423 -0.1637 -1.6553
17801TIP3    H274895   4.836   2.127  17.078  0.7587  0.0829  0.8749
17802TIP3   OH274896   2.385   0.166  11.236 -0.1555 -0.0944 -0.0582
17802TIP3    H174897   2.452   0.184  11.170  0.5575 -0.7555  0.4693
17802TIP3    H274898   2.319   0.113  11.190 -1.9128  3.0276 -1.4224
17803TIP3   OH274899   1.406   4.606   4.131  0.6023  0.0052 -0.0031
17803TIP3    H174900   1.350   4.589   4.055  0.3691 -1.2356  0.4225
17803TIP3    H274901   1.458   4.682   4.106  0.0359  0.0403 -1.1357
17804TIP3   OH274902   2.635   0.380  16.956 -0.1156 -0.1408  0.1034
17804TIP3    H174903   2.627   0.291  16.989 -1.7645 -0.1458 -0.2054
17804TIP3    H274904   2.659   0.433  17.032  1.2137 -0.8635  0.2190
17805TIP3   OH274905   0.451   2.304   3.789 -0.2995 -0.0525  0.4842
17805TIP3    H174906   0.479   2.214   3.805  0.0736 -0.3415 -1.4741
17805TIP3    H274907   0.357   2.304   3.803 -0.4717 -1.0401 -0.5142
17806TIP3   OH274908   4.858   1.653  14.534  0.0502  0.7163  0.2988
17806TIP3    H174909   4.860   1.703  14.452  0.7367 -0.2411 -0.2962
17806TIP3    H274910   4.767   1.656  14.562 -0.5122 -0.1945 -1.3051
17807TIP3   OH274911   3.877   4.612   0.599 -0.3163 -0.1468 -0.0490
17807TIP3    H174912   3.805   4.573   0.550 -0.0909  0.3231 -0.7652
17807TIP3    H274913   3.945   4.629   0.533  0.2825 -0.1834  0.5421
17808TIP3   OH274914   0.348   3.051  11.795  0.2150  0.4252  0.0950
17808TIP3    H174915   0.426   3.019  11.839 -0.4766  0.2849  1.2507
17808TIP3    H274916   0.326   3.132  11.840  0.4258  1.1696 -1.0848
17809TIP3   OH274917   2.530   6.366   0.069  0.3818 -0.0049 -0.2040
17809TIP3    H174918   2.511   6.362   0.163  2.9034  3.4482  0.6666
17809TIP3    H274919   2.453   6.407   0.031 -0.6247 -1.3376  0.2840
17810TIP3   OH274920   2.540   0.346   1.174  0.4814  0.6072 -0.5683
17810TIP3    H174921   2.513   0.329   1.083 -0.7677  0.0170 -0.0989
17810TIP3    H274922   2.563   0.439   1.175 -0.2112  0.7963 -1.3192
17811TIP3   OH274923   5.417   3.700  16.512  0.5087  0.3848  0.4752
17811TIP3    H174924   5.325   3.711  16.534  0.0581  1.7082 -1.7723
17811TIP3    H274925   5.464   3.738  16.586 -0.7717  0.6238  1.1971
17812TIP3   OH274926   5.789   0.295  11.226 -0.3113 -0.4003 -0.6055
17812TIP3    H174927   5.816   0.234  11.295 -2.8000 -1.9012 -0.8358
17812TIP3    H274928   5.782   0.241  11.148 -0.4460  0.6630 -1.3501
17813TIP3   OH274929   1.330   6.169  14.587 -0.2071  0.0236  0.6019
17813TIP3    H174930   1.246   6.142  14.551 -0.2379  0.1231  0.6014
17813TIP3    H274931   1.327   6.264  14.588  0.2731  0.0657 -0.3036
17814TIP3   OH274932   5.134   3.789   1.493  0.1521 -0.1631  0.1527
17814TIP3    H174933   5.175   3.858   1.441  0.5976  0.6389  1.5189
17814TIP3    H274934   5.167   3.708   1.456  2.5292  0.4339  0.7956
17815TIP3   OH274935   0.870   3.277  14.620  0.1349  0.4262  0.1043
17815TIP3    H174936   0.831   3.318  14.543 -2.4420 -2.2021 -0.1743
17815TIP3    H274937   0.875   3.347  14.685 -1.2518  1.8372 -1.2301
17816TIP3   OH274938   1.547   6.660  13.524  0.5443 -0.7831  0.6677
17816TIP3    H174939   1.459   6.656  13.486  2.0001 -0.9082 -3.1290
17816TIP3    H274940   1.533   6.650  13.618 -3.4808 -0.5745  0.2674
17817TIP3   OH274941   3.277   0.656   4.114  0.2922 -0.0164 -0.0495
17817TIP3    H174942   3.351   0.610   4.153  1.2048 -0.0807 -1.7646
17817TIP3    H274943   3.200   0.607   4.142  0.9136 -0.1955  1.4131
17818TIP3   OH274944   1.794   6.160  12.178 -0.1955 -0.3601 -0.2614
17818TIP3    H174945   1.700   6.159  12.192 -0.2119  0.0382 -0.3395
17818TIP3    H274946   1.817   6.068  12.160 -0.6970 -0.3314 -1.0913
17819TIP3   OH274947   6.291   0.383  10.326 -0.0127 -0.3260 -0.6458
17819TIP3    H174948   6.382   0.393  10.298 -0.2629 -0.4118 -1.5294
17819TIP3    H274949   6.246   0.459  10.290  0.4522  2.0794  3.3545
17820TIP3   OH274950   5.710   5.827   0.188  0.0080  0.2719 -0.2933
17820TIP3    H174951   5.677   5.738   0.186  0.9390 -0.1004  0.2232
17820TIP3    H274952   5.671   5.869   0.111 -2.5903  0.2257  0.9076
17821TIP3   OH274953   6.064   4.422   1.304 -0.2870  0.2717  0.6904
17821TIP3    H174954   6.046   4.461   1.390  0.7394  1.4275  0.4056
17821TIP3    H274955   5.987   4.442   1.252 -0.8380 -0.2733  1.2801
17822TIP3   OH274956   4.036   0.698   1.840 -0.4364  0.7817  0.4821
17822TIP3    H174957   4.089   0.660   1.909 -1.6154  1.6233  1.8977
17822TIP3    H274958   4.061   0.790   1.836  0.6526  0.4705 -1.2556
17823TIP3   OH274959   5.336   1.730   6.395 -0.4390 -0.3086 -0.2246
17823TIP3    H174960   5.249   1.698   6.422 -0.5603  0.3605  0.2108
17823TIP3    H274961   5.397   1.665   6.431 -0.6182  0.4219  1.4813
17824TIP3   OH274962   1.364   2.953   4.625  0.2071  0.2645 -0.0215
17824TIP3    H174963   1.279   2.954   4.582 -1.1148  0.2345  2.4241
17824TIP3    H274964   1.412   2.881   4.584 -1.1431 -0.0604 -1.0660
17825TIP3   OH274965   2.521   1.536  15.550  0.5555 -0.4471  0.1307
17825TIP3    H174966   2.592   1.494  15.600 -0.5476 -2.0359  0.4246
17825TIP3    H274967   2.552   1.535  15.460  1.0106 -0.9483  0.2832
17826TIP3   OH274968   1.327   5.700   1.900 -0.1407 -0.1018 -0.3664
17826TIP3    H174969   1.311   5.772   1.839  2.4164 -0.0298 -1.0649
17826TIP3    H274970   1.253   5.702   1.960 -1.4068  1.4887 -1.8943
17827TIP3   OH274971   0.913   4.626   6.867 -0.0097  0.0996 -0.0565
17827TIP3    H174972   0.884   4.691   6.804  1.7980 -0.1573 -1.2441
17827TIP3    H274973   0.915   4.544   6.817 -0.7164 -0.5779  0.9785
17828TIP3   OH274974   0.530   3.156  12.954  0.4366  0.4221  0.0288
17828TIP3    H174975   0.496   3.069  12.932 -2.3174  1.5290 -0.5858
17828TIP3    H274976   0.506   3.168  13.046  0.1838  0.7686 -0.0788
17829TIP3   OH274977   5.961   1.969  14.123 -0.1553 -0.3636  0.0702
17829TIP3    H174978   5.960   2.041  14.186 -0.2620  0.2933 -0.6704
17829TIP3    H274979   6.005   1.898  14.169  0.9264  0.5180  0.4332
17830TIP3   OH274980   0.195   1.334  16.362  0.0669  0.7869 -0.0685
17830TIP3    H174981   0.238   1.256  16.397  0.6547  1.0690 -0.1531
17830TIP3    H274982   0.102   1.317  16.373  0.2026  0.2126  0.2147
17831TIP3   OH274983   1.406   2.451  12.726  0.2157  0.5537  0.4039
17831TIP3    H174984   1.463   2.393  12.674 -0.2031  1.1009 -0.6857
17831TIP3    H274985   1.459   2.474  12.802  0.2602 -1.5699  1.0833
17832TIP3   OH274986   3.768   1.038  14.133 -0.0815  0.1072  0.2284
17832TIP3    H174987   3.785   1.130  14.156  0.9103 -0.0545  0.1750
17832TIP3    H274988   3.719   1.042  14.051 -1.6928  0.6340  1.1691
17833TIP3   OH274989   0.222   4.403  12.450  0.5186 -0.1797  0.2738
17833TIP3    H174990   0.301   4.374  12.404  0.5787  0.3155  0.0599
17833TIP3    H274991   0.173   4.322  12.466  0.0560 -0.2979 -1.5031
17834TIP3   OH274992   1.035   2.222   1.531 -0.3935 -0.1918 -0.4199
17834TIP3    H174993   0.966   2.162   1.558 -0.6339  0.4463  0.4232
17834TIP3    H274994   1.070   2.258   1.613 -0.4182  0.9875 -0.8975
17835TIP3   OH274995   1.394   3.381   2.675 -0.0847  0.2837 -0.3987
17835TIP3    H174996   1.405   3.312   2.609 -0.2647 -1.1252  0.9727
17835TIP3    H274997   1.355   3.336   2.750  1.6216  1.4733  1.2853
17836TIP3   OH274998   4.292   6.573  12.121  0.1144  0.3919 -0.5418
17836TIP3    H174999   4.357   6.635  12.154 -0.0507 -0.0239  0.5933
17836TIP3    H275000   4.278   6.599  12.030  0.6645  1.4946 -0.3220
17837TIP3   OH275001   5.826   6.379   3.832 -0.9892 -0.3313  0.1236
17837TIP3    H175002   5.827   6.465   3.874 -1.4280 -0.2518 -0.0191
17837TIP3    H275003   5.911   6.372   3.788 -0.6596 -0.2775  0.7414
17838TIP3   OH275004   0.420   6.732  11.097 -0.0164 -0.3653 -0.1314
17838TIP3    H175005   0.367   6.755  11.020  1.2140 -1.3155 -1.3105
17838TIP3    H275006   0.357   6.705  11.163 -1.2906  2.6209  0.0321
17839TIP3   OH275007   2.738   5.320   3.994  0.1203 -0.2946 -0.0618
17839TIP3    H175008   2.806   5.296   4.057 -0.7420  0.1359  1.0665
17839TIP3    H275009   2.763   5.274   3.913  2.9210  1.5539 -0.3709
17840TIP3   OH275010   0.572   2.810   0.095 -0.6215  0.0210 -0.2375
17840TIP3    H175011   0.565   2.729   0.144 -2.9293  0.1121 -0.3126
17840TIP3    H275012   0.667   2.826   0.088 -0.1736 -0.8156  2.7582
17841TIP3   OH275013   1.068   5.691  10.677  0.4975  0.2098 -0.0987
17841TIP3    H175014   1.106   5.628  10.616 -0.1078  0.7847 -1.0792
17841TIP3    H275015   1.135   5.759  10.687 -0.2180  1.2417 -1.8576
17842TIP3   OH275016   0.340   4.224   0.318  0.1803 -0.1973 -0.0394
17842TIP3    H175017   0.307   4.157   0.258  0.1895 -0.2029 -0.0382
17842TIP3    H275018   0.354   4.177   0.400 -0.1423 -0.1210  0.0597
17843TIP3   OH275019   4.089   5.361   1.605  0.2113 -0.0780  0.3671
17843TIP3    H175020   4.073   5.290   1.543 -1.0227  1.4917 -1.2466
17843TIP3    H275021   4.046   5.332   1.686 -1.2300 -0.7268 -0.5853
17844TIP3   OH275022   0.825   0.949   5.284 -0.0835 -0.4616 -0.2442
17844TIP3    H175023   0.755   1.014   5.269  0.7756  0.3985 -0.6460
17844TIP3    H275024   0.837   0.949   5.379  0.9929  1.1956 -0.3307
17845TIP3   OH275025   5.558   4.929  14.991  0.5493 -0.8925  0.2124
17845TIP3    H175026   5.595   5.015  15.012 -1.7332  0.0007  0.9188
17845TIP3    H275027   5.547   4.886  15.076 -0.0856 -1.0983  0.0299
17846TIP3   OH275028   6.551   0.602  13.193  0.0988  0.1415  0.7724
17846TIP3    H175029   6.456   0.609  13.187  0.0030 -0.9536  0.7553
17846TIP3    H275030   6.581   0.690  13.215 -0.7023  1.1412 -1.7859
17847TIP3   OH275031   6.043   5.103  14.718  0.4003 -0.3703 -0.0988
17847TIP3    H175032   6.056   5.198  14.724 -1.0093 -0.2185  1.2687
17847TIP3    H275033   6.081   5.068  14.799  0.7565 -0.9610 -0.5146
17848TIP3   OH275034   3.223   2.589  16.419  0.3977  0.2995 -0.6993
17848TIP3    H175035   3.138   2.546  16.415  0.1910  0.6098  0.2302
17848TIP3    H275036   3.283   2.528  16.375 -0.1339 -0.3304 -0.5605
17849TIP3   OH275037   5.540   5.879  12.014  0.3461 -0.2645  0.1134
17849TIP3    H175038   5.498   5.825  11.948 -0.0524  2.1753 -1.7985
17849TIP3    H275039   5.517   5.838  12.098 -0.7451 -2.3946 -1.1446
17850TIP3   OH275040   6.663   0.563   2.745  0.2116 -0.3102 -0.3956
17850TIP3    H175041   6.638   0.593   2.657  0.5412  0.4620 -0.2385
17850TIP3    H275042   6.586   0.583   2.799  1.0536  1.9938  0.0719
17851TIP3   OH275043   5.942   6.052  17.011 -0.6518 -0.6986  0.3610
17851TIP3    H175044   5.945   5.986  17.081 -0.5710 -0.6698  0.3842
17851TIP3    H275045   5.980   6.130  17.050 -0.6110 -0.6806  0.2858
17852TIP3   OH275046   2.340   4.551   2.854  0.2785 -0.4562 -0.6784
17852TIP3    H175047   2.370   4.536   2.944  0.4042  0.0238 -0.6403
17852TIP3    H275048   2.420   4.553   2.802  0.2091 -0.6747 -0.7936
17853TIP3   OH275049   3.552   0.591  16.320  0.2420  0.4429  0.5942
17853TIP3    H175050   3.495   0.532  16.270  1.2270  0.1552 -0.2384
17853TIP3    H275051   3.634   0.542  16.329  0.4683  0.9648  1.5120
17854TIP3   OH275052   2.203   1.075  16.969  0.3500 -0.3106 -0.3392
17854TIP3    H175053   2.275   1.097  16.910  0.0292 -1.7858 -1.3351
17854TIP3    H275054   2.136   1.141  16.951  0.9064  0.2482 -0.3928
17855TIP3   OH275055   0.446   4.443  13.234  0.0107 -0.0892  0.4679
17855TIP3    H175056   0.397   4.425  13.154  0.0873 -0.5230  0.5206
17855TIP3    H275057   0.529   4.480  13.204  0.7847 -1.9094  0.2607
17856TIP3   OH275058   5.094   2.038  14.774 -0.4485 -0.4277 -0.3492
17856TIP3    H175059   5.026   2.105  14.764 -0.7456 -0.4367  1.2977
17856TIP3    H275060   5.171   2.087  14.802 -0.7726 -0.7930  1.2346
17857TIP3   OH275061   3.148   2.219   5.380  0.2892  0.0302 -0.5049
17857TIP3    H175062   3.110   2.243   5.465  1.6032 -1.0743  0.4336
17857TIP3    H275063   3.076   2.231   5.318 -0.3888  1.9680  0.5638
17858TIP3   OH275064   1.067   6.213   1.635  0.3335  0.1077  0.2829
17858TIP3    H175065   1.143   6.257   1.673  0.2381  1.2209 -0.7598
17858TIP3    H275066   0.992   6.255   1.677  0.2525 -0.8540  1.1648
17859TIP3   OH275067   1.060   5.868   3.003  0.7290  0.4944 -0.2420
17859TIP3    H175068   1.109   5.862   3.085 -2.4649  1.6198  1.9365
17859TIP3    H275069   1.068   5.959   2.977  0.9105  0.3638 -0.6555
17860TIP3   OH275070   4.395   6.056   5.759  0.1210 -0.0824 -0.1256
17860TIP3    H175071   4.347   6.134   5.786  0.8935 -0.8104  4.2329
17860TIP3    H275072   4.328   5.997   5.724 -1.7033  0.2415  2.5198
17861TIP3   OH275073   5.868   0.806  14.552 -0.0177 -0.0664  0.6087
17861TIP3    H175074   5.825   0.868  14.611 -0.2557 -2.1895  2.8456
17861TIP3    H275075   5.948   0.850  14.525 -0.7042  1.6305  1.1920
17862TIP3   OH275076   2.006   4.573   6.041  0.2933  0.2429  0.0876
17862TIP3    H175077   1.971   4.605   6.125  0.7128  2.6035 -0.5461
17862TIP3    H275078   2.098   4.554   6.059 -0.6980 -4.4955  1.3781
17863TIP3   OH275079   0.920   1.393   5.895  0.2175  0.1739  0.3330
17863TIP3    H175080   0.856   1.336   5.853  0.2755 -0.1001  0.6132
17863TIP3    H275081   0.871   1.438   5.964  0.4133 -0.3346  0.8110
17864TIP3   OH275082   4.766   3.991   1.621  0.5773  0.0796  0.5331
17864TIP3    H175083   4.672   4.000   1.635  0.6912  1.1826  0.6691
17864TIP3    H275084   4.797   3.942   1.697  0.2074  0.2588  0.8044
17865TIP3   OH275085   6.771   2.326   5.654 -0.3453 -0.8728 -0.0511
17865TIP3    H175086   6.759   2.384   5.729 -0.1723 -0.4151 -0.3692
17865TIP3    H275087   6.717   2.250   5.673 -0.3489 -0.7349  0.5091
17866TIP3   OH275088   5.511   4.061  10.458 -0.3150 -0.0546 -0.3746
17866TIP3    H175089   5.468   4.121  10.519 -0.5598 -1.0719  0.4874
17866TIP3    H275090   5.591   4.107  10.431  0.8282 -0.3377  2.2611
17867TIP3   OH275091   0.981   5.159  13.030  0.1671 -0.0165 -0.2720
17867TIP3    H175092   0.924   5.084  13.013 -0.0500  0.4807 -1.9032
17867TIP3    H275093   1.050   5.153  12.964  0.5206  0.8436 -0.0007
17868TIP3   OH275094   6.596   3.801   0.649  0.2032  0.2554 -0.5064
17868TIP3    H175095   6.553   3.761   0.573 -0.0166 -1.0460  0.2635
17868TIP3    H275096   6.527   3.851   0.693  0.1517  0.4066 -0.7585
17869TIP3   OH275097   1.978   3.156   4.142  0.0719  0.1903  0.5170
17869TIP3    H175098   2.068   3.145   4.112 -0.7820 -0.4106 -2.0516
17869TIP3    H275099   1.971   3.099   4.219  1.4672 -1.0497 -0.2221
17870TIP3   OH275100   6.317   4.570   4.113 -0.2574 -0.2664  0.8585
17870TIP3    H175101   6.301   4.519   4.192  1.3757  0.5484  1.7713
17870TIP3    H275102   6.370   4.644   4.143  3.3525 -1.6700 -1.4563
17871TIP3   OH275103   0.841   5.892   4.352 -0.2525 -0.1494 -0.3583
17871TIP3    H175104   0.807   5.968   4.305 -1.3277  0.3737  1.2196
17871TIP3    H275105   0.877   5.927   4.433  2.1161 -0.9653 -0.9624
17872TIP3   OH275106   5.133   1.247   3.374  0.4771  0.7546 -0.3353
17872TIP3    H175107   5.080   1.324   3.395  0.4314  0.1561  2.1171
17872TIP3    H275108   5.222   1.273   3.395  0.3243 -0.1537  1.7033
17873TIP3   OH275109   3.259   2.662   3.333 -0.0393 -0.0303 -0.0453
17873TIP3    H175110   3.265   2.697   3.244 -0.2396  0.7568  0.2431
17873TIP3    H275111   3.340   2.691   3.376 -0.3449  0.3502  0.2863
17874TIP3   OH275112   3.600   4.148   1.394  0.4546 -0.0464  0.0958
17874TIP3    H175113   3.614   4.167   1.301 -1.2336 -1.3827 -0.4810
17874TIP3    H275114   3.547   4.221   1.426  0.1438 -0.1064 -0.2738
17875TIP3   OH275115   5.561   3.765   6.294  0.3813  0.0131  0.1890
17875TIP3    H175116   5.535   3.766   6.386  0.6139 -0.1226  0.2556
17875TIP3    H275117   5.655   3.780   6.295  0.0286  2.7851 -0.1520
17876TIP3   OH275118   4.507   0.035   0.923 -0.1701  0.0002 -0.3065
17876TIP3    H175119   4.583   0.080   0.886 -0.4954 -1.0704 -2.4205
17876TIP3    H275120   4.531  -0.058   0.923 -1.1986 -0.2760 -0.2952
17877TIP3   OH275121   4.630   0.428  13.468 -0.5247 -0.0542 -0.0284
17877TIP3    H175122   4.630   0.381  13.551 -0.5812 -1.0142 -0.5628
17877TIP3    H275123   4.723   0.437  13.446 -0.4759 -2.8694 -1.5198
17878TIP3   OH275124   4.182   4.419  12.540  0.1850 -0.2662 -0.0617
17878TIP3    H175125   4.257   4.385  12.490 -1.4571 -1.8584 -1.6269
17878TIP3    H275126   4.165   4.352  12.606 -0.1651 -0.1407 -0.0246
17879TIP3   OH275127   6.421   1.267  11.178 -0.5965 -0.7290 -0.2438
17879TIP3    H175128   6.332   1.263  11.213 -0.3000  0.6687  0.7406
17879TIP3    H275129   6.450   1.357  11.195  1.7545 -1.6751  1.3454
17880TIP3   OH275130   5.870   5.042  14.381  0.7504  0.1536  0.3993
17880TIP3    H175131   5.914   4.980  14.439  1.4403  0.4480  0.1873
17880TIP3    H275132   5.820   5.099  14.440 -1.6688 -1.8952  0.5305
17881TIP3   OH275133   5.643   0.945  16.852  0.4163  0.3756  0.2683
17881TIP3    H175134   5.594   0.974  16.929 -0.4276  0.1782 -0.1886
17881TIP3    H275135   5.693   0.870  16.883 -0.0960  0.1529  0.5704
17882TIP3   OH275136   1.197   5.799  12.449  0.2441  0.3084 -0.5836
17882TIP3    H175137   1.113   5.844  12.460  1.5628  2.1934  3.4338
17882TIP3    H275138   1.200   5.734  12.520  1.8966 -0.2568 -1.1139
17883TIP3   OH275139   5.077   1.584   0.500 -0.0383  0.0616  0.2248
17883TIP3    H175140   5.070   1.654   0.565  1.1305 -0.1694  0.6221
17883TIP3    H275141   5.171   1.577   0.482 -0.3645  0.4474 -1.8778
17884TIP3   OH275142   5.401   5.087  14.501 -0.0403  0.9520  0.1305
17884TIP3    H175143   5.459   5.163  14.507 -0.4414  1.4539 -1.5939
17884TIP3    H275144   5.453   5.014  14.534  0.8472  1.7410  0.5131
17885TIP3   OH275145   5.188   2.153  13.292 -0.5007 -0.0665  0.0144
17885TIP3    H175146   5.234   2.157  13.376 -1.7639  0.0823  0.7195
17885TIP3    H275147   5.158   2.242  13.277  0.8719  0.2061 -1.2880
17886TIP3   OH275148   1.439   5.314   3.333 -0.1872 -0.1700  0.2476
17886TIP3    H175149   1.352   5.345   3.360 -0.0861 -0.3093  0.7384
17886TIP3    H275150   1.427   5.221   3.314  0.0751 -0.4416  1.3486
17887TIP3   OH275151   4.094   0.295   4.330  0.5452 -0.5236  0.2870
17887TIP3    H175152   4.156   0.226   4.352  0.8345 -0.3388  0.0560
17887TIP3    H275153   4.055   0.319   4.414  1.9078  0.4292  0.6873
17888TIP3   OH275154   1.647   3.747   0.182 -0.0620  0.0952  0.3465
17888TIP3    H175155   1.667   3.663   0.222 -0.2341 -1.4319 -2.4799
17888TIP3    H275156   1.725   3.769   0.131 -0.7613  0.5938 -0.5530
17889TIP3   OH275157   1.637   0.250   5.730 -0.3615  0.5762  0.4255
17889TIP3    H175158   1.615   0.175   5.676 -2.2930  1.3485  0.0790
17889TIP3    H275159   1.707   0.294   5.682  0.4853 -0.7294  0.4194
17890TIP3   OH275160   5.460   5.868   2.443  0.1692  0.0459 -0.2229
17890TIP3    H175161   5.447   5.827   2.528 -0.6868 -1.4210 -1.0266
17890TIP3    H275162   5.388   5.931   2.435  0.3215  0.2778  0.1651
17891TIP3   OH275163   4.525   2.826   1.724 -0.1896 -0.0991  0.1032
17891TIP3    H175164   4.529   2.822   1.629 -1.6241 -0.3701  0.0326
17891TIP3    H275165   4.591   2.890   1.749 -0.9347  1.2311 -1.2053
17892TIP3   OH275166   1.395   3.946  12.068  0.2801  0.0178  0.1196
17892TIP3    H175167   1.478   3.927  12.112 -0.1507 -0.8655  0.5737
17892TIP3    H275168   1.328   3.905  12.124 -0.5665  1.5868  0.3075
17893TIP3   OH275169   6.670   3.145  14.332  0.0161 -0.1342 -0.7985
17893TIP3    H175170   6.733   3.120  14.264  0.3504  0.6752 -0.7989
17893TIP3    H275171   6.687   3.237  14.347 -0.5289 -0.1418 -0.1010
17894TIP3   OH275172   1.088   1.324  15.986  0.3202 -0.4493 -0.3808
17894TIP3    H175173   1.154   1.393  16.000  1.0181 -0.6975 -2.2001
17894TIP3    H275174   1.059   1.337  15.896  0.0921 -2.2266 -0.5855
17895TIP3   OH275175   4.816   2.333   5.946 -0.1100  0.1148  0.5308
17895TIP3    H175176   4.867   2.379   6.013 -1.8080  0.3768  1.6966
17895TIP3    H275177   4.726   2.335   5.978 -0.6093 -1.9591 -0.5449
17896TIP3   OH275178   3.231   0.765  13.716 -0.5392  0.1929  0.0211
17896TIP3    H175179   3.218   0.788  13.808  2.5111 -1.5782  1.0588
17896TIP3    H275180   3.214   0.671  13.713 -0.0985  0.1390 -1.1261
17897TIP3   OH275181   4.249   1.118   3.807  0.0170 -0.2092  0.8635
17897TIP3    H175182   4.281   1.114   3.897 -0.4209  2.3303  1.1919
17897TIP3    H275183   4.157   1.144   3.816 -1.0714 -3.1721 -0.2433
17898TIP3   OH275184   5.876   3.973   1.414  0.3860 -0.1180 -0.2043
17898TIP3    H175185   5.787   3.978   1.449  0.2396  0.5870 -0.6603
17898TIP3    H275186   5.921   4.048   1.452  0.6046 -0.1119 -0.4749
17899TIP3   OH275187   5.539   5.377   3.003  0.3311 -0.3281 -0.1531
17899TIP3    H175188   5.578   5.383   2.916 -0.3175  0.3694 -0.4115
17899TIP3    H275189   5.606   5.409   3.062 -0.3321  2.3930 -0.7481
17900TIP3   OH275190   5.496   2.576   4.851 -0.3631  0.1663  0.3002
17900TIP3    H175191   5.454   2.660   4.836 -0.8136 -0.0838  0.1156
17900TIP3    H275192   5.424   2.517   4.874  0.1222  0.2049  2.0923
17901TIP3   OH275193   6.286   2.278  10.404  0.1453 -0.5291  0.2158
17901TIP3    H175194   6.299   2.188  10.374  1.3786 -0.4732  0.5163
17901TIP3    H275195   6.372   2.319  10.395 -0.2741  0.4634  0.5942
17902TIP3   OH275196   5.824   6.428  14.262 -0.1136 -0.0848  0.2338
17902TIP3    H175197   5.785   6.394  14.342 -0.7892 -0.6321 -0.3155
17902TIP3    H275198   5.895   6.484  14.292 -0.3735 -0.2623  1.2141
17903TIP3   OH275199   4.455   3.362   1.307 -0.4684  0.3586  0.0794
17903TIP3    H175200   4.463   3.311   1.387 -0.5798  0.5496  0.2137
17903TIP3    H275201   4.542   3.399   1.293 -0.3754  0.0972 -0.0432
17904TIP3   OH275202   6.270   4.927   2.182 -0.3206  0.1379 -0.7991
17904TIP3    H175203   6.268   4.851   2.240  1.3474 -1.5106 -2.7247
17904TIP3    H275204   6.263   4.890   2.094  1.0946  2.1662 -1.8453
17905TIP3   OH275205   4.455   3.630  13.531  0.4094 -0.7847 -0.7760
17905TIP3    H175206   4.528   3.681  13.567 -0.8108 -0.5461  1.5431
17905TIP3    H275207   4.456   3.548  13.581 -2.1492  0.1021  0.9337
17906TIP3   OH275208   0.020   6.432  15.857  0.4577  0.4272 -0.0970
17906TIP3    H175209   0.091   6.462  15.801  1.5309 -0.9426  0.4592
17906TIP3    H275210  -0.012   6.353  15.815  2.3394 -1.5440  1.9004
17907TIP3   OH275211   3.256   1.819   1.204  0.0629  0.1514  0.0231
17907TIP3    H175212   3.294   1.838   1.290  0.5369  0.1994 -0.1915
17907TIP3    H275213   3.167   1.791   1.223  0.5425 -1.0407  0.6281
17908TIP3   OH275214   5.637   0.426   5.891 -0.0510 -0.0595  0.2361
17908TIP3    H175215   5.543   0.409   5.887  0.0780 -0.6110 -0.8612
17908TIP3    H275216   5.668   0.375   5.966 -0.1161 -2.7070 -1.3965
17909TIP3   OH275217   0.705   4.844   1.683  0.0111  0.2279 -0.2744
17909TIP3    H175218   0.757   4.915   1.719  0.7786 -0.6341  0.3527
17909TIP3    H275219   0.762   4.803   1.618  0.5782 -1.3927  1.1682
17910TIP3   OH275220   2.278   2.101   3.937 -0.0154 -0.5792 -0.0309
17910TIP3    H175221   2.259   2.181   3.986  0.4968 -0.7313  0.4145
17910TIP3    H275222   2.220   2.106   3.861  1.5458  1.3146 -1.2054
17911TIP3   OH275223   3.098   4.504  11.158 -0.3846  0.1886  0.1208
17911TIP3    H175224   3.077   4.597  11.151  2.1200  0.8290  0.1441
17911TIP3    H275225   3.100   4.487  11.252 -1.8523 -0.2019  0.1136
17912TIP3   OH275226   2.568   1.896   2.875 -0.3174 -0.3363 -0.0522
17912TIP3    H175227   2.557   1.801   2.868 -3.8754 -0.3266  2.7226
17912TIP3    H275228   2.505   1.932   2.812  0.3092  0.1990 -0.3868
17913TIP3   OH275229   5.172   4.318   6.554  0.4175 -0.2663  0.3398
17913TIP3    H175230   5.134   4.355   6.634 -1.6371 -0.5190 -0.4578
17913TIP3    H275231   5.160   4.387   6.488  0.9022 -0.5537 -0.0489
17914TIP3   OH275232   3.045   0.664  16.717 -0.1804 -0.2343 -0.1940
17914TIP3    H175233   3.136   0.638  16.727 -0.2951  0.2233  3.5010
17914TIP3    H275234   2.998   0.612  16.782 -2.7620 -0.9289 -2.4058
17915TIP3   OH275235   2.986   1.091  15.735  0.9202  0.3311  0.3677
17915TIP3    H175236   2.932   1.152  15.685  2.9899  1.4629 -0.6415
17915TIP3    H275237   2.986   1.125  15.824 -0.9681 -0.3953  0.6737
17916TIP3   OH275238   4.092   3.755   2.844  0.5806  0.7548  0.6280
17916TIP3    H175239   4.185   3.771   2.828  0.8165 -0.9384  0.0844
17916TIP3    H275240   4.090   3.681   2.904 -0.3986 -0.1001 -0.4041
17917TIP3   OH275241   3.026   1.866  15.828 -0.5291 -0.4475 -0.3170
17917TIP3    H175242   3.018   1.771  15.836  0.3473 -0.6305 -1.4520
17917TIP3    H275243   3.002   1.899  15.915 -3.9151 -1.4666 -0.7146
17918TIP3   OH275244   1.143   1.996   3.766 -0.2102  0.0233  0.6937
17918TIP3    H175245   1.126   2.005   3.860 -4.7978  0.0399  0.0694
17918TIP3    H275246   1.137   1.902   3.749 -1.7423  0.1775  0.1798
17919TIP3   OH275247   5.441   3.949   3.474  0.0679 -0.5766 -0.8094
17919TIP3    H175248   5.491   3.874   3.506 -1.0010 -1.2291 -0.6511
17919TIP3    H275249   5.445   4.013   3.545 -2.0782 -1.9108  0.6273
17920TIP3   OH275250   1.594   1.990  12.310  0.3669  0.0702  0.4338
17920TIP3    H175251   1.642   2.068  12.283 -2.5848  2.1206  0.6324
17920TIP3    H275252   1.590   1.996  12.406  0.7630 -0.7813  0.5172
17921TIP3   OH275253   6.801   3.997   2.338 -0.3795 -0.7537 -0.4332
17921TIP3    H175254   6.812   4.062   2.408 -2.2589 -0.3814 -0.4318
17921TIP3    H275255   6.877   3.940   2.347  0.9017  0.9279  0.1018
17922TIP3   OH275256   0.093   6.795  11.171  0.4492  0.3654  0.6403
17922TIP3    H175257   0.140   6.782  11.088 -1.3440  1.6399 -0.6504
17922TIP3    H275258   0.011   6.747  11.160 -0.3157  1.5035  1.1800
17923TIP3   OH275259   4.806   5.934   3.372  0.1748 -0.6277  0.4452
17923TIP3    H175260   4.835   5.972   3.289 -0.8119 -0.5822  0.1111
17923TIP3    H275261   4.857   5.979   3.439  0.0913  0.2061 -0.0500
17924TIP3   OH275262   3.615   2.693   2.674 -0.3860  0.0921  0.5408
17924TIP3    H175263   3.572   2.709   2.590  0.3058  2.0721  0.5079
17924TIP3    H275264   3.681   2.762   2.680  1.6483 -1.8223  1.3624
17925TIP3   OH275265   3.257   3.830  12.805 -0.4532 -0.4436  0.3601
17925TIP3    H175266   3.187   3.772  12.834  0.7457 -1.9707  0.3482
17925TIP3    H275267   3.276   3.802  12.716  0.0767  0.0328  0.3176
17926TIP3   OH275268   2.532   2.336   3.972 -0.1106  0.3652 -0.3102
17926TIP3    H175269   2.527   2.332   4.067  2.0352 -1.5252 -0.1970
17926TIP3    H275270   2.567   2.251   3.946 -1.2933  0.5761 -2.8693
17927TIP3   OH275271   1.889   1.938   3.369 -0.2904 -0.2162 -1.2628
17927TIP3    H175272   1.925   1.966   3.285 -0.3458 -0.5485 -1.4006
17927TIP3    H275273   1.853   1.851   3.351  2.1364 -1.5442 -0.2831
17928TIP3   OH275274   1.675   5.312  12.907  0.1714 -0.7121 -0.5559
17928TIP3    H175275   1.660   5.220  12.886  0.4801 -1.4202  1.9673
17928TIP3    H275276   1.678   5.314  13.003  2.7249  1.4948 -0.5636
17929TIP3   OH275277   2.479   3.446  16.426 -0.1161 -0.8287 -0.2156
17929TIP3    H175278   2.490   3.514  16.493 -0.6253 -0.2692 -0.6894
17929TIP3    H275279   2.537   3.474  16.355  0.5133 -1.4830  0.0236
17930TIP3   OH275280   4.092   3.379   1.373 -0.1736  0.0006  0.2429
17930TIP3    H175281   4.018   3.371   1.434 -1.7737 -0.7536 -1.6937
17930TIP3    H275282   4.064   3.443   1.308  0.9386 -0.1767 -0.4428
17931TIP3   OH275283   5.368   4.020   4.435  0.5524 -0.1538 -0.3762
17931TIP3    H175284   5.301   3.960   4.403 -0.4072  1.0179 -0.6684
17931TIP3    H275285   5.358   4.018   4.531  1.4011 -1.3969 -0.2893
17932TIP3   OH275286   3.305   6.610   5.464  0.5658 -0.1137 -0.1967
17932TIP3    H175287   3.247   6.679   5.430  1.0368 -0.1698 -1.1381
17932TIP3    H275288   3.392   6.634   5.433  0.9696 -0.3315  0.7435
17933TIP3   OH275289   1.979   4.048  14.076  0.2241 -0.1133  0.2038
17933TIP3    H175290   1.896   4.067  14.031 -0.0520 -0.0817  0.7290
17933TIP3    H275291   2.046   4.072  14.012 -0.1741 -0.6759 -0.4422
17934TIP3   OH275292   0.122   5.216   6.299  0.6990 -0.8753 -0.1524
17934TIP3    H175293   0.188   5.152   6.271  0.1724 -1.5670  0.1556
17934TIP3    H275294   0.134   5.222   6.394  2.4530  1.4304 -0.4220
17935TIP3   OH275295   3.191   1.878   5.951 -0.4195  0.0961  0.2369
17935TIP3    H175296   3.128   1.918   5.891 -0.8790  1.1025  1.3539
17935TIP3    H275297   3.263   1.940   5.954 -0.9169  0.6370  1.6083
17936TIP3   OH275298   2.155   2.907  13.489  0.0780 -0.0693 -0.2400
17936TIP3    H175299   2.137   2.920  13.396 -0.3047  0.1960 -0.1328
17936TIP3    H275300   2.222   2.839  13.492 -1.4131 -1.5992 -0.6268
17937TIP3   OH275301   0.948   5.808   2.058  0.0602 -0.1584  0.6077
17937TIP3    H175302   0.914   5.869   2.123 -4.0231 -0.0965 -1.2620
17937TIP3    H275303   0.932   5.851   1.974  4.0801 -0.7182 -0.6705
17938TIP3   OH275304   4.486   1.147  11.095 -0.4461  0.5899  0.1448
17938TIP3    H175305   4.554   1.140  11.027 -1.6207  1.2723 -1.1551
17938TIP3    H275306   4.495   1.066  11.146  1.7146  0.9269  0.4062
17939TIP3   OH275307   3.164   3.290  15.107  0.3969  0.0789  0.5810
17939TIP3    H175308   3.148   3.326  15.194 -0.7039 -2.3645  1.4876
17939TIP3    H275309   3.099   3.332  15.051  0.6486  1.1501  1.0749
17940TIP3   OH275310   2.027   2.786   0.503 -0.1848  0.4898 -0.2777
17940TIP3    H175311   1.945   2.832   0.483 -1.8038 -2.1340 -0.3174
17940TIP3    H275312   2.060   2.758   0.417  0.0362  0.4268 -0.1728
17941TIP3   OH275313   0.405   6.697   3.032  0.0783 -0.6521  0.7032
17941TIP3    H175314   0.399   6.670   2.940  1.0077  0.6438  0.2480
17941TIP3    H275315   0.498   6.691   3.054  0.1215  0.7867  1.0032
17942TIP3   OH275316   2.460   3.990   5.481 -0.1665  0.1942 -0.6381
17942TIP3    H175317   2.498   3.947   5.405  2.7138 -2.5208  2.0566
17942TIP3    H275318   2.525   4.055   5.507  0.3501 -0.9664  1.1258
17943TIP3   OH275319   3.049   5.316   2.842 -0.7249  0.5957  0.5296
17943TIP3    H175320   2.957   5.323   2.816 -0.7511  1.0433  0.7428
17943TIP3    H275321   3.094   5.381   2.787 -0.2883 -0.6979 -0.7122
17944TIP3   OH275322   3.262   4.229  13.571 -0.1441  0.2592  0.0309
17944TIP3    H175323   3.216   4.199  13.649 -0.4018 -0.5842 -0.4335
17944TIP3    H275324   3.194   4.269  13.517  0.2466  2.0486  0.7855
17945TIP3   OH275325   5.687   2.628   2.851  0.5775  0.1841  0.2344
17945TIP3    H175326   5.749   2.651   2.919  2.1202  0.9535 -1.3616
17945TIP3    H275327   5.693   2.532   2.845  0.8769  0.1670  0.7574
17946TIP3   OH275328   3.404   4.313   1.466 -0.1126 -0.9360  0.4092
17946TIP3    H175329   3.379   4.332   1.556  1.5951  1.5244  0.4798
17946TIP3    H275330   3.368   4.386   1.416  0.6365 -1.2198 -0.5731
17947TIP3   OH275331   2.084   4.937  13.192 -0.4674  0.4045  0.5778
17947TIP3    H175332   2.165   4.961  13.146 -0.0311  1.2103  1.6875
17947TIP3    H275333   2.107   4.948  13.285 -2.1063  1.5342  0.8860
17948TIP3   OH275334   4.747   3.859   0.920  0.3158  0.1200  0.0767
17948TIP3    H175335   4.798   3.805   0.859 -0.1750  0.0136 -0.2452
17948TIP3    H275336   4.660   3.862   0.882 -0.2692 -0.7623  1.2728
17949TIP3   OH275337   2.046   3.348   1.497  0.1059 -0.0707 -0.3257
17949TIP3    H175338   2.079   3.286   1.562 -0.2570 -0.3130 -0.3730
17949TIP3    H275339   1.972   3.391   1.539  1.8678  2.1986  0.6968
17950TIP3   OH275340   2.534   0.368   1.455  0.8479 -0.3584  0.1612
17950TIP3    H175341   2.540   0.310   1.379 -1.4723 -1.6038  0.8134
17950TIP3    H275342   2.464   0.429   1.432  0.6804 -0.2369  0.9666
17951TIP3   OH275343   0.599   3.826   1.083  0.0110 -0.8239  0.0534
17951TIP3    H175344   0.560   3.854   1.000  0.6676  1.6245  0.4891
17951TIP3    H275345   0.685   3.791   1.058  0.0482 -0.4533 -0.3526
17952TIP3   OH275346   0.502   5.646  15.871  0.1294  0.1042 -0.0991
17952TIP3    H175347   0.502   5.681  15.961 -0.6846 -1.2630  0.4633
17952TIP3    H275348   0.494   5.724  15.816 -2.3491  0.8571  1.1236
17953TIP3   OH275349   1.588   6.529  15.830  0.9033  0.0002  0.1748
17953TIP3    H175350   1.523   6.585  15.873 -0.9456 -0.9233 -1.2268
17953TIP3    H275351   1.594   6.564  15.741  1.6943 -0.4489  0.0414
17954TIP3   OH275352   4.359   3.935  15.803  0.1728  0.6482  0.3163
17954TIP3    H175353   4.358   3.855  15.750 -0.0133 -0.6422  2.1724
17954TIP3    H275354   4.341   4.005  15.741  1.7443 -0.5647 -1.6444
17955TIP3   OH275355   3.711   2.164  14.489 -0.2321 -0.7989  0.2976
17955TIP3    H175356   3.711   2.074  14.523  0.6380 -1.2141 -0.7444
17955TIP3    H275357   3.624   2.197  14.509 -0.0753 -1.3202  2.1019
17956TIP3   OH275358   3.353   5.591   0.374  0.4199  0.0953  0.6617
17956TIP3    H175359   3.437   5.575   0.332 -0.4700 -0.2073 -1.1234
17956TIP3    H275360   3.307   5.507   0.369 -0.9346  0.8524 -0.7709
17957TIP3   OH275361   4.027   2.692  13.285 -0.0494  0.0109 -0.1422
17957TIP3    H175362   3.963   2.677  13.355  1.0227 -1.2809  0.6261
17957TIP3    H275363   4.013   2.618  13.225  0.6615 -0.2469  0.0030
17958TIP3   OH275364   2.033   4.058  15.068 -0.5357 -0.1727  0.0796
17958TIP3    H175365   1.964   4.065  15.134 -0.7297  0.6398 -0.1906
17958TIP3    H275366   2.068   3.970  15.079  0.4774  0.4286  2.3145
17959TIP3   OH275367   1.188   6.807  14.166 -0.2877 -0.4875  0.3177
17959TIP3    H175368   1.134   6.885  14.173 -1.2057 -1.0888  0.0981
17959TIP3    H275369   1.160   6.765  14.085 -0.6425 -1.6568  1.0139
17960TIP3   OH275370   0.766   3.233   4.211  0.3886 -0.1139  0.2075
17960TIP3    H175371   0.810   3.240   4.296 -0.2091 -1.0164  0.6008
17960TIP3    H275372   0.836   3.249   4.147  1.1247 -0.6872  0.8403
17961TIP3   OH275373   4.067   0.646  11.068  0.1212 -0.7019  0.6240
17961TIP3    H175374   4.042   0.636  10.976 -2.6852  4.2976  0.4649
17961TIP3    H275375   3.988   0.622  11.116  0.5838 -0.4971  1.5006
17962TIP3   OH275376   6.351   1.500  13.041 -0.5790 -0.1618 -0.3146
17962TIP3    H175377   6.341   1.595  13.043 -2.1942 -0.2602 -1.7505
17962TIP3    H275378   6.262   1.466  13.030  0.0338 -1.8155 -0.5030
17963TIP3   OH275379   1.019   1.686   4.826  0.2129  0.1418 -0.0439
17963TIP3    H175380   0.975   1.736   4.895 -0.1544 -0.8303  0.4471
17963TIP3    H275381   1.065   1.616   4.873 -1.9289 -1.9605 -0.8860
17964TIP3   OH275382   2.383   4.576   1.389 -0.5652 -0.1365 -0.0480
17964TIP3    H175383   2.347   4.527   1.463  1.2631  1.6181  2.1541
17964TIP3    H275384   2.469   4.537   1.375  0.3739  1.5268  0.8701
17965TIP3   OH275385   6.058   6.205   4.134  0.4889 -0.2779 -0.0931
17965TIP3    H175386   5.977   6.210   4.184 -1.6833 -0.8059 -3.2792
17965TIP3    H275387   6.076   6.111   4.126 -0.3230 -0.3295 -1.8257
17966TIP3   OH275388   2.503   1.662  14.345 -0.0280  0.0980  0.0002
17966TIP3    H175389   2.421   1.706  14.368  0.1972  0.8391 -0.5839
17966TIP3    H275390   2.559   1.732  14.311  0.4100 -0.6022 -0.7424
17967TIP3   OH275391   5.625   4.405   0.132  0.7475  0.0120  0.2370
17967TIP3    H175392   5.588   4.340   0.192  0.3759  0.4562  0.4908
17967TIP3    H275393   5.557   4.418   0.066  0.8409  0.1115  0.1607
17968TIP3   OH275394   4.219   2.469   5.086 -0.1995  0.3091 -0.3273
17968TIP3    H175395   4.213   2.518   5.004 -2.0206  1.2683  0.3058
17968TIP3    H275396   4.224   2.377   5.060  0.7852  0.6863 -1.5146
17969TIP3   OH275397   1.320   6.541  16.652 -0.6319  0.3765 -0.0990
17969TIP3    H175398   1.326   6.631  16.621 -1.5567  0.5973  0.3238
17969TIP3    H275399   1.255   6.544  16.722 -1.7938 -0.8761 -1.0650
17970TIP3   OH275400   0.606   2.694   2.341 -0.3611 -0.1780 -0.2027
17970TIP3    H175401   0.555   2.776   2.340 -0.4449 -0.2307 -0.2333
17970TIP3    H275402   0.695   2.722   2.362 -0.0501  0.1196 -1.8038
17971TIP3   OH275403   0.508   3.796   6.063 -0.2217 -0.3532 -0.2476
17971TIP3    H175404   0.559   3.746   6.126  0.6012 -0.0282 -0.6370
17971TIP3    H275405   0.507   3.885   6.097  0.7122 -0.0534 -0.9623
17972TIP3   OH275406   6.446   2.162   5.533  0.1962  0.7576  0.2842
17972TIP3    H175407   6.360   2.201   5.550 -0.7261 -1.0990  0.1711
17972TIP3    H275408   6.488   2.160   5.619  0.8975  3.2649  0.0692
17973TIP3   OH275409   3.656   3.649  11.451 -0.1501 -0.4894 -0.4776
17973TIP3    H175410   3.629   3.621  11.538 -2.6928 -0.1895 -1.0954
17973TIP3    H275411   3.703   3.732  11.466  0.0818 -0.8027  0.6365
17974TIP3   OH275412   2.805   0.146   3.389 -0.1581  0.8294 -0.1721
17974TIP3    H175413   2.889   0.173   3.352  0.3597  0.6929  0.8816
17974TIP3    H275414   2.791   0.058   3.355 -0.8589  1.5759 -1.9496
17975TIP3   OH275415   5.456   4.048  17.034  0.2954  0.5626 -0.4279
17975TIP3    H175416   5.368   4.023  17.004  0.3300  0.9995 -0.9271
17975TIP3    H275417   5.463   4.141  17.010  1.1619  0.3497 -1.0573
17976TIP3   OH275418   2.309   4.669  13.767  0.2870  0.1372 -0.0733
17976TIP3    H175419   2.401   4.646  13.749  0.1921 -0.6062  0.3288
17976TIP3    H275420   2.312   4.759  13.798  0.7440  0.5356 -1.2085
17977TIP3   OH275421   6.232   6.790   5.160  0.0196 -0.4825 -0.1033
17977TIP3    H175422   6.267   6.876   5.139  0.8900 -0.8058 -0.0080
17977TIP3    H275423   6.197   6.757   5.077 -0.0335 -0.1709 -0.2044
17978TIP3   OH275424   1.755   2.600   5.659  0.0893  0.4507 -0.1548
17978TIP3    H175425   1.698   2.524   5.668 -0.4106  1.0680  2.5797
17978TIP3    H275426   1.696   2.673   5.641  0.3403  0.5998 -0.3926
17979TIP3   OH275427   3.885   5.902  15.455  0.3661 -0.6708 -0.5032
17979TIP3    H175428   3.904   5.985  15.499 -0.5656  0.0352 -1.3556
17979TIP3    H275429   3.965   5.882  15.407  1.3036 -1.3253  1.2614
17980TIP3   OH275430   0.495   2.292   4.410 -0.4479 -0.9480  0.1698
17980TIP3    H175431   0.428   2.317   4.473  1.1486  1.4413  1.0531
17980TIP3    H275432   0.566   2.255   4.463  2.6557  4.6277  0.6952
17981TIP3   OH275433   5.919   5.916   4.672  0.2157 -0.1891  0.3705
17981TIP3    H175434   5.851   5.941   4.610 -0.2081 -1.6691  0.2062
17981TIP3    H275435   5.997   5.963   4.643 -0.6636  1.3905  0.4478
17982TIP3   OH275436   4.678   1.610   4.979 -0.5698  0.3474 -0.0801
17982TIP3    H175437   4.712   1.581   4.894  0.0078 -0.9386  0.5692
17982TIP3    H275438   4.590   1.642   4.960  0.2185  1.8719 -1.4687
17983TIP3   OH275439   2.764   3.292   0.597  0.3237  0.3577 -0.2933
17983TIP3    H175440   2.749   3.312   0.505 -0.9526  0.0097 -0.1904
17983TIP3    H275441   2.789   3.199   0.597  0.5081  0.4077 -0.3056
17984TIP3   OH275442   6.668   2.485   2.099 -0.4186 -0.5997  0.1906
17984TIP3    H175443   6.744   2.536   2.127  0.0460 -1.8271  1.2717
17984TIP3    H275444   6.594   2.545   2.107  0.1088 -0.0845  1.4275
17985TIP3   OH275445   6.073   4.865  11.582 -0.3923  0.1453 -0.0943
17985TIP3    H175446   6.103   4.806  11.651  0.4955  0.4868 -0.1811
17985TIP3    H275447   6.058   4.948  11.627 -0.3934  0.2051 -0.2052
17986TIP3   OH275448   3.915   2.309  14.827 -0.7228  0.5371 -0.3856
17986TIP3    H175449   3.920   2.397  14.864  3.2079  0.2694  0.1354
17986TIP3    H275450   3.822   2.295  14.812 -1.6963  4.0143  1.2946
17987TIP3   OH275451   3.682   6.727  13.578  0.2889  0.1986  0.1350
17987TIP3    H175452   3.736   6.777  13.516 -1.6402 -0.1689 -1.9858
17987TIP3    H275453   3.645   6.794  13.636  1.1932  0.6991  0.1658
17988TIP3   OH275454   0.481   5.250   3.074  0.7024 -0.4629 -0.4027
17988TIP3    H175455   0.422   5.176   3.057  0.3724 -0.0844 -0.9225
17988TIP3    H275456   0.468   5.271   3.166 -0.2703 -0.1274 -0.6051
17989TIP3   OH275457   1.719   0.390  13.938  0.3295  0.0428 -0.6545
17989TIP3    H175458   1.635   0.345  13.949  0.9756 -0.7563  1.3982
17989TIP3    H275459   1.776   0.325  13.898 -0.1033  0.7378 -2.5073
17990TIP3   OH275460   1.531   5.728  13.527  0.6121 -0.3134  0.1123
17990TIP3    H175461   1.561   5.809  13.568  1.8128 -1.8089  2.3583
17990TIP3    H275462   1.564   5.734  13.437  1.4759  1.2584  0.4915
17991TIP3   OH275463   0.440   4.296  15.621 -0.6569 -0.3093 -0.2907
17991TIP3    H175464   0.372   4.346  15.577  0.0580 -1.6140 -3.0776
17991TIP3    H275465   0.405   4.207  15.626  0.4461 -0.7995 -0.9484
17992TIP3   OH275466   2.879   1.803  16.551  0.9776 -0.0194  0.3302
17992TIP3    H175467   2.867   1.709  16.566  1.6136 -0.1551  0.0194
17992TIP3    H275468   2.915   1.836  16.634 -0.5612  0.2132  0.9250
17993TIP3   OH275469   6.742   3.807   5.887  0.1502  0.2415 -0.3043
17993TIP3    H175470   6.806   3.801   5.816 -0.6945 -1.4053 -0.9895
17993TIP3    H275471   6.773   3.746   5.953 -0.4938 -0.2820 -0.4756
17994TIP3   OH275472   1.553   2.927   4.820  0.3090 -0.1712  0.1682
17994TIP3    H175473   1.501   2.881   4.885  1.7191 -1.3626  0.5284
17994TIP3    H275474   1.492   2.986   4.776 -0.6909  0.6520  2.5205
17995TIP3   OH275475   0.790   0.671  10.551 -0.8215 -0.1915 -0.3308
17995TIP3    H175476   0.873   0.685  10.598  0.0716 -0.3768 -1.7769
17995TIP3    H275477   0.764   0.582  10.574  0.0821 -0.6103 -0.8436
17996TIP3   OH275478   6.514   3.677   6.113 -0.6913  0.3517  0.2959
17996TIP3    H175479   6.479   3.668   6.202  0.7932 -0.0314  0.8786
17996TIP3    H275480   6.599   3.720   6.126 -1.5460  2.6201 -1.1911
17997TIP3   OH275481   3.452   6.359   2.195  0.7646  0.3220 -0.0590
17997TIP3    H175482   3.372   6.309   2.211  1.5625 -0.9327  0.0910
17997TIP3    H275483   3.522   6.307   2.234  2.0488 -0.0666 -2.6485
17998TIP3   OH275484   6.466   4.030  13.814  0.3469  0.7583  0.2420
17998TIP3    H175485   6.463   4.117  13.855 -0.5326  0.8279  0.0516
17998TIP3    H275486   6.462   4.048  13.720 -1.5150  0.4854  0.2242
17999TIP3   OH275487   4.177   3.422  13.236 -0.0192 -0.3707  0.4775
17999TIP3    H175488   4.234   3.351  13.207 -0.9066 -1.3106  0.9155
17999TIP3    H275489   4.090   3.381  13.240 -0.4339  0.5661  1.3852
18000TIP3   OH275490   0.385   6.577   0.441  0.1288 -0.1191  0.4163
18000TIP3    H175491   0.377   6.573   0.536 -1.3029 -0.0413  0.3295
18000TIP3    H275492   0.311   6.525   0.408  1.1303 -0.9094 -0.6657
18001TIP3   OH275493   1.822   2.807  12.288  0.3787  0.4797  0.3866
18001TIP3    H175494   1.773   2.741  12.337 -0.2048 -0.8896 -1.9432
18001TIP3    H275495   1.757   2.872  12.263 -0.2354 -0.9961 -2.1272
18002TIP3   OH275496   4.944   6.364   1.820  0.8055  0.3220  0.7264
18002TIP3    H175497   4.875   6.429   1.808  1.5354  1.3541  1.8410
18002TIP3    H275498   4.903   6.296   1.874 -0.0628 -0.3456 -0.7306
18003TIP3   OH275499   3.990   4.899   4.782  0.3481  0.1162 -0.5328
18003TIP3    H175500   3.946   4.845   4.848  2.2579 -1.7183 -0.6458
18003TIP3    H275501   4.046   4.958   4.833 -0.0160  0.4029 -0.4623
18004TIP3   OH275502   5.567   0.879   5.243  0.1270  0.5670 -0.0491
18004TIP3    H175503   5.622   0.895   5.319  1.4570  1.4860 -1.1446
18004TIP3    H275504   5.542   0.966   5.212 -1.9508  0.1660  0.3796
18005TIP3   OH275505   4.689   5.796  10.416 -0.5157 -0.0102 -0.0666
18005TIP3    H175506   4.722   5.862  10.478 -0.4943 -1.1993  1.2502
18005TIP3    H275507   4.764   5.738  10.401 -1.1596 -1.1043  0.7195
18006TIP3   OH275508   4.614   5.859   0.802 -0.2474 -0.2702 -0.0286
18006TIP3    H175509   4.591   5.826   0.715  0.0974 -1.1663  0.2092
18006TIP3    H275510   4.705   5.830   0.815 -0.6205 -1.0116  1.0360
18007TIP3   OH275511   5.215   1.005   3.566  0.5726 -0.3183 -0.1031
18007TIP3    H175512   5.228   1.018   3.472 -1.2163 -0.7253 -0.4444
18007TIP3    H275513   5.178   0.917   3.573 -2.1919  0.7889  0.6356
18008TIP3   OH275514   5.863   1.524   6.063  0.0364  0.3264  0.3454
18008TIP3    H175515   5.842   1.610   6.025  0.2413  0.5770  0.7982
18008TIP3    H275516   5.800   1.465   6.022  0.0286  0.6522 -0.1294
18009TIP3   OH275517   3.356   2.053   4.113  0.0030  0.1630 -0.1803
18009TIP3    H175518   3.411   2.072   4.037  0.6795 -2.8774 -0.5448
18009TIP3    H275519   3.387   2.114   4.181  0.5281  1.7716 -1.7693
18010TIP3   OH275520   0.283   2.381  17.133  0.4032 -0.2177 -0.6812
18010TIP3    H175521   0.199   2.343  17.106  0.2142  0.0105 -0.4099
18010TIP3    H275522   0.282   2.378  17.228  0.6075  0.0010 -0.6724
18011TIP3   OH275523   0.728   4.873  16.419  0.3688 -0.4970  0.3160
18011TIP3    H175524   0.711   4.911  16.332 -1.2762 -3.1509 -0.6561
18011TIP3    H275525   0.643   4.841  16.448  1.1405 -0.8637  2.3334
18012TIP3   OH275526   0.566   2.109  16.491 -0.3367  0.0854  0.0955
18012TIP3    H175527   0.500   2.161  16.535  0.3604  0.6767  0.4642
18012TIP3    H275528   0.628   2.173  16.456 -0.7669 -0.3636 -1.5915
18013TIP3   OH275529   3.212   6.693   0.616 -0.1365  0.1175 -0.0694
18013TIP3    H175530   3.269   6.766   0.590  0.0544  0.2652  0.7348
18013TIP3    H275531   3.215   6.633   0.542  0.3578  0.5448 -0.4040
18014TIP3   OH275532   3.793   1.484   5.530 -0.5764  0.5951 -0.2679
18014TIP3    H175533   3.701   1.510   5.537 -0.1529  2.2955 -0.6734
18014TIP3    H275534   3.835   1.524   5.606  0.0108  0.6598 -0.6206
18015TIP3   OH275535   5.045   2.140   3.271 -0.1905 -0.5689  0.2910
18015TIP3    H175536   4.975   2.130   3.336 -0.3824  1.5250  0.4692
18015TIP3    H275537   5.105   2.204   3.309  1.1232 -1.3031 -0.4632
18016TIP3   OH275538   0.015   3.855  14.065  0.0738  0.4175 -0.1944
18016TIP3    H175539   0.044   3.866  14.156  2.7747 -2.1074 -0.5959
18016TIP3    H275540  -0.006   3.762  14.058  1.5756  0.1564 -2.5029
18017TIP3   OH275541   5.603   1.214  14.338  0.1271 -0.2871 -0.5051
18017TIP3    H175542   5.527   1.219  14.395  0.4099  1.5123 -0.2132
18017TIP3    H275543   5.577   1.156  14.267 -2.5157  2.3078 -1.8303
18018TIP3   OH275544   2.465   3.350  15.661  0.5755  0.3053  0.0910
18018TIP3    H175545   2.489   3.295  15.736 -2.1997  2.5579  2.8970
18018TIP3    H275546   2.461   3.438  15.696  0.3539  1.7141 -3.1036
18019TIP3   OH275547   4.149   5.964  17.153 -0.1872  0.2650  0.0426
18019TIP3    H175548   4.119   5.997  17.238  0.0523 -1.8666  1.0280
18019TIP3    H275549   4.078   5.907  17.124  0.0984  0.3394 -0.8173
18020TIP3   OH275550   3.910   4.764   2.536 -0.0806 -0.0133  0.0801
18020TIP3    H175551   3.831   4.751   2.589 -0.5757  0.3397 -0.5432
18020TIP3    H275552   3.968   4.692   2.561 -0.5101 -0.1519  0.7121
18021TIP3   OH275553   5.730   0.412   4.113 -0.0273  0.0694  0.4153
18021TIP3    H175554   5.812   0.462   4.116  0.4188 -0.5326 -0.8898
18021TIP3    H275555   5.758   0.321   4.101 -0.8805 -0.1629  0.1354
18022TIP3   OH275556   0.252   1.620  16.778  0.2685  0.0153  0.0545
18022TIP3    H175557   0.197   1.679  16.727  2.8323  3.6701  1.0680
18022TIP3    H275558   0.219   1.627  16.868  1.6540  1.4649  0.4967
18023TIP3   OH275559   4.593   2.890  12.116 -0.6395  0.0749 -0.2356
18023TIP3    H175560   4.529   2.956  12.089  0.3174  0.8379 -0.7441
18023TIP3    H275561   4.669   2.907  12.059  0.4203 -0.0784  1.0886
18024TIP3   OH275562   6.528   6.551  16.122  0.0363 -0.3919 -0.6001
18024TIP3    H175563   6.477   6.567  16.042  0.4071 -0.8336 -0.9261
18024TIP3    H275564   6.619   6.552  16.093  0.2190  0.4006 -0.0142
18025TIP3   OH275565   2.633   5.568  11.211 -0.4330  0.0686  0.0054
18025TIP3    H175566   2.682   5.622  11.150 -1.2768  1.0471  0.1671
18025TIP3    H275567   2.568   5.523  11.157 -0.0408 -0.4435 -0.0570
18026TIP3   OH275568   0.138   0.733   0.452  0.0825  0.2270 -0.0529
18026TIP3    H175569   0.155   0.661   0.513  1.5413 -0.0836 -0.7648
18026TIP3    H275570   0.118   0.690   0.369  0.5564  0.6326 -0.3816
18027TIP3   OH275571   1.789   3.145  12.517  0.3927 -0.0707 -0.3423
18027TIP3    H175572   1.746   3.068  12.555  0.3604  0.0624 -0.1050
18027TIP3    H275573   1.879   3.117  12.501  0.5193  0.0016  0.2332
18028TIP3   OH275574   6.108   4.730  13.933 -0.1263 -0.3688 -0.2879
18028TIP3    H175575   6.042   4.708  13.999  0.4756  0.1501  0.5084
18028TIP3    H275576   6.072   4.698  13.851 -2.2167  1.5016 -0.1952
18029TIP3   OH275577   5.236   3.694  16.285 -0.6585 -0.1205 -0.1089
18029TIP3    H175578   5.309   3.754  16.268 -0.4095 -0.3789  0.0435
18029TIP3    H275579   5.243   3.628  16.216 -0.6901 -0.1993 -0.0357
18030TIP3   OH275580   0.908   3.280   3.074  0.5627 -0.2358 -0.2891
18030TIP3    H175581   0.883   3.360   3.028  0.4676 -0.6274 -0.9406
18030TIP3    H275582   0.961   3.310   3.147  0.4698  0.4278 -0.4854
18031TIP3   OH275583   3.717   6.706  11.007 -0.7999 -0.1803  0.7689
18031TIP3    H175584   3.759   6.620  11.007  0.7134  0.5114  1.1034
18031TIP3    H275585   3.714   6.732  10.915 -1.3962 -0.6494  0.6544
18032TIP3   OH275586   1.703   6.169  13.920 -0.6768 -1.1677 -0.3276
18032TIP3    H175587   1.725   6.082  13.952  0.3698 -0.0189  2.4150
18032TIP3    H275588   1.787   6.208  13.896 -0.5553  0.3423  2.1786
18033TIP3   OH275589   5.288   5.377  11.356 -0.6080 -0.5435  0.8907
18033TIP3    H175590   5.280   5.363  11.261  0.7230 -2.4590  1.0028
18033TIP3    H275591   5.318   5.468  11.364 -0.0207 -0.5782 -0.5881
18034TIP3   OH275592   6.654   2.349  16.072  0.4004  0.4213 -0.2235
18034TIP3    H175593   6.568   2.345  16.112  0.4182  3.9298  0.4913
18034TIP3    H275594   6.715   2.322  16.141  0.0278  0.3686  0.0817
18035TIP3   OH275595   5.106   5.414  15.545  0.4203 -0.2220  0.0975
18035TIP3    H175596   5.167   5.449  15.481 -0.6273  1.2701 -0.1261
18035TIP3    H275597   5.150   5.427  15.629  1.0022 -0.4748 -0.1593
18036TIP3   OH275598   0.354   2.042  15.036 -0.1978 -0.2501 -0.5992
18036TIP3    H175599   0.328   2.135  15.033  1.1258  0.1833  0.3220
18036TIP3    H275600   0.291   2.003  15.097  1.6390  0.9603  2.2751
18037TIP3   OH275601   5.361   0.145  16.789 -0.5671  0.1573 -1.0049
18037TIP3    H175602   5.375   0.095  16.870 -0.4755 -1.3017 -1.8815
18037TIP3    H275603   5.269   0.171  16.793  0.2444  3.3273  1.2546
18038TIP3   OH275604   4.989   3.031   5.689  0.1774  0.1380 -0.0411
18038TIP3    H175605   5.012   2.941   5.713  2.1258  0.8512  0.9817
18038TIP3    H275606   4.996   3.033   5.594  1.8839 -0.3848  0.0434
18039TIP3   OH275607   1.071   2.849  16.227 -0.0032 -0.4472  0.0845
18039TIP3    H175608   1.009   2.802  16.170  0.5043  0.4749 -1.2891
18039TIP3    H275609   1.055   2.941  16.209  0.5329 -0.1493  1.0742
18040TIP3   OH275610   3.391   6.114   5.476  0.6348  0.2693  0.1378
18040TIP3    H175611   3.339   6.194   5.473  1.8255  1.0168 -1.4692
18040TIP3    H275612   3.420   6.107   5.567 -2.1442 -0.1554  1.1182
18041TIP3   OH275613   0.242   2.877   3.985  0.1252 -0.1312  0.3000
18041TIP3    H175614   0.257   2.943   3.917 -2.3172  0.9913  0.7157
18041TIP3    H275615   0.326   2.870   4.031  0.8978  1.5350 -0.7470
18042TIP3   OH275616   3.956   2.969   1.273  0.5647 -0.5960 -0.1810
18042TIP3    H175617   3.861   2.958   1.277  0.7438 -2.3607  0.1415
18042TIP3    H275618   3.978   3.022   1.349 -0.0748 -0.9893  0.2842
18043TIP3   OH275619   0.591   4.075   1.213  0.4644  0.1030 -0.2101
18043TIP3    H175620   0.610   4.004   1.152 -0.8058 -0.8260  0.4322
18043TIP3    H275621   0.587   4.033   1.299 -3.3781  0.2843 -0.1481
18044TIP3   OH275622   3.253   3.774   2.943  0.3082 -0.5043  0.2903
18044TIP3    H175623   3.286   3.812   3.025 -0.1466  0.3151  0.1093
18044TIP3    H275624   3.176   3.828   2.922  1.6364  0.6974 -1.8009
18045TIP3   OH275625   2.339   2.126   3.476  0.9236  0.1778  0.2078
18045TIP3    H175626   2.430   2.143   3.501  0.8336  0.3683  0.4008
18045TIP3    H275627   2.302   2.212   3.458  0.6133  0.1472  0.6945
18046TIP3   OH275628   0.251   5.582  12.474  0.3962  1.0711  0.2665
18046TIP3    H175629   0.181   5.579  12.540  1.0997  3.5716  1.2525
18046TIP3    H275630   0.287   5.493  12.473 -2.1744 -0.0705  0.3457
18047TIP3   OH275631   4.228   0.064   4.445 -0.1230 -0.2378 -0.0822
18047TIP3    H175632   4.169  -0.008   4.424  0.6448 -0.5872 -1.1443
18047TIP3    H275633   4.314   0.022   4.455 -0.0332  0.2472  1.4788
18048TIP3   OH275634   4.198   5.161  14.246 -0.8124  0.2871 -0.4388
18048TIP3    H175635   4.121   5.146  14.191  0.6996 -2.3688 -2.0319
18048TIP3    H275636   4.177   5.118  14.329 -1.0755 -0.3619 -0.8344
18049TIP3   OH275637   3.982   2.700   4.562  0.2985  0.6601  0.3916
18049TIP3    H175638   3.964   2.636   4.492 -0.1587  0.2181  0.9030
18049TIP3    H275639   4.072   2.728   4.546 -0.6314  2.6380 -2.0197
18050TIP3   OH275640   5.663   0.920  11.459 -0.2980  0.2499  0.4317
18050TIP3    H175641   5.744   0.883  11.425  0.2510  2.5047 -0.9565
18050TIP3    H275642   5.609   0.936  11.382 -1.3468  0.4204  1.1719
18051TIP3   OH275643   1.126   3.336  15.243  0.0420 -0.1117  0.3720
18051TIP3    H175644   1.107   3.246  15.271 -1.4114  0.4686  1.3521
18051TIP3    H275645   1.203   3.360  15.295 -0.2154 -0.4346  0.9200
18052TIP3   OH275646   4.416   1.416   3.691  0.7719 -0.3975  0.1885
18052TIP3    H175647   4.358   1.361   3.639 -1.0397 -0.7708  2.4110
18052TIP3    H275648   4.468   1.465   3.627 -0.4158 -1.7259 -1.8833
18053TIP3   OH275649   0.239   3.796  16.564  0.0341 -0.0016 -0.0589
18053TIP3    H175650   0.315   3.822  16.511  0.7525 -1.0850  0.3941
18053TIP3    H275651   0.260   3.707  16.593 -0.6806  0.2877  1.4363
18054TIP3   OH275652   0.590   2.291   2.752 -0.6797  0.6269  0.3880
18054TIP3    H175653   0.567   2.214   2.701  0.3304 -0.7106  1.8727
18054TIP3    H275654   0.627   2.352   2.688  0.1859 -0.8393 -0.5489
18055TIP3   OH275655   3.453   3.273   2.956 -0.0833  0.4853 -0.3165
18055TIP3    H175656   3.409   3.357   2.969  0.0618  0.4357  0.5551
18055TIP3    H275657   3.381   3.211   2.942 -0.1509  0.9859 -2.6297
18056TIP3   OH275658   6.721   1.466   4.335 -0.3007 -0.4484 -0.6970
18056TIP3    H175659   6.701   1.559   4.326  1.9627  0.1253 -0.5196
18056TIP3    H275660   6.655   1.433   4.396 -1.0219  1.0912 -0.5985
18057TIP3   OH275661   2.517   6.152  16.103 -0.0114  0.2842 -0.2303
18057TIP3    H175662   2.609   6.127  16.090 -0.0014  0.4048 -0.3985
18057TIP3    H275663   2.520   6.243  16.132 -0.0964  0.4608 -0.7469
18058TIP3   OH275664   0.255   2.958  10.517 -0.1377  0.4579 -0.7397
18058TIP3    H175665   0.255   2.863  10.514 -0.6385  0.4543 -0.7910
18058TIP3    H275666   0.163   2.982  10.503 -0.2325  0.9062  0.5390
18059TIP3   OH275667   4.861   5.226   4.490 -0.3468 -0.0382 -0.7459
18059TIP3    H175668   4.823   5.258   4.409  0.8274  0.6847 -1.0508
18059TIP3    H275669   4.786   5.204   4.545 -1.2357  1.9001 -1.0714
18060TIP3   OH275670   4.801   5.674  16.451 -0.2424 -0.1355 -0.0445
18060TIP3    H175671   4.733   5.660  16.517 -2.6327  0.9917 -2.0971
18060TIP3    H275672   4.798   5.596  16.396 -0.7797  0.3984 -0.8143
18061TIP3   OH275673   1.740   1.788   3.949  0.5511  0.3321  0.2343
18061TIP3    H175674   1.681   1.853   3.988  1.2284  0.3397  1.2741
18061TIP3    H275675   1.683   1.714   3.930 -0.2547  1.2366 -1.0696
18062TIP3   OH275676   3.769   5.921  12.242 -0.3972  0.6797  0.7160
18062TIP3    H175677   3.721   5.963  12.314  1.2081  1.0779  1.5974
18062TIP3    H275678   3.752   5.828  12.252  1.2201  0.5499  2.7405
18063TIP3   OH275679   6.054   4.471   4.030 -0.2852  0.4479  0.9947
18063TIP3    H175680   6.055   4.377   4.047 -0.8158  0.4827  1.2411
18063TIP3    H275681   6.141   4.502   4.057 -0.7289  0.3223  2.6422
18064TIP3   OH275682   2.479   2.389   2.754  0.4496  0.5166  0.2344
18064TIP3    H175683   2.573   2.382   2.735  0.8150 -1.4079  2.3472
18064TIP3    H275684   2.464   2.326   2.824 -2.6922 -0.0774 -0.8293
18065TIP3   OH275685   0.291   4.953   5.178  0.0789  0.3646 -0.2589
18065TIP3    H175686   0.367   4.998   5.144  0.0493  0.4216 -0.2499
18065TIP3    H275687   0.304   4.861   5.153 -0.8561  0.6785 -2.0850
18066TIP3   OH275688   0.847   0.967  11.751  0.0439 -0.1103 -0.4628
18066TIP3    H175689   0.924   0.997  11.703 -0.8823  2.6516 -0.4081
18066TIP3    H275690   0.785   0.941  11.683 -0.3598  1.4734 -0.7621
18067TIP3   OH275691   1.502   6.367   2.696  0.5539  0.3726 -0.4034
18067TIP3    H175692   1.514   6.379   2.790  0.8427  0.2037 -0.4188
18067TIP3    H275693   1.551   6.288   2.675 -0.5078 -0.2992 -0.4804
18068TIP3   OH275694   6.024   4.339   4.373  0.1255  0.1629 -0.4500
18068TIP3    H175695   5.948   4.302   4.328  0.1849  1.1756 -1.4253
18068TIP3    H275696   5.987   4.395   4.441  0.0068  0.3642 -0.6809
18069TIP3   OH275697   6.184   6.689  13.818  0.5302 -0.3186 -0.2757
18069TIP3    H175698   6.254   6.732  13.769 -0.2661  1.8805  0.3649
18069TIP3    H275699   6.141   6.632  13.755  2.4520 -1.1947 -0.8492
18070TIP3   OH275700   5.268   4.350  15.089  1.1289 -0.0719 -0.1727
18070TIP3    H175701   5.270   4.257  15.066  0.0965 -0.8148  2.3386
18070TIP3    H275702   5.337   4.359  15.155  1.3113  0.9807 -0.4999
18071TIP3   OH275703   2.941   1.046   3.803 -0.4319  0.0209 -0.4539
18071TIP3    H175704   3.034   1.070   3.809 -0.0413 -1.1600 -1.3677
18071TIP3    H275705   2.901   1.088   3.879  0.9528  0.0851  0.2841
18072TIP3   OH275706   4.575   5.982  15.710  0.4411  0.7637  0.2576
18072TIP3    H175707   4.502   5.983  15.648  0.9341 -1.2368 -0.4257
18072TIP3    H275708   4.652   6.000  15.656  0.7236  0.3792  0.5337
18073TIP3   OH275709   1.731   2.310   2.261 -0.5248 -0.3521 -0.3522
18073TIP3    H175710   1.787   2.387   2.266 -0.2925 -0.5446  0.0853
18073TIP3    H275711   1.643   2.344   2.278 -1.1096  0.5102 -4.2118
18074TIP3   OH275712   0.957   0.728  12.143 -0.5589  0.1289 -0.2524
18074TIP3    H175713   0.930   0.664  12.077  1.6026 -0.0848 -1.0154
18074TIP3    H275714   0.957   0.812  12.096 -1.0554  0.3208  0.0826
18075TIP3   OH275715   3.235   2.563   1.113  0.3050 -0.6918 -0.4562
18075TIP3    H175716   3.324   2.591   1.134 -0.1652  0.2209  0.3928
18075TIP3    H275717   3.208   2.623   1.042  0.5001 -1.2276 -0.9909
18076TIP3   OH275718   1.383   0.854  16.647  0.6675  0.2247 -0.0856
18076TIP3    H175719   1.315   0.890  16.704  0.1132  0.8141 -1.0849
18076TIP3    H275720   1.394   0.921  16.579 -0.2804 -1.3794 -1.9268
18077TIP3   OH275721   2.864   0.975   5.224 -0.1659  0.4523 -0.3947
18077TIP3    H175722   2.805   0.971   5.149  0.0949  0.9712 -0.6350
18077TIP3    H275723   2.822   1.033   5.286 -0.4855 -0.1510 -0.0397
18078TIP3   OH275724   0.053   4.678   3.470  0.0167 -0.1877  0.6164
18078TIP3    H175725   0.071   4.591   3.505 -0.6503 -0.5665  0.0286
18078TIP3    H275726   0.093   4.677   3.383 -1.6404 -0.5773 -0.1649
18079TIP3   OH275727   6.200   0.349   0.025  0.1051 -0.0738  0.3218
18079TIP3    H175728   6.270   0.357  -0.041  0.6532  0.5238  0.9664
18079TIP3    H275729   6.148   0.275  -0.005  0.3797  0.1517 -0.7628
18080TIP3   OH275730   2.624   5.540  11.795 -0.6034  0.2342  0.0526
18080TIP3    H175731   2.618   5.591  11.715 -0.7474 -0.9011 -0.6944
18080TIP3    H275732   2.539   5.496  11.802 -0.6424  0.4372  0.9067
18081TIP3   OH275733   2.263   4.891  17.052  0.4544  0.0117 -0.3490
18081TIP3    H175734   2.249   4.948  17.128  1.0297  1.6645 -1.4049
18081TIP3    H275735   2.208   4.930  16.983  0.5506 -0.9646 -1.0003
18082TIP3   OH275736   1.096   4.196  10.808  0.2280  0.4066 -0.5611
18082TIP3    H175737   1.051   4.112  10.794  2.2953 -0.6076 -1.5063
18082TIP3    H275738   1.062   4.253  10.738 -1.8615  0.7248  0.6232
18083TIP3   OH275739   4.716   2.688  12.851 -0.0719 -0.2398  0.7819
18083TIP3    H175740   4.691   2.596  12.864  1.1598 -0.6099  0.6854
18083TIP3    H275741   4.709   2.727  12.938 -1.3914 -0.2011  0.6788
18084TIP3   OH275742   2.678   5.457   2.872  0.4109 -0.0270  0.1910
18084TIP3    H175743   2.692   5.551   2.857 -2.0145  0.5334  1.0828
18084TIP3    H275744   2.738   5.435   2.944  0.8168  0.8879  0.1447
18085TIP3   OH275745   2.243   5.325   2.719  0.6464  0.2156 -0.8856
18085TIP3    H175746   2.232   5.358   2.629 -0.1067 -1.5441 -1.4857
18085TIP3    H275747   2.161   5.279   2.738 -0.0145  2.2193  1.5031
18086TIP3   OH275748   5.690   3.637   1.205 -0.1833 -0.3320  0.1409
18086TIP3    H175749   5.645   3.661   1.124 -1.5893 -1.0047  0.7008
18086TIP3    H275750   5.776   3.680   1.198 -1.2236  1.7549 -0.5357
18087TIP3   OH275751   0.729   5.103  16.234  0.0848  0.6721 -0.5050
18087TIP3    H175752   0.738   5.187  16.279 -2.7195 -0.0629  1.7595
18087TIP3    H275753   0.650   5.114  16.181 -0.7313 -0.6765  0.3751
18088TIP3   OH275754   0.822   2.506  15.836  0.4758 -0.0767 -0.2041
18088TIP3    H175755   0.901   2.502  15.782  1.0098  0.2682  0.5380
18088TIP3    H275756   0.850   2.476  15.922  0.2082  1.6051  0.5158
18089TIP3   OH275757   6.378   2.450   1.132  0.1409  0.0980 -0.5198
18089TIP3    H175758   6.321   2.381   1.165  0.4958  0.3280  0.6094
18089TIP3    H275759   6.340   2.473   1.047  0.4578 -1.9813 -1.2821
18090TIP3   OH275760   3.503   3.249  16.714 -0.1146  0.0036  0.0183
18090TIP3    H175761   3.471   3.320  16.769  1.0622  0.0280  0.7013
18090TIP3    H275762   3.586   3.282  16.678  0.0126 -0.6902 -0.3547
18091TIP3   OH275763   0.557   0.075   0.696 -1.4229 -0.6566 -0.0429
18091TIP3    H175764   0.530  -0.005   0.740  0.0074 -1.4734 -0.5960
18091TIP3    H275765   0.604   0.046   0.618 -2.0839  0.7405 -1.0142
18092TIP3   OH275766   2.403   2.520   4.223  0.4612 -0.0828 -0.0510
18092TIP3    H175767   2.442   2.567   4.297 -0.1920 -0.2695  0.4203
18092TIP3    H275768   2.453   2.439   4.218  2.0374  0.9044 -1.2872
18093TIP3   OH275769   4.787   0.293   2.036  0.6364 -0.2162  0.6215
18093TIP3    H175770   4.773   0.245   1.954  0.4479 -0.4738  0.8039
18093TIP3    H275771   4.845   0.365   2.012 -0.0616  0.1845  0.0856
18094TIP3   OH275772   5.253   4.067  12.818  0.6447 -0.2333  0.0807
18094TIP3    H175773   5.301   4.033  12.742  1.4255 -1.2426  0.9869
18094TIP3    H275774   5.318   4.120  12.865  0.5055 -0.5634  0.6451
18095TIP3   OH275775   3.346   6.249   1.045  0.3446 -0.1508 -0.1321
18095TIP3    H175776   3.379   6.166   1.009 -0.3730 -0.5331  0.0755
18095TIP3    H275777   3.391   6.257   1.130 -1.3377 -1.5505  0.9537
18096TIP3   OH275778   5.976   4.270   5.150  0.1817  0.0268 -0.1304
18096TIP3    H175779   5.920   4.305   5.220 -1.8376  0.4141 -1.8319
18096TIP3    H275780   6.027   4.345   5.121  1.0596 -0.1430  0.8983
18097TIP3   OH275781   1.683   3.827   1.708 -0.2189  0.0352  0.5639
18097TIP3    H175782   1.774   3.826   1.737 -0.3092  0.3270  0.8614
18097TIP3    H275783   1.636   3.777   1.775 -0.3948  0.5280  0.8098
18098TIP3   OH275784   0.720   2.536  10.739  0.4564  0.0307 -0.3428
18098TIP3    H175785   0.712   2.622  10.781 -1.6351  0.3778 -1.3327
18098TIP3    H275786   0.680   2.548  10.653  0.8613 -1.7482 -0.8188
18099TIP3   OH275787   6.681   1.421  15.759  0.7967  0.5378 -0.0645
18099TIP3    H175788   6.649   1.377  15.838  0.6139 -0.5358 -0.7106
18099TIP3    H275789   6.746   1.360  15.723  0.6572  0.8737 -0.9028
18100TIP3   OH275790   5.566   6.818  11.464  0.8522 -0.1110  0.8153
18100TIP3    H175791   5.536   6.729  11.444  1.0056 -0.1981  0.9686
18100TIP3    H275792   5.655   6.821  11.429 -0.3249  1.1327 -2.4879
18101TIP3   OH275793   6.458   6.721  15.425 -0.3051  0.0328 -0.3448
18101TIP3    H175794   6.387   6.728  15.362  0.1221 -2.1248 -1.1834
18101TIP3    H275795   6.530   6.680  15.376  0.3184 -0.9975  1.3100
18102TIP3   OH275796   4.602   6.537  15.079 -0.2099  0.3160  0.3479
18102TIP3    H175797   4.656   6.459  15.093  1.0817  1.1657  0.2674
18102TIP3    H275798   4.591   6.541  14.984  0.3893  0.6667  0.2933
18103TIP3   OH275799   6.827   2.623  15.162  0.1696  0.6187 -0.3850
18103TIP3    H175800   6.861   2.534  15.156  0.3396  0.7080 -0.7323
18103TIP3    H275801   6.737   2.612  15.195 -0.3915  0.1931 -1.9581
18104TIP3   OH275802   1.480   6.733  15.971 -0.0083  0.1609 -0.3251
18104TIP3    H175803   1.552   6.783  15.933 -0.5143  0.6824 -0.6061
18104TIP3    H275804   1.444   6.790  16.039  0.1379 -0.2857  0.1319
18105TIP3   OH275805   5.989   5.843  16.704  0.2468  0.2109  0.2499
18105TIP3    H175806   5.946   5.926  16.723 -1.3391 -0.7304  0.9317
18105TIP3    H275807   6.074   5.869  16.667 -0.0543  2.1173  0.7574
18106TIP3   OH275808   5.435   5.305   5.573  0.0138  0.4011 -0.6826
18106TIP3    H175809   5.489   5.240   5.529  0.7632 -0.1778  1.0010
18106TIP3    H275810   5.452   5.387   5.526  0.5963 -0.2331 -1.5948
18107TIP3   OH275811   5.214   3.722  11.469 -0.2235 -0.6070  0.2562
18107TIP3    H175812   5.304   3.697  11.448 -0.2770 -0.4259 -0.1903
18107TIP3    H275813   5.176   3.750  11.386 -0.7832 -0.9447  0.3903
18108TIP3   OH275814   3.688   6.693  14.490 -0.1845 -0.2616 -0.0763
18108TIP3    H175815   3.768   6.721  14.446 -0.1137  0.0211  0.2321
18108TIP3    H275816   3.678   6.601  14.464  0.8073 -0.6120  0.6993
18109TIP3   OH275817   3.972   5.223   5.972  0.6702 -0.3398 -1.0293
18109TIP3    H175818   3.887   5.183   5.956  1.0050 -1.1049 -0.9619
18109TIP3    H275819   3.974   5.238   6.066  0.0040  1.1256 -1.2227
18110TIP3   OH275820   4.852   1.469   2.292  0.3693  0.4641  0.1427
18110TIP3    H175821   4.836   1.399   2.355 -3.7829  0.3699 -0.7286
18110TIP3    H275822   4.933   1.443   2.248  0.4598 -2.3275  1.7130
18111TIP3   OH275823   6.687   5.891   4.177 -0.0327 -0.3654  0.4726
18111TIP3    H175824   6.732   5.889   4.092  0.3900 -0.6888  0.7025
18111TIP3    H275825   6.616   5.954   4.165  1.0993  0.9329  0.4186
18112TIP3   OH275826   0.181   3.621   6.040  0.4931  0.2164  0.4242
18112TIP3    H175827   0.240   3.548   6.061  0.5318  0.3049  0.6253
18112TIP3    H275828   0.236   3.684   5.993  0.5703  0.3180  0.6487
18113TIP3   OH275829   4.967   0.294  10.641  0.2703 -0.5400  0.1158
18113TIP3    H175830   4.886   0.262  10.680  0.2661  1.9166  2.3694
18113TIP3    H275831   4.939   0.368  10.587  0.8685 -0.7004 -0.4230
18114TIP3   OH275832   4.651   4.624   0.346 -0.2769 -0.3272  0.5120
18114TIP3    H175833   4.689   4.666   0.268 -0.4712  1.0369  1.1283
18114TIP3    H275834   4.726   4.597   0.398 -0.1494 -0.1046  0.4442
18115TIP3   OH275835   4.114   5.481   6.033 -0.2202  0.2625  0.2703
18115TIP3    H175836   4.058   5.486   6.111 -1.1265 -1.4251 -0.2170
18115TIP3    H275837   4.145   5.390   6.032  0.8995  0.6441 -0.5843
18116TIP3   OH275838   3.041   1.338   2.598 -0.2923  0.8965  0.1810
18116TIP3    H175839   3.067   1.395   2.670  0.3118 -0.2485  0.9139
18116TIP3    H275840   2.961   1.295   2.629  0.1403  0.1710  0.3196
18117TIP3   OH275841   0.708   6.296   3.518 -0.0593 -0.1581  0.7071
18117TIP3    H175842   0.697   6.214   3.567  1.3493 -0.1393  1.1206
18117TIP3    H275843   0.796   6.325   3.541  0.8640 -0.3600 -2.1790
18118TIP3   OH275844   0.672   2.744  16.823 -0.0524  0.3371  0.0157
18118TIP3    H175845   0.631   2.819  16.779  0.0821  0.4530  0.0901
18118TIP3    H275846   0.605   2.675  16.818  0.4387 -0.0718 -1.5307
18119TIP3   OH275847   3.142   5.208  15.285 -0.5497  0.6116  0.5479
18119TIP3    H175848   3.147   5.158  15.366 -1.3300  0.6065  0.6051
18119TIP3    H275849   3.078   5.161  15.231 -1.0038  1.3170  0.4463
18120TIP3   OH275850   0.548   3.229   5.466 -0.4992  0.6663 -0.3330
18120TIP3    H175851   0.463   3.246   5.426 -0.7884 -0.3758 -0.1891
18120TIP3    H275852   0.541   3.140   5.500  1.3840 -0.2792 -2.2324
18121TIP3   OH275853   4.728   5.315  16.521  0.4752 -0.6174  0.2944
18121TIP3    H175854   4.814   5.328  16.481  0.7402 -1.1586  0.6760
18121TIP3    H275855   4.733   5.228  16.560  0.1882 -0.1508  1.4120
18122TIP3   OH275856   1.960   3.240  13.286  0.0358 -0.0868 -0.0716
18122TIP3    H175857   2.010   3.209  13.210  0.5231 -0.8211  0.5281
18122TIP3    H275858   1.944   3.333  13.268 -0.8510 -0.4998 -1.5900
18123TIP3   OH275859   4.618   0.617   3.401  0.4031 -0.4676  0.3333
18123TIP3    H175860   4.666   0.620   3.484  0.0901  0.3264  0.4913
18123TIP3    H275861   4.633   0.702   3.361  0.5507 -0.8438 -0.4378
18124TIP3   OH275862   4.558   3.943   1.165 -0.4132  0.4940  0.1070
18124TIP3    H175863   4.503   3.874   1.202 -1.3375  1.6776  1.0368
18124TIP3    H275864   4.507   4.023   1.178  1.5272  1.6435  1.0368
18125TIP3   OH275865   4.837   4.079  13.338  0.2181  0.2858  0.1317
18125TIP3    H175866   4.844   4.120  13.251 -0.7005 -0.2460 -0.2066
18125TIP3    H275867   4.763   4.020  13.330  1.2248 -1.1087  0.7591
18126TIP3   OH275868   2.238   6.219  15.647  0.3347  0.0216  0.0729
18126TIP3    H175869   2.202   6.282  15.710 -0.6271 -0.6797  0.2405
18126TIP3    H275870   2.167   6.157  15.631  1.2782 -1.0663 -0.0489
18127TIP3   OH275871   5.653   0.404   4.503  0.4505  0.4157 -0.1033
18127TIP3    H175872   5.638   0.315   4.469  1.8503  0.0912  0.0617
18127TIP3    H275873   5.737   0.430   4.465  0.4175  1.3781  0.4569
18128TIP3   OH275874   1.810   5.030   5.935  1.0148  0.0918  0.0387
18128TIP3    H175875   1.871   5.021   6.008  2.0648  1.0103 -0.6850
18128TIP3    H275876   1.865   5.046   5.859 -0.0735 -0.4712 -0.9122
18129TIP3   OH275877   1.894   0.304  10.883  0.1231 -0.3031  0.6224
18129TIP3    H175878   1.894   0.399  10.888 -1.5530 -0.2753  0.9686
18129TIP3    H275879   1.972   0.277  10.930  0.7430  0.9044  0.3221
18130TIP3   OH275880   0.335   3.564   1.946  0.1122 -0.7942 -0.5451
18130TIP3    H175881   0.302   3.498   1.886 -0.0528 -1.0082 -0.2204
18130TIP3    H275882   0.260   3.621   1.964  0.1497 -0.7580 -0.5010
18131TIP3   OH275883   2.082   3.204  14.662  0.0938 -0.1401  0.3314
18131TIP3    H175884   2.056   3.166  14.578 -0.6400 -0.6732  0.7860
18131TIP3    H275885   2.136   3.279  14.639  0.2048 -0.4975 -0.6114
18132TIP3   OH275886   1.947   6.104   0.906 -0.3381 -1.0364  0.0766
18132TIP3    H175887   2.020   6.050   0.875  0.1301 -0.4534  0.1469
18132TIP3    H275888   1.895   6.045   0.961  1.2290 -0.9183  1.7595
18133TIP3   OH275889   3.872   3.892  12.809 -0.1082  0.6844 -0.1029
18133TIP3    H175890   3.822   3.832  12.865  0.5199 -1.6454 -1.8919
18133TIP3    H275891   3.941   3.926  12.867 -0.8355  0.1564  1.1185
18134TIP3   OH275892   6.020   4.991  17.131 -0.3611 -0.0699  0.0647
18134TIP3    H175893   6.109   4.967  17.108 -1.2300 -3.0910 -0.5973
18134TIP3    H275894   6.000   4.937  17.208 -1.4171  1.0341  0.5952
18135TIP3   OH275895   4.863   3.623   0.829 -0.0113 -0.3565  0.3354
18135TIP3    H175896   4.926   3.638   0.758 -0.0937  0.1073  0.3546
18135TIP3    H275897   4.818   3.542   0.804 -1.5876  0.9518 -1.3140
18136TIP3   OH275898   1.801   0.699   1.227  0.6521  0.1303 -0.3868
18136TIP3    H175899   1.793   0.705   1.132 -0.3797 -0.1408 -0.3285
18136TIP3    H275900   1.711   0.704   1.259  1.0206  0.6606  0.6074
18137TIP3   OH275901   3.008   4.976   3.181 -0.1609 -0.4358  0.1143
18137TIP3    H175902   2.932   5.035   3.175 -1.2977 -1.7340  1.0603
18137TIP3    H275903   3.072   5.025   3.232  0.4323  1.4125 -2.1989
18138TIP3   OH275904   4.632   2.593   5.126 -0.4869  0.1555 -0.4851
18138TIP3    H175905   4.547   2.636   5.126 -1.7320 -2.1360 -0.2424
18138TIP3    H275906   4.613   2.501   5.143  2.1808 -0.2219  1.1336
18139TIP3   OH275907   0.205   4.713   5.117 -0.5488  0.1709 -0.6297
18139TIP3    H175908   0.205   4.719   5.021  2.3071 -2.0859 -0.8946
18139TIP3    H275909   0.179   4.623   5.135 -0.9942  0.5593  0.7255
18140TIP3   OH275910   1.649   4.723  14.855 -0.2180  0.0001  0.1682
18140TIP3    H175911   1.726   4.780  14.861 -1.3225  1.4252  1.1695
18140TIP3    H275912   1.631   4.717  14.761  0.7902  0.0655 -0.0457
18141TIP3   OH275913   6.132   2.537  11.460  0.1700  0.1324 -0.0050
18141TIP3    H175914   6.107   2.445  11.457  0.0765  0.1801 -1.1837
18141TIP3    H275915   6.156   2.559  11.370  2.6998  0.5989  0.7110
18142TIP3   OH275916   3.725   2.226   1.382 -0.0738  0.1380 -0.6790
18142TIP3    H175917   3.644   2.248   1.337 -0.3532  1.1032  0.2677
18142TIP3    H275918   3.751   2.306   1.428  0.8721 -0.4423 -0.1468
18143TIP3   OH275919   1.094   4.457  10.906  0.2852 -0.5622  0.1950
18143TIP3    H175920   1.002   4.432  10.918  0.8544 -1.8705  2.2717
18143TIP3    H275921   1.138   4.375  10.882  0.9855  0.0020 -0.4934
18144TIP3   OH275922   4.280   2.106  12.908  0.6724  0.6321  0.3179
18144TIP3    H175923   4.263   2.042  12.839 -0.4139  1.4158 -0.1707
18144TIP3    H275924   4.227   2.075  12.982  1.8550 -0.2208  0.8460
18145TIP3   OH275925   1.900   6.190  14.359 -0.1134  0.2546 -0.1370
18145TIP3    H175926   1.937   6.111  14.320 -0.5888 -0.5571  1.0225
18145TIP3    H275927   1.810   6.165  14.383  0.0583  0.8221  1.1685
18146TIP3   OH275928   1.485   2.733  16.024  0.9100  0.2804  0.8331
18146TIP3    H175929   1.430   2.658  16.045  1.4832 -0.4329 -0.1879
18146TIP3    H275930   1.436   2.808  16.058 -0.6080 -0.3496  0.1258
18147TIP3   OH275931   5.590   5.419   5.812  0.0724  0.5300 -0.8623
18147TIP3    H175932   5.520   5.361   5.782  1.0329 -0.5595 -1.0581
18147TIP3    H275933   5.649   5.426   5.737  1.5682 -0.7776  0.1410
18148TIP3   OH275934   1.866   2.413   4.843  0.2141  0.4785 -0.8693
18148TIP3    H175935   1.789   2.467   4.825 -0.5982  0.5606  2.3006
18148TIP3    H275936   1.909   2.457   4.916  0.8372 -1.8992  0.2675
18149TIP3   OH275937   4.781   4.433  11.442  1.4256 -0.0361  0.1804
18149TIP3    H175938   4.844   4.375  11.401  0.4222 -0.6566 -0.5288
18149TIP3    H275939   4.715   4.449  11.375  0.2476 -0.2970  1.2314
18150TIP3   OH275940   4.574   3.535  14.283  0.3700 -0.2546  0.1699
18150TIP3    H175941   4.514   3.478  14.235 -0.2771  0.9645 -0.4887
18150TIP3    H275942   4.608   3.479  14.353 -0.9884 -1.1722  0.1371
18151TIP3   OH275943   4.124   6.336   0.326 -0.4634  0.6268 -0.5439
18151TIP3    H175944   4.038   6.331   0.366 -0.4746  2.8287 -0.1311
18151TIP3    H275945   4.149   6.429   0.335 -0.0823  1.1188 -4.8531
18152TIP3   OH275946   1.317   6.133  11.584 -0.6364  0.0257  0.2113
18152TIP3    H175947   1.358   6.050  11.561 -2.7108 -0.9457 -0.2038
18152TIP3    H275948   1.308   6.180  11.502  0.2988  0.5637  0.4093
18153TIP3   OH275949   2.974   0.262   4.585  0.6660 -1.0049  0.2439
18153TIP3    H175950   2.941   0.226   4.667  1.3268  0.0607  0.9983
18153TIP3    H275951   3.068   0.276   4.601  0.5604  0.3825 -0.2474
18154TIP3   OH275952   2.980   6.456   0.720  0.2521  0.2711 -0.2407
18154TIP3    H175953   2.970   6.459   0.625  1.5241 -0.2170 -0.3984
18154TIP3    H275954   2.999   6.547   0.745 -0.7351  0.5286 -0.3491
18155TIP3   OH275955   0.412   2.308  12.831 -0.3505  0.4454  0.1747
18155TIP3    H175956   0.370   2.229  12.796  0.3158 -0.5365  1.4848
18155TIP3    H275957   0.358   2.380  12.800 -2.4590 -0.6970  0.9924
18156TIP3   OH275958   4.724   1.907  12.320 -0.4240 -0.3230  0.3920
18156TIP3    H175959   4.678   1.969  12.262  1.4023 -0.4743 -1.3293
18156TIP3    H275960   4.656   1.874  12.378 -1.7271  2.3484  0.5687
18157TIP3   OH275961   3.684   3.530  10.813  0.0882  0.2030 -0.1227
18157TIP3    H175962   3.633   3.495  10.740 -1.4122  0.4607  0.7471
18157TIP3    H275963   3.731   3.455  10.848  2.7530  0.4521 -2.7217
18158TIP3   OH275964   5.727   2.459  16.800  0.6253 -0.1294 -0.2807
18158TIP3    H175965   5.674   2.458  16.880  1.2339 -1.6742  0.1368
18158TIP3    H275966   5.739   2.552  16.781 -0.6560  0.2576  0.6627
18159TIP3   OH275967   3.511   1.550   1.756  0.0021  0.0990  0.3753
18159TIP3    H175968   3.455   1.609   1.706  0.0537  0.4465  0.7225
18159TIP3    H275969   3.549   1.605   1.825  0.4733 -0.2171  0.3740
18160TIP3   OH275970   2.006   4.265  15.599 -0.0135 -0.6211 -0.2662
18160TIP3    H175971   2.094   4.232  15.618  0.4749  2.3443  3.7881
18160TIP3    H275972   2.017   4.321  15.523  1.2840 -1.2730 -0.5878
18161TIP3   OH275973   3.226   5.864  13.395  0.9185 -0.0867  0.3261
18161TIP3    H175974   3.262   5.914  13.468  0.8841  2.1692 -1.1083
18161TIP3    H275975   3.294   5.868  13.327  0.6632 -1.5153 -0.0528
18162TIP3   OH275976   5.208   4.530  13.043 -0.1318 -0.4956 -0.5539
18162TIP3    H175977   5.163   4.579  13.113  0.1440 -2.7888  1.3548
18162TIP3    H275978   5.282   4.489  13.087 -0.2088 -2.3956 -2.0707
18163TIP3   OH275979   6.596   4.757  15.162 -0.0838  0.2468 -0.2785
18163TIP3    H175980   6.690   4.764  15.148 -0.1745  1.4460 -0.3595
18163TIP3    H275981   6.584   4.670  15.201  1.3938  1.2184  2.5604
18164TIP3   OH275982   2.163   2.368  16.225  0.2654  0.7032 -0.6631
18164TIP3    H175983   2.221   2.295  16.248  0.1913  0.7160 -0.4328
18164TIP3    H275984   2.213   2.446  16.247  0.3444  0.7231 -0.9084
18165TIP3   OH275985   2.260   2.122  10.977  0.2113 -0.8602 -0.8377
18165TIP3    H175986   2.235   2.053  10.915  2.2434 -0.7999 -1.8092
18165TIP3    H275987   2.206   2.197  10.954 -0.0230 -1.2715 -1.6428
18166TIP3   OH275988   0.783   4.357   5.081  0.3689 -0.0531  0.1829
18166TIP3    H175989   0.808   4.410   5.005 -0.8160  0.1314 -0.0997
18166TIP3    H275990   0.837   4.278   5.074  0.2492 -0.0589 -0.8874
18167TIP3   OH275991   2.534   1.755   1.130 -0.4588 -0.4822  0.1706
18167TIP3    H175992   2.521   1.746   1.036  0.2620 -0.4263  0.0560
18167TIP3    H275993   2.582   1.676   1.155  1.0794  0.4035  0.1308
18168TIP3   OH275994   4.144   1.226   1.092  0.5441  0.0194 -0.4374
18168TIP3    H175995   4.082   1.167   1.134 -0.2156  0.0698 -1.4677
18168TIP3    H275996   4.211   1.241   1.159 -0.0856 -0.7287  0.3868
18169TIP3   OH275997   1.881   5.690  11.099  0.1341  0.3436  0.4737
18169TIP3    H175998   1.937   5.645  11.036 -0.9481  1.3303 -1.2622
18169TIP3    H275999   1.792   5.663  11.077 -0.3822  1.8460  0.5846
18170TIP3   OH276000   5.166   3.335   0.165 -0.6564 -0.2417  0.0662
18170TIP3    H176001   5.167   3.241   0.180 -2.5916 -0.3903 -0.4664
18170TIP3    H276002   5.086   3.351   0.115  1.1592  1.2999 -2.6339
18171TIP3   OH276003   5.796   4.947   5.567  0.1633 -0.2845 -0.4412
18171TIP3    H176004   5.889   4.971   5.559 -0.0702  0.4247 -1.1244
18171TIP3    H276005   5.781   4.946   5.662  0.6291  0.5986 -0.3381
18172TIP3   OH276006   1.917   5.156  12.555  0.3557 -0.2734 -0.2204
18172TIP3    H176007   1.934   5.157  12.650 -0.0356  0.5477 -0.1510
18172TIP3    H276008   1.868   5.075  12.540 -2.8340  1.3072  0.8860
18173TIP3   OH276009   2.812   0.397   5.877  0.4493  0.2556  0.1888
18173TIP3    H176010   2.724   0.375   5.908  0.2791 -0.0812 -0.5106
18173TIP3    H276011   2.866   0.395   5.955  0.0254 -0.5647  0.4724
18174TIP3   OH276012   6.532   3.767   5.073 -0.9178 -0.0664  0.0349
18174TIP3    H176013   6.582   3.770   4.992  0.9977  0.2676  1.1668
18174TIP3    H276014   6.593   3.797   5.141 -2.1751 -1.1460  1.7487
18175TIP3   OH276015   1.422   1.105  13.661 -0.0225 -0.0410  0.1832
18175TIP3    H176016   1.405   1.101  13.567  0.3834  1.0385  0.0410
18175TIP3    H276017   1.395   1.194  13.686  1.7723  0.4203  0.6685
18176TIP3   OH276018   1.557   1.176   1.311 -0.1311 -0.1543  0.2561
18176TIP3    H176019   1.587   1.267   1.312  0.0307 -0.2080  0.3277
18176TIP3    H276020   1.625   1.128   1.360 -0.9247 -0.0895  1.4597
18177TIP3   OH276021   2.499   5.297   0.017 -0.2433  0.1486  0.2521
18177TIP3    H176022   2.490   5.378   0.068 -0.3711  0.0724  0.3525
18177TIP3    H276023   2.421   5.246   0.040 -1.1677  0.8050 -1.2792
18178TIP3   OH276024   6.549   6.052  16.120  0.5121 -0.1331  0.1138
18178TIP3    H176025   6.621   6.008  16.074  1.8092  2.1413 -0.1811
18178TIP3    H276026   6.581   6.140  16.135 -0.7355 -0.1252  3.4929
18179TIP3   OH276027   5.814   0.113  12.622  0.2612  0.2872 -0.2553
18179TIP3    H176028   5.822   0.208  12.619  0.0021  0.3209  0.0522
18179TIP3    H276029   5.864   0.087  12.700 -1.8583  0.4310  1.2367
18180TIP3   OH276030   4.000   4.255  12.788 -0.5669  0.0202 -0.4958
18180TIP3    H176031   4.071   4.314  12.816 -2.2263  2.0320 -0.2605
18180TIP3    H276032   3.971   4.213  12.869 -0.6240  0.3313 -0.3543
18181TIP3   OH276033   5.537   2.115  13.279  0.5806  0.6559  0.1709
18181TIP3    H176034   5.620   2.162  13.286 -0.0218  1.7203  0.3250
18181TIP3    H276035   5.501   2.141  13.195  0.7023 -0.3324 -0.2028
18182TIP3   OH276036   1.624   2.917  13.637  0.1871  0.4004 -0.0234
18182TIP3    H176037   1.686   2.986  13.660  0.6791  0.0698 -0.3429
18182TIP3    H276038   1.640   2.848  13.702  1.3393 -0.3907 -1.1051
18183TIP3   OH276039   1.554   2.121  16.815 -0.1618  0.5520  0.4641
18183TIP3    H176040   1.640   2.082  16.830 -0.8343 -1.4504 -0.4769
18183TIP3    H276041   1.507   2.055  16.763 -1.8918  2.0529  0.0252
18184TIP3   OH276042   6.526   2.095  15.879  0.0130 -0.6515  0.1994
18184TIP3    H176043   6.532   2.034  15.952 -0.6688 -1.2768 -0.2580
18184TIP3    H276044   6.614   2.093  15.840  0.6473  0.3452  1.4894
18185TIP3   OH276045   1.931   2.494   2.912 -0.2112  0.2838  0.2539
18185TIP3    H176046   1.915   2.502   3.006  1.2264  0.4567  0.5064
18185TIP3    H276047   2.024   2.472   2.906 -0.7986 -2.2033 -1.0123
18186TIP3   OH276048   2.178   4.763   0.498  0.0181  0.2883 -0.6075
18186TIP3    H176049   2.241   4.691   0.500  0.5802  0.7675 -0.6774
18186TIP3    H276050   2.113   4.740   0.565  0.2817 -0.2016 -0.5147
18187TIP3   OH276051   2.460   5.908  16.277  0.0140 -0.5534 -0.1641
18187TIP3    H176052   2.506   5.966  16.217  0.6849 -3.4091 -2.6398
18187TIP3    H276053   2.528   5.853  16.315 -0.7924 -1.1421  0.4894
18188TIP3   OH276054   3.894   2.664   6.302 -0.0123 -0.1905  0.0304
18188TIP3    H176055   3.987   2.661   6.326 -0.1817 -0.0570  0.6942
18188TIP3    H276056   3.851   2.707   6.375 -0.6671 -0.6385 -0.0850
18189TIP3   OH276057   5.486   1.867  13.685  0.2294  0.0746  0.3269
18189TIP3    H176058   5.570   1.909  13.704  0.0618  0.6624 -0.1942
18189TIP3    H276059   5.479   1.870  13.590  1.0345 -2.7631  0.0857
18190TIP3   OH276060   3.946   6.492  12.429  0.3260 -0.6281 -0.8061
18190TIP3    H176061   4.040   6.472  12.424  0.3497 -0.4791 -0.9625
18190TIP3    H276062   3.942   6.587  12.441  0.2713 -0.8998  1.9436
18191TIP3   OH276063   1.759   3.123   0.142  0.0970  0.1942 -0.2575
18191TIP3    H176064   1.807   3.042   0.160  0.1401  0.5903  1.5200
18191TIP3    H276065   1.740   3.118   0.048  0.7871 -1.4925 -0.3523
18192TIP3   OH276066   0.271   5.421  15.499 -0.0276 -0.5211 -0.5468
18192TIP3    H176067   0.314   5.337  15.481  0.5737 -0.7784  1.8076
18192TIP3    H276068   0.297   5.443  15.588  1.6565  3.2916 -1.7452
18193TIP3   OH276069   4.598   0.449  11.511 -0.9319 -0.2529 -0.3126
18193TIP3    H176070   4.602   0.362  11.470 -1.4914 -0.0275 -0.8575
18193TIP3    H276071   4.688   0.481  11.507 -1.1870  0.3579 -2.6919
18194TIP3   OH276072   0.419   3.027   2.699 -0.6527 -0.0893  0.3547
18194TIP3    H176073   0.505   3.037   2.659 -0.1690  0.1694  1.4111
18194TIP3    H276074   0.383   2.949   2.659  0.0270 -0.1378 -0.1860
18195TIP3   OH276075   5.223   4.660  17.097 -0.5434  0.2951 -0.2067
18195TIP3    H176076   5.128   4.665  17.090 -0.6591  0.6824  1.2676
18195TIP3    H276077   5.255   4.674  17.008 -1.8793 -0.5733 -0.8537
18196TIP3   OH276078   3.120   5.759   2.063 -0.1584 -0.3602  0.1341
18196TIP3    H176079   3.079   5.747   1.977  0.2598 -1.4918  0.0745
18196TIP3    H276080   3.150   5.672   2.087  2.3270  0.4126  0.1191
18197TIP3   OH276081   5.647   1.834   5.638  0.6080  0.0357 -0.5957
18197TIP3    H176082   5.562   1.876   5.651  0.3528 -0.9398  1.2676
18197TIP3    H276083   5.636   1.781   5.559 -0.6176 -0.2659 -0.2521
18198TIP3   OH276084   1.933   0.837  10.847 -0.3270 -0.1103 -0.2251
18198TIP3    H176085   1.975   0.918  10.816 -0.4264 -0.0991 -0.3299
18198TIP3    H276086   1.967   0.825  10.936 -0.6338  0.2703 -0.0555
18199TIP3   OH276087   1.018   5.897  12.675 -0.6204  0.6571 -0.6289
18199TIP3    H176088   1.037   5.991  12.674 -2.2131  1.2366  3.8518
18199TIP3    H276089   0.923   5.891  12.683 -0.4162 -1.2299  1.0307
18200TIP3   OH276090   4.825   1.600   0.446  0.0395 -0.2566 -0.4559
18200TIP3    H176091   4.920   1.614   0.447  0.1165 -0.6464 -1.5488
18200TIP3    H276092   4.809   1.548   0.368 -1.1089 -0.0251 -0.3898
18201TIP3   OH276093   2.055   3.792  15.743 -0.8696 -0.3022  0.1891
18201TIP3    H176094   2.013   3.872  15.776 -1.6626 -0.2772 -0.8326
18201TIP3    H276095   1.999   3.764  15.671 -0.5954 -1.7849  0.5272
18202TIP3   OH276096   3.107   1.183  15.451 -0.2116 -0.0529  0.6291
18202TIP3    H176097   3.137   1.120  15.516 -2.6710 -0.9735  0.9920
18202TIP3    H276098   3.018   1.206  15.479 -0.8356  0.5819 -1.6237
18203TIP3   OH276099   2.873   1.066   1.700  0.0136 -0.2982  0.1925
18203TIP3    H176100   2.818   1.071   1.779 -0.3372 -0.3802 -0.0427
18203TIP3    H276101   2.960   1.043   1.733 -0.4180 -1.6724  0.4610
18204TIP3   OH276102   4.613   3.857   4.536  0.3934  0.3367  0.0751
18204TIP3    H176103   4.632   3.932   4.479  0.1872  1.2322  1.1451
18204TIP3    H276104   4.524   3.874   4.569 -0.2250 -1.1209 -0.7768
18205TIP3   OH276105   5.132   2.915   3.760  0.0032  0.2172 -0.1840
18205TIP3    H176106   5.220   2.936   3.790 -0.6074 -0.6259  2.5032
18205TIP3    H276107   5.074   2.964   3.819 -1.3277 -3.0545  1.4529
18206TIP3   OH276108   4.308   4.589  13.597  0.6277 -0.2239 -0.1610
18206TIP3    H176109   4.262   4.511  13.627  0.1425  0.3270  0.5548
18206TIP3    H276110   4.328   4.571  13.505 -0.6826 -0.6295 -0.3816
18207TIP3   OH276111   2.773   3.982  14.112 -0.0229 -0.7742  0.6813
18207TIP3    H176112   2.717   3.952  14.184 -0.5254 -2.4031 -0.3306
18207TIP3    H276113   2.725   3.957  14.033  0.3466  1.2984 -0.2568
18208TIP3   OH276114   4.228   6.719   1.227  0.7018 -0.2862  0.1018
18208TIP3    H176115   4.310   6.670   1.230  1.7683  1.4589  2.0198
18208TIP3    H276116   4.251   6.802   1.185 -0.5626 -0.4998 -1.0820
18209TIP3   OH276117   4.330   4.170  12.600 -0.0653  0.4417  0.1206
18209TIP3    H176118   4.410   4.142  12.555  0.1030  0.3016  0.5008
18209TIP3    H276119   4.300   4.093  12.648  0.0572  0.7298  0.6733
18210TIP3   OH276120   4.730   5.385   1.996  0.2103 -0.2826  0.2492
18210TIP3    H176121   4.726   5.307   2.051 -0.0728 -1.2095 -1.0331
18210TIP3    H276122   4.806   5.371   1.940  0.4055  0.5595  0.3036
18211TIP3   OH276123   1.102   4.241   1.101 -0.5624 -0.4676 -0.0276
18211TIP3    H176124   1.015   4.223   1.136  0.3596 -0.8039  2.2875
18211TIP3    H276125   1.111   4.181   1.027 -2.1870 -0.5747 -0.1801
18212TIP3   OH276126   5.064   0.343  12.395 -0.4946 -0.6320 -0.0954
18212TIP3    H176127   5.142   0.378  12.437 -0.2611 -2.3277  0.9815
18212TIP3    H276128   5.001   0.333  12.466 -2.7011  3.0360 -1.2837
18213TIP3   OH276129   4.810   0.467  11.208  0.0612 -0.1546  0.3199
18213TIP3    H176130   4.805   0.563  11.210 -2.7801 -0.2237  1.4657
18213TIP3    H276131   4.899   0.448  11.176  0.7604  2.8279  0.1904
18214TIP3   OH276132   1.548   4.083   4.189 -0.0975 -0.1050  0.2892
18214TIP3    H176133   1.579   4.014   4.131 -1.7434 -1.0077  0.4238
18214TIP3    H276134   1.531   4.158   4.131 -1.0238 -0.7583 -0.3115
18215TIP3   OH276135   6.451   2.956  13.188  0.3023  0.2871  0.5331
18215TIP3    H176136   6.430   2.910  13.107 -0.3098  3.8463 -1.5357
18215TIP3    H276137   6.387   2.924  13.251 -0.3511 -1.3089 -0.8642
18216TIP3   OH276138   6.611   2.032   4.640 -0.5453 -0.6621  0.1708
18216TIP3    H176139   6.601   2.040   4.735 -2.0223 -1.6080  0.1257
18216TIP3    H276140   6.531   1.989   4.611 -1.9665  3.0222 -2.0099
18217TIP3   OH276141   2.256   2.036  11.520 -0.4371  0.1613  0.2610
18217TIP3    H176142   2.201   2.083  11.582  0.5472  0.0160  1.2720
18217TIP3    H276143   2.198   2.017  11.446 -1.5956  0.4634  1.0685
18218TIP3   OH276144   5.918   3.012  12.094  0.2241  0.1255  0.2940
18218TIP3    H176145   5.827   3.017  12.065  0.2467  2.3041  0.4445
18218TIP3    H276146   5.969   3.019  12.014  0.3168 -1.7851  0.1317
18219TIP3   OH276147   0.349   3.345   0.892 -0.2780 -0.1612  0.2934
18219TIP3    H176148   0.287   3.414   0.916 -0.9485 -0.8444  0.5688
18219TIP3    H276149   0.408   3.387   0.828  1.7735  1.8370  3.2309
18220TIP3   OH276150   0.634   2.100  13.396  0.0902 -0.4191 -0.3220
18220TIP3    H176151   0.713   2.080  13.346  0.3383 -0.1512 -0.0461
18220TIP3    H276152   0.635   2.196  13.405 -0.6203 -0.3552 -0.8909
18221TIP3   OH276153   3.107   5.159   0.168 -0.6577  0.7585 -0.8324
18221TIP3    H176154   3.120   5.076   0.214 -0.1369  0.3236 -1.7202
18221TIP3    H276155   3.178   5.161   0.103 -0.1958  2.2601 -0.3193
18222TIP3   OH276156   2.139   4.014  13.770  0.0696  0.4362  0.5959
18222TIP3    H176157   2.141   3.989  13.677 -1.3275  2.9641 -0.2167
18222TIP3    H276158   2.120   3.933  13.816 -3.7137 -0.2704 -1.7574
18223TIP3   OH276159   2.584   3.029   4.484 -0.3448 -0.0648 -0.1273
18223TIP3    H176160   2.594   3.084   4.407  0.0500  0.7812  0.5031
18223TIP3    H276161   2.664   3.045   4.535 -0.4656 -0.8284  0.3174
18224TIP3   OH276162   3.687   4.388  15.016 -0.0561 -0.1454  0.2802
18224TIP3    H176163   3.739   4.369  15.094 -0.0436  0.6434  0.4726
18224TIP3    H276164   3.651   4.303  14.990 -0.2763 -0.3791  1.2978
18225TIP3   OH276165   2.255   6.381   6.730  0.1910  0.3252 -0.5182
18225TIP3    H176166   2.321   6.411   6.667  0.1590  1.7021  0.0555
18225TIP3    H276167   2.187   6.340   6.677  0.8147  0.2115 -1.2462
18226TIP3   OH276168   1.756   0.462   4.695 -0.2052 -0.0070  0.3542
18226TIP3    H176169   1.844   0.431   4.715  0.0806  0.7494  0.2610
18226TIP3    H276170   1.749   0.455   4.600  0.1392  0.9624  0.2564
18227TIP3   OH276171   4.083   2.381  12.878 -0.5704  0.6470  0.0235
18227TIP3    H176172   4.151   2.426  12.929  0.9029  0.4860 -1.6827
18227TIP3    H276173   4.129   2.309  12.835 -2.1485 -0.3527 -0.0757
18228TIP3   OH276174   4.152   2.802  16.489  0.1182  0.4019  0.0777
18228TIP3    H176175   4.117   2.857  16.418 -2.7809 -0.1941  0.9154
18228TIP3    H276176   4.177   2.864  16.557 -1.6009  0.8296  0.3732
18229TIP3   OH276177   0.779   3.619   2.245 -0.6584  0.2803  0.2742
18229TIP3    H176178   0.868   3.591   2.265 -1.2232 -1.7812  0.1553
18229TIP3    H276179   0.786   3.669   2.164  0.2620 -0.8680 -0.3817
18230TIP3   OH276180   2.887   0.417  14.764  0.1206 -0.2919 -0.3838
18230TIP3    H176181   2.884   0.500  14.716 -0.1932  0.4546  0.8855
18230TIP3    H276182   2.966   0.424  14.818 -0.2453 -0.5622  0.1901
18231TIP3   OH276183   3.399   1.593   5.808 -0.0710 -0.3838 -0.4543
18231TIP3    H176184   3.444   1.677   5.808 -0.5922 -0.0913 -1.7581
18231TIP3    H276185   3.324   1.606   5.867  0.6507 -0.3981  0.4843
18232TIP3   OH276186   5.177   0.263   0.661  0.0361  0.1447  0.0936
18232TIP3    H176187   5.201   0.354   0.679 -0.1038  0.4178 -1.0224
18232TIP3    H276188   5.257   0.213   0.676  0.8576  0.7952 -1.7239
18233TIP3   OH276189   0.934   1.405  14.708  1.2314  0.3480  0.5103
18233TIP3    H176190   1.009   1.463  14.700 -0.0208  2.0192  0.3954
18233TIP3    H276191   0.919   1.397  14.803  1.7068 -0.2199  0.5433
18234TIP3   OH276192   4.862   1.675  12.132 -0.3388  0.0210 -0.2079
18234TIP3    H176193   4.938   1.727  12.106  0.8050 -2.1209 -1.3406
18234TIP3    H276194   4.790   1.711  12.080  0.3426  0.6583 -0.7347
18235TIP3   OH276195   4.374   2.310   3.360  0.5875  0.3385 -0.1636
18235TIP3    H176196   4.344   2.277   3.444  1.2565  0.0406 -0.0313
18235TIP3    H276197   4.295   2.340   3.316 -0.0159 -1.2237 -0.1893
18236TIP3   OH276198   2.111   2.792  16.448 -0.1222  0.5880 -0.6135
18236TIP3    H176199   2.171   2.719  16.429  0.3629  1.1594 -1.3805
18236TIP3    H276200   2.034   2.774  16.393 -0.5827 -0.0433  0.2225
18237TIP3   OH276201   5.732   6.754  14.298  0.6800  0.3892 -0.3463
18237TIP3    H176202   5.770   6.684  14.245 -0.2591  0.2794 -0.8871
18237TIP3    H276203   5.685   6.809  14.236  2.0187  1.9495 -0.0471
18238TIP3   OH276204   3.902   2.248   1.006  0.2979 -0.1438  0.5178
18238TIP3    H176205   3.951   2.220   0.929  0.7804 -0.5363  0.9684
18238TIP3    H276206   3.810   2.240   0.980  0.3892  2.5863 -1.0826
18239TIP3   OH276207   1.010   4.130   2.431  0.1682  0.0633  0.3523
18239TIP3    H176208   1.014   4.204   2.371 -2.8761 -0.3103 -0.4936
18239TIP3    H276209   0.945   4.156   2.497 -0.0776 -1.3466  0.7156
18240TIP3   OH276210   4.328   3.655  16.205 -0.4396  0.3315  0.2270
18240TIP3    H176211   4.361   3.634  16.292 -2.1241  0.3130  0.8870
18240TIP3    H276212   4.376   3.734  16.180  0.6858 -0.1528  0.7867
18241TIP3   OH276213   3.647   2.349  13.853 -0.0340  0.2130 -0.1469
18241TIP3    H176214   3.623   2.270  13.901  0.4686 -0.1629 -0.5032
18241TIP3    H276215   3.573   2.367  13.796  0.1062 -0.3581 -0.5139
18242TIP3   OH276216   2.970   2.823   4.861  0.2738  0.3019 -0.0407
18242TIP3    H176217   3.020   2.754   4.904 -0.1451 -0.1131 -0.2186
18242TIP3    H276218   2.907   2.852   4.927  1.9783  2.1596  0.8607
18243TIP3   OH276219   5.790   2.709   4.162  0.4220 -0.1664 -0.0465
18243TIP3    H176220   5.827   2.628   4.126  2.7873  1.5117 -1.7299
18243TIP3    H276221   5.854   2.738   4.227  0.4915  1.1907 -0.6914
18244TIP3   OH276222   0.147   5.925   0.765 -0.0705 -0.1850 -0.2771
18244TIP3    H176223   0.182   5.914   0.677 -0.3263 -0.7572 -0.3045
18244TIP3    H276224   0.178   5.848   0.814 -1.7038 -0.9723 -0.4309
18245TIP3   OH276225   1.427   3.841  11.559 -0.0133 -0.2568  0.1328
18245TIP3    H176226   1.470   3.759  11.537  2.2741  0.6405  0.9997
18245TIP3    H276227   1.395   3.874  11.475 -1.0313 -2.0052 -0.2194
18246TIP3   OH276228   3.038   5.159   0.620 -0.4581 -0.5526 -0.5891
18246TIP3    H176229   3.023   5.233   0.562  2.2212  0.5954  0.0367
18246TIP3    H276230   3.120   5.180   0.665  1.2153 -4.4995 -1.3824
18247TIP3   OH276231   6.326   4.881   0.873 -0.2935  0.0798  0.2034
18247TIP3    H176232   6.389   4.951   0.854 -0.1621 -0.0812  0.0499
18247TIP3    H276233   6.253   4.926   0.915 -0.0556  0.2599  0.4235
18248TIP3   OH276234   2.335   2.327   1.696  0.1732  0.5551 -0.2859
18248TIP3    H176235   2.414   2.357   1.652  0.9147 -2.5107 -1.2580
18248TIP3    H276236   2.366   2.289   1.778  0.1231 -2.6133 -1.6124
18249TIP3   OH276237   3.793   1.342  13.755  0.6963 -0.1540 -0.3871
18249TIP3    H176238   3.879   1.383  13.748  0.2630  0.9134  0.2649
18249TIP3    H276239   3.746   1.370  13.676  0.7119 -0.1561 -0.3971
18250TIP3   OH276240   6.411   2.782  12.992  0.5382 -0.5077 -0.0553
18250TIP3    H176241   6.490   2.774  12.938 -0.3313  2.5530 -2.0303
18250TIP3    H276242   6.353   2.713  12.961  0.9502 -0.2623 -1.4318
18251TIP3   OH276243   0.556   0.380   3.950  0.0802  0.1424 -0.3796
18251TIP3    H176244   0.574   0.384   4.044 -1.6173 -1.2862  0.0720
18251TIP3    H276245   0.586   0.293   3.924 -0.5914  0.0546 -0.8811
18252TIP3   OH276246   4.747   1.476  11.272  0.3450 -0.3414  0.2949
18252TIP3    H176247   4.763   1.480  11.366 -0.7751 -0.2121  0.4841
18252TIP3    H276248   4.657   1.446  11.263  0.1787  0.3866 -0.7198
18253TIP3   OH276249   0.279   1.446   5.013 -0.0696  0.3656 -0.3095
18253TIP3    H176250   0.302   1.499   5.089  0.7167 -1.1327  0.5552
18253TIP3    H276251   0.358   1.446   4.959 -0.3709  0.7952 -0.7604
18254TIP3   OH276252   2.905   3.911  10.539 -0.3660  0.2904 -0.2156
18254TIP3    H176253   2.992   3.901  10.577 -0.4400  1.3980  0.2771
18254TIP3    H276254   2.912   3.871  10.452  1.1237  1.8184 -0.8621
18255TIP3   OH276255   3.961   6.749  14.937  0.1100 -0.6461  0.9398
18255TIP3    H176256   4.008   6.832  14.936 -1.5938  0.4195  2.5226
18255TIP3    H276257   3.933   6.736  14.846  0.2688  0.6006  0.7007
18256TIP3   OH276258   5.502   5.259   6.567 -0.4120 -0.2922 -0.0433
18256TIP3    H176259   5.500   5.185   6.507  1.0003 -0.0850 -0.3783
18256TIP3    H276260   5.450   5.231   6.643  2.4232 -2.7937  1.1559
18257TIP3   OH276261   3.092   5.476   3.137  0.0720 -0.3252 -0.3517
18257TIP3    H176262   3.163   5.438   3.085 -0.1438 -0.7159 -0.3627
18257TIP3    H276263   3.128   5.482   3.225 -0.4656 -2.1339  0.0099
18258TIP3   OH276264   2.853   6.486  15.960 -0.3896  0.8964 -0.1995
18258TIP3    H176265   2.913   6.437  15.904 -0.3850  0.3714  0.2575
18258TIP3    H276266   2.903   6.505  16.040 -0.9192  0.1722  0.3191
18259TIP3   OH276267   1.191   2.391   5.664 -0.1940 -0.2513  0.2283
18259TIP3    H176268   1.260   2.359   5.606 -1.5469  0.0735 -1.6834
18259TIP3    H276269   1.152   2.313   5.702 -0.9066 -0.7077 -1.3319
18260TIP3   OH276270   1.475   1.736  15.162  0.4455  0.2528 -0.7581
18260TIP3    H176271   1.548   1.766  15.217 -0.9890  2.0127  0.2924
18260TIP3    H276272   1.467   1.803  15.094 -0.0240 -0.0830 -1.0386
18261TIP3   OH276273   4.584   3.253  16.034 -0.1532  0.5158  0.2483
18261TIP3    H176274   4.491   3.270  16.051 -0.2998 -0.1143  0.1028
18261TIP3    H276275   4.593   3.265  15.939 -0.7557 -2.3209 -0.2669
18262TIP3   OH276276   0.463   1.997   3.140  0.1332  0.8358  0.1321
18262TIP3    H176277   0.426   2.023   3.224 -0.4513  0.2402  0.0700
18262TIP3    H276278   0.557   2.012   3.149  0.2829 -0.6733  1.4438
18263TIP3   OH276279   5.619   4.953   5.197  0.3035 -0.5487 -0.1478
18263TIP3    H176280   5.714   4.958   5.187  0.2874  1.4266  0.2669
18263TIP3    H276281   5.592   4.883   5.138  2.0349 -1.3052 -0.0855
18264TIP3   OH276282   5.922   4.153   0.580 -0.3698  0.1434 -0.6231
18264TIP3    H176283   5.897   4.071   0.621 -1.2882  1.0805  0.7782
18264TIP3    H276284   6.012   4.139   0.549 -0.1256 -1.0252  0.5573
18265TIP3   OH276285   6.797   4.092  16.837  0.1635 -0.3442 -0.1044
18265TIP3    H176286   6.702   4.086  16.825  0.0167 -0.5402  1.0083
18265TIP3    H276287   6.818   4.183  16.815 -0.4167 -0.0739  0.4375
18266TIP3   OH276288   0.443   6.821   0.350 -0.2034 -0.7893  0.1755
18266TIP3    H176289   0.538   6.830   0.355 -0.0778 -1.5526 -0.6815
18266TIP3    H276290   0.427   6.728   0.363 -0.7767 -0.7727 -0.3587
18267TIP3   OH276291   0.403   5.166  15.525  0.2860  0.6286  0.1069
18267TIP3    H176292   0.488   5.125  15.511  0.5799  0.6887  1.5084
18267TIP3    H276293   0.340   5.108  15.482  0.3818 -2.7757  3.9376
18268TIP3   OH276294   3.525   0.709  15.230 -0.1407  0.3371 -0.1074
18268TIP3    H176295   3.491   0.676  15.147 -1.0436  0.4253  0.2203
18268TIP3    H276296   3.614   0.738  15.210 -0.8294  1.6851 -1.3864
18269TIP3   OH276297   6.683   3.759  13.306 -0.6637  0.6884  0.4110
18269TIP3    H176298   6.669   3.750  13.211  2.0523  2.2575 -0.2710
18269TIP3    H276299   6.728   3.678  13.331  1.0298  1.3652 -0.2815
18270TIP3   OH276300   4.276   4.781   3.642 -0.5623  0.0241 -0.3665
18270TIP3    H176301   4.262   4.855   3.701 -2.2629 -0.3436 -0.2461
18270TIP3    H276302   4.278   4.705   3.699 -0.4903 -0.1701 -0.6274
18271TIP3   OH276303   3.196   0.033   4.440 -0.6131  0.1531 -0.9813
18271TIP3    H176304   3.107   0.009   4.467 -1.1568  0.7271 -2.1318
18271TIP3    H276305   3.215   0.113   4.488 -0.2594 -0.5688  0.1060
18272TIP3   OH276306   6.271   5.354   2.481 -0.2136 -0.3135  0.1803
18272TIP3    H176307   6.285   5.293   2.408  0.6454 -0.6374  0.6114
18272TIP3    H276308   6.176   5.350   2.497 -0.5201  0.2191 -1.3066
18273TIP3   OH276309   3.409   3.077   2.080  0.1992 -0.7865  0.1287
18273TIP3    H176310   3.460   3.117   2.151 -0.6237  0.9911 -0.2327
18273TIP3    H276311   3.319   3.106   2.096 -0.0019 -0.3322 -1.6282
18274TIP3   OH276312   4.836   2.953   4.993  0.2697  0.1894 -0.2625
18274TIP3    H176313   4.904   3.021   4.995  0.6817 -0.0943 -2.1543
18274TIP3    H276314   4.773   2.985   4.929  0.6977 -1.3685 -1.5291
18275TIP3   OH276315   5.324   1.638   1.526  0.2108  0.2634 -0.0642
18275TIP3    H176316   5.266   1.648   1.601  2.0899  0.6738  1.4136
18275TIP3    H276317   5.380   1.716   1.528  1.0742 -0.2983 -1.1858
18276TIP3   OH276318   6.280   5.993   4.755 -0.0793  0.2522  0.3031
18276TIP3    H176319   6.279   6.083   4.788 -1.1002  0.7044 -0.8950
18276TIP3    H276320   6.253   5.940   4.830  0.8988  0.8746  1.1330
18277TIP3   OH276321   0.875   1.608  11.326  0.2230  0.3159  0.3247
18277TIP3    H176322   0.808   1.543  11.302 -0.1453  1.0740 -0.8017
18277TIP3    H276323   0.952   1.556  11.349  0.2145 -0.5332 -1.3909
18278TIP3   OH276324   3.771   1.545  12.912  0.6454  0.0762 -0.1761
18278TIP3    H176325   3.689   1.539  12.863  0.3265  0.7878  0.2584
18278TIP3    H276326   3.751   1.507  12.997  0.4358  1.2634  0.3229
18279TIP3   OH276327   2.507   6.467  11.447  0.4520 -0.2619  0.1928
18279TIP3    H176328   2.491   6.465  11.542 -0.8665 -0.0154 -0.0066
18279TIP3    H276329   2.547   6.382  11.428  0.5904 -0.3733  0.9565
18280TIP3   OH276330   6.392   5.236  11.566 -0.2656  0.6195 -0.1561
18280TIP3    H176331   6.317   5.294  11.552 -1.4741 -1.1825 -1.7271
18280TIP3    H276332   6.386   5.211  11.658 -1.9922  0.0632 -0.3800
18281TIP3   OH276333   5.854   1.074   5.194  1.1702  0.3172  0.0561
18281TIP3    H176334   5.870   0.985   5.226  1.2576  0.0834 -0.6387
18281TIP3    H276335   5.781   1.105   5.248  0.3189 -0.6218 -0.5241
18282TIP3   OH276336   0.076   3.115   0.481  0.0260  0.1532  0.4427
18282TIP3    H176337   0.134   3.118   0.557 -0.9641 -2.5087  1.4122
18282TIP3    H276338   0.113   3.179   0.420  3.9323 -1.3259  0.9989
18283TIP3   OH276339   5.453   2.921  12.895  0.4460  0.3918  0.3955
18283TIP3    H176340   5.470   2.828  12.912 -1.9341 -0.1130  0.3966
18283TIP3    H276341   5.426   2.924  12.803  0.4862  1.0697  0.4022
18284TIP3   OH276342   0.297   4.968   6.300  0.2422 -0.0723 -0.1774
18284TIP3    H176343   0.392   4.975   6.288  0.8288 -0.5473  3.2074
18284TIP3    H276344   0.277   4.877   6.280  0.6796 -0.2240  0.0698
18285TIP3   OH276345   1.831   6.728   0.249 -0.3612 -0.0760 -0.1366
18285TIP3    H176346   1.784   6.671   0.310  1.3218 -0.9581  0.4225
18285TIP3    H276347   1.816   6.690   0.163  0.8363 -1.4860  0.2444
18286TIP3   OH276348   5.993   6.277  15.598 -0.1768 -0.3255  0.1270
18286TIP3    H176349   5.907   6.296  15.561 -0.4475 -1.2675  0.2350
18286TIP3    H276350   6.054   6.292  15.525 -0.4557  0.1021 -0.0216
18287TIP3   OH276351   2.689   3.902   3.443 -0.0557  0.0109 -0.1367
18287TIP3    H176352   2.688   3.971   3.376 -0.0562 -0.0563 -0.2054
18287TIP3    H276353   2.604   3.860   3.436 -1.2114  1.8331  1.8051
18288TIP3   OH276354   1.721   3.272  12.762 -0.8310 -0.3675  0.0501
18288TIP3    H176355   1.748   3.266  12.671 -0.1724  0.1648  0.1977
18288TIP3    H276356   1.639   3.223  12.767 -1.4266  0.4783 -1.0567
18289TIP3   OH276357   5.032   3.810   3.846  0.4769 -0.0977  0.0723
18289TIP3    H176358   5.051   3.899   3.876 -0.8090  0.5307 -0.8521
18289TIP3    H276359   4.991   3.823   3.760  0.6370 -1.6138 -0.2465
18290TIP3   OH276360   0.447   3.218  11.099 -0.4455  0.6612 -0.0050
18290TIP3    H176361   0.522   3.160  11.109  0.6079  2.1780  1.5463
18290TIP3    H276362   0.460   3.259  11.013  1.7631  2.4520  1.0583
18291TIP3   OH276363   2.813   2.598   2.330 -0.1038 -0.0896 -0.2393
18291TIP3    H176364   2.808   2.583   2.235  2.4363 -1.2177 -0.2846
18291TIP3    H276365   2.725   2.580   2.362 -1.2326  1.1161 -2.4653
18292TIP3   OH276366   1.169   3.239  14.231 -0.3665 -0.0208 -0.3343
18292TIP3    H176367   1.097   3.300  14.211 -0.5880 -0.0869  0.2381
18292TIP3    H276368   1.134   3.153  14.207  0.5876  0.2153 -2.8737
18293TIP3   OH276369   1.197   6.623  12.097 -0.1743  0.3240  0.3743
18293TIP3    H176370   1.266   6.607  12.034 -0.2487 -0.3132  0.4484
18293TIP3    H276371   1.151   6.539  12.104  0.6173  0.0017  2.2194
18294TIP3   OH276372   1.915   0.686   0.033  0.3309  0.2141  0.0988
18294TIP3    H176373   1.941   0.776   0.050  1.0313 -0.0768  0.6111
18294TIP3    H276374   1.855   0.665   0.104 -1.6886  1.0042 -1.2813
18295TIP3   OH276375   0.967   2.735   1.961 -0.0760 -0.2709  0.3589
18295TIP3    H176376   0.991   2.812   2.012 -0.1368 -0.2717  0.3894
18295TIP3    H276377   1.047   2.682   1.957 -0.1990 -0.5041  0.8706
18296TIP3   OH276378   4.677   4.942  16.331 -0.6417  0.0526 -0.3157
18296TIP3    H176379   4.666   5.036  16.319  0.1307 -0.1263 -3.2323
18296TIP3    H276380   4.588   4.906  16.324 -0.7490  0.4430 -1.0903
18297TIP3   OH276381   0.268   5.163  15.017  0.2784  0.4214 -0.1398
18297TIP3    H176382   0.255   5.110  15.096  0.0268  2.9602  1.6704
18297TIP3    H276383   0.193   5.142  14.961 -0.8808  0.3167  1.3933
18298TIP3   OH276384   2.027   6.555  13.383 -0.8172  0.0807  0.1401
18298TIP3    H176385   2.052   6.482  13.440 -1.5337 -0.5589 -0.3299
18298TIP3    H276386   1.941   6.530  13.350  0.7404 -1.1195 -3.6135
18299TIP3   OH276387   3.502   6.833  13.916  0.3875  0.9348  0.1297
18299TIP3    H176388   3.487   6.874  14.001  0.7379 -0.5669  0.9561
18299TIP3    H276389   3.593   6.805  13.919 -0.0981 -0.7856  0.0327
18300TIP3   OH276390   4.358   6.350   2.103 -0.2280  0.2589 -0.1232
18300TIP3    H176391   4.355   6.264   2.147 -0.1922  0.1670 -0.3004
18300TIP3    H276392   4.271   6.359   2.064 -0.8111  1.0404  1.2980
18301TIP3   OH276393   6.580   0.026  14.518  0.0815  0.0507 -0.1660
18301TIP3    H176394   6.547   0.098  14.464  1.5065  2.6328  2.1313
18301TIP3    H276395   6.533   0.034  14.600 -0.9937 -2.8705 -0.3867
18302TIP3   OH276396   5.439   5.666   0.452  0.7540  0.1054  0.0015
18302TIP3    H176397   5.375   5.650   0.521 -1.4460  0.3353 -1.8445
18302TIP3    H276398   5.403   5.741   0.403  1.3366 -1.0368 -2.3174
18303TIP3   OH276399   1.193   6.175   0.990 -0.3945  0.2812  0.3347
18303TIP3    H176400   1.105   6.205   1.009 -0.7001 -0.6058  0.3928
18303TIP3    H276401   1.245   6.255   0.978 -1.4709  0.8250 -0.9601
18304TIP3   OH276402   3.679   5.296   0.341  0.2258 -0.0182  0.1211
18304TIP3    H176403   3.727   5.378   0.330  1.1358 -0.7182 -1.4230
18304TIP3    H276404   3.678   5.282   0.435 -0.5874  2.1222  0.4859
18305TIP3   OH276405   2.986   3.214   6.099 -0.0733 -0.0468  0.8372
18305TIP3    H176406   3.043   3.142   6.126  2.2374  1.3113 -0.0539
18305TIP3    H276407   3.046   3.287   6.083 -2.3091  2.1890  1.9483
18306TIP3   OH276408   1.711   4.625   2.472 -0.0053  0.2643  0.0844
18306TIP3    H176409   1.644   4.558   2.461 -2.5934  2.1332  3.0247
18306TIP3    H276410   1.755   4.602   2.554  0.5685  0.9942 -0.0062
18307TIP3   OH276411   2.295   5.731   0.301  0.1540 -0.2130  0.0154
18307TIP3    H176412   2.227   5.737   0.368  1.1994  0.1570  1.0663
18307TIP3    H276413   2.282   5.808   0.246  1.2368  1.2517  1.7090
18308TIP3   OH276414   5.372   5.049   5.152 -0.4651  0.1212 -0.0774
18308TIP3    H176415   5.366   5.134   5.195  0.4592 -0.8827  2.2399
18308TIP3    H276416   5.466   5.028   5.153 -0.8148 -1.7043  1.2010
18309TIP3   OH276417   0.722   2.030  17.012  0.3290  0.5384 -0.2827
18309TIP3    H176418   0.788   1.965  16.989  1.7499  1.5949  0.6566
18309TIP3    H276419   0.723   2.034  17.108 -1.1102  0.5752 -0.2470
18310TIP3   OH276420   0.233   4.961   4.581 -0.1592 -0.1938 -0.0613
18310TIP3    H176421   0.141   4.956   4.605 -0.0402 -0.4347  0.3504
18310TIP3    H276422   0.280   4.961   4.664  0.2480 -0.7867 -0.2881
18311TIP3   OH276423   6.801   2.947  15.811  0.0577  0.2114 -0.2541
18311TIP3    H176424   6.760   2.914  15.891  0.6767  0.4240  0.1560
18311TIP3    H276425   6.727   2.979  15.758 -0.3779 -0.1623  0.1131
18312TIP3   OH276426   6.821   3.701   1.375  0.4707  0.4668  0.3443
18312TIP3    H176427   6.756   3.737   1.434 -0.0442 -0.1497  0.1636
18312TIP3    H276428   6.796   3.610   1.364  1.0640  0.3528 -0.1392
18313TIP3   OH276429   3.223   1.901  11.104  0.2684 -0.2409 -0.1167
18313TIP3    H176430   3.177   1.889  11.021 -0.7654  1.1856  0.2121
18313TIP3    H276431   3.155   1.923  11.167  1.1611 -0.1720  0.8636
18314TIP3   OH276432   3.745   6.041  15.190 -0.2953 -0.1613 -0.2049
18314TIP3    H176433   3.663   5.993  15.180  0.3613 -1.0377 -1.8171
18314TIP3    H276434   3.785   6.004  15.268 -1.5095  0.4165  0.7119
18315TIP3   OH276435   3.541   3.698  15.197  0.1451  0.0302  0.3948
18315TIP3    H176436   3.499   3.618  15.229 -0.5941  0.8028  1.3947
18315TIP3    H276437   3.523   3.698  15.103 -1.7699  0.1284  0.7203
18316TIP3   OH276438   3.321   6.044  16.554 -0.1598  0.5832 -0.0035
18316TIP3    H176439   3.373   6.122  16.577  0.0710  0.3186  0.3716
18316TIP3    H276440   3.330   6.038  16.459  1.5440 -0.1768  0.1747
18317TIP3   OH276441   3.359   1.331   1.789 -0.3315 -0.3272  0.1899
18317TIP3    H176442   3.394   1.420   1.777 -1.1137  0.2800  2.0579
18317TIP3    H276443   3.268   1.337   1.760 -0.1424 -0.7714 -0.5201
18318TIP3   OH276444   5.455   2.493  15.777 -0.4574 -0.5657  0.4672
18318TIP3    H176445   5.527   2.464  15.721 -0.6515 -0.5967  0.2318
18318TIP3    H276446   5.397   2.417  15.784 -0.0581 -0.8015  1.3303
18319TIP3   OH276447   5.019   4.192   4.448  0.2345 -0.3554  0.2154
18319TIP3    H176448   5.060   4.162   4.529  1.8595 -1.7489 -1.0445
18319TIP3    H276449   5.050   4.282   4.436  0.0421 -0.1713  1.0925
18320TIP3   OH276450   1.734   2.885  13.218 -0.4934 -0.3062 -0.7695
18320TIP3    H176451   1.716   2.978  13.233 -0.8961 -0.4317 -0.4265
18320TIP3    H276452   1.670   2.840  13.273 -0.3978 -0.7874 -1.0476
18321TIP3   OH276453   3.746   5.528  15.018  0.1736  0.4330 -0.2239
18321TIP3    H176454   3.673   5.549  15.076  1.2231  0.8644  0.9999
18321TIP3    H276455   3.715   5.454  14.966 -0.2247 -1.1610  2.1283
18322TIP3   OH276456   0.512   4.141   1.667 -0.0043  0.3648  0.1725
18322TIP3    H176457   0.440   4.201   1.649 -2.0942 -1.0677  3.0002
18322TIP3    H276458   0.590   4.197   1.665 -1.6140  2.8223  0.8347
18323TIP3   OH276459   3.307   0.216  12.758 -0.1648 -0.2630  0.1898
18323TIP3    H176460   3.264   0.268  12.690  2.2844  1.1041 -0.4651
18323TIP3    H276461   3.399   0.216  12.733  0.4255 -2.0534  2.0816
18324TIP3   OH276462   3.365   1.345   0.480  0.1484  0.8342 -0.2227
18324TIP3    H176463   3.437   1.282   0.480 -1.9981 -1.8181  0.9658
18324TIP3    H276464   3.343   1.357   0.388  0.5262 -0.2645 -0.4684
18325TIP3   OH276465   5.993   5.785  16.318 -0.3926 -0.0446  0.0192
18325TIP3    H176466   5.996   5.860  16.378 -0.5378 -0.1942  0.2173
18325TIP3    H276467   6.025   5.819  16.235  0.8527 -0.1023  0.4557
18326TIP3   OH276468   3.715   1.227   1.910  0.3100  0.1503 -0.0991
18326TIP3    H176469   3.751   1.315   1.905 -4.2307  2.3852  0.8690
18326TIP3    H276470   3.696   1.204   1.819  2.0803 -0.1732 -0.4109
18327TIP3   OH276471   3.138   0.094   3.775 -0.7866 -0.2047  0.0262
18327TIP3    H176472   3.115   0.060   3.688  1.7850 -1.4195 -0.2510
18327TIP3    H276473   3.100   0.032   3.837  1.0517 -1.8386 -0.3996
18328TIP3   OH276474   2.116   0.414   0.677 -0.4089 -0.1149 -0.2359
18328TIP3    H176475   2.069   0.344   0.723  0.2112  0.1483  0.8275
18328TIP3    H276476   2.096   0.399   0.584  0.2046 -2.0912 -0.1058
18329TIP3   OH276477   1.767   5.969  11.963  0.1336  0.3226  0.7936
18329TIP3    H176478   1.724   5.910  11.901 -0.3147  0.3569  1.0658
18329TIP3    H276479   1.795   5.912  12.035  1.6547  0.0978  0.0679
18330TIP3   OH276480   4.917   4.090  16.305 -0.2336  0.0077  0.4447
18330TIP3    H176481   4.912   4.184  16.322  2.9411  0.0404  2.0670
18330TIP3    H276482   4.971   4.083  16.227 -2.4552 -0.5211 -1.1388
18331TIP3   OH276483   5.470   4.292  11.879  0.0518 -0.1099 -0.4899
18331TIP3    H176484   5.565   4.286  11.866  0.4298  2.8151  0.1163
18331TIP3    H276485   5.459   4.364  11.941 -2.5919  0.3726 -1.3807
18332TIP3   OH276486   3.951   3.397   0.536 -0.0344  0.2305  0.0611
18332TIP3    H176487   3.957   3.359   0.623 -0.1840  0.8299  0.3399
18332TIP3    H276488   3.963   3.323   0.476  1.3018  0.0114  0.5852
18333TIP3   OH276489   5.793   6.567  11.440  0.1785 -0.1310  0.3580
18333TIP3    H176490   5.805   6.595  11.531 -0.1748 -0.3596  0.4786
18333TIP3    H276491   5.831   6.637  11.388 -0.7483  0.6066  0.6506
18334TIP3   OH276492   5.517   2.839   0.571  0.1730 -0.2002  0.4993
18334TIP3    H176493   5.560   2.921   0.546  3.0789 -1.5064  0.7672
18334TIP3    H276494   5.535   2.831   0.665  1.9362 -2.1454  0.0702
18335TIP3   OH276495   6.306   5.611   0.172  0.0138 -0.0181 -0.2725
18335TIP3    H176496   6.270   5.654   0.095  3.0416  3.3406 -0.0385
18335TIP3    H276497   6.388   5.572   0.142 -1.2377 -3.4436  0.2298
18336TIP3   OH276498   1.721   6.285  11.303  0.4888  0.0967  0.2683
18336TIP3    H176499   1.700   6.223  11.372 -0.9420 -0.7987 -0.8982
18336TIP3    H276500   1.674   6.252  11.226  2.1578  0.9290 -1.2001
18337TIP3   OH276501   1.527   1.245  15.543  0.4509  0.4711  0.3431
18337TIP3    H176502   1.544   1.169  15.598 -1.0305  0.6970  1.1632
18337TIP3    H276503   1.556   1.320  15.595 -1.9704  0.7772  1.3574
18338TIP3   OH276504   4.648   4.841   6.298  0.3514  0.5581  0.1161
18338TIP3    H176505   4.590   4.774   6.335  0.4033  0.6442  0.3540
18338TIP3    H276506   4.591   4.916   6.280 -0.4482 -0.6763 -3.3908
18339TIP3   OH276507   6.528   0.310   0.468 -0.2475  0.0390 -0.3819
18339TIP3    H176508   6.506   0.288   0.559  0.9208 -1.3772 -0.4042
18339TIP3    H276509   6.461   0.266   0.416 -1.0044  0.9715 -0.2346
18340TIP3   OH276510   5.149   3.247  13.975  0.0223  0.0689  0.2397
18340TIP3    H176511   5.236   3.277  14.000  0.0928 -0.1994  0.3228
18340TIP3    H276512   5.159   3.152  13.962 -0.2045  0.0729  0.0228
18341TIP3   OH276513   2.054   4.305   2.713  0.1369  0.1733  0.5354
18341TIP3    H176514   2.088   4.287   2.625  0.7938  0.9403  0.6192
18341TIP3    H276515   2.126   4.348   2.758 -0.0741 -0.5203  1.5725
18342TIP3   OH276516   2.497   5.816   0.008 -0.3976 -1.2540 -0.2958
18342TIP3    H176517   2.482   5.755  -0.064  1.8150 -3.1401  0.7089
18342TIP3    H276518   2.589   5.842  -0.001 -0.6212  0.0340  0.7518
18343TIP3   OH276519   2.384   4.638  14.560 -0.7452 -0.0639  1.0647
18343TIP3    H176520   2.348   4.551  14.576  0.9589 -0.8205  1.0478
18343TIP3    H276521   2.331   4.674  14.489 -0.7811 -1.5661  0.2842
18344TIP3   OH276522   3.948   4.961  15.825 -0.1712 -0.1216  0.3211
18344TIP3    H176523   3.897   4.994  15.752 -0.9675  0.3441  1.0638
18344TIP3    H276524   4.039   4.975  15.799 -0.4585  1.0344 -0.1317
18345TIP3   OH276525   1.556   1.409  15.771 -0.2904 -0.0122  0.0100
18345TIP3    H176526   1.620   1.363  15.826 -1.1311 -1.0624  0.1425
18345TIP3    H276527   1.564   1.501  15.797 -0.4836 -0.4461  1.7346
18346TIP3   OH276528   1.449   6.328  14.305  0.9326 -0.5017  0.0226
18346TIP3    H176529   1.356   6.303  14.303  0.2629  1.6621  0.8127
18346TIP3    H276530   1.480   6.314  14.216 -0.6036  0.2004 -0.6558
18347TIP3   OH276531   3.399   0.144   6.323  0.3962  0.0968 -0.0970
18347TIP3    H176532   3.495   0.152   6.317  0.5574 -1.9820 -1.2926
18347TIP3    H276533   3.368   0.233   6.335  2.5920  0.6407  2.4033
18348TIP3   OH276534   5.459   2.091   5.913 -0.7095  0.4223  0.3095
18348TIP3    H176535   5.383   2.119   5.964 -1.1893 -0.2471 -0.0122
18348TIP3    H276536   5.521   2.059   5.978 -1.5303 -0.9271  0.4660
18349TIP3   OH276537   2.057   0.375   5.620  0.7878  0.7826  0.3796
18349TIP3    H176538   2.035   0.291   5.660 -0.8773  2.0119  2.2789
18349TIP3    H276539   2.144   0.362   5.583  1.1310 -1.3843  1.7427
18350TIP3   OH276540   0.059   5.972  10.814  0.1184  0.2312 -0.4943
18350TIP3    H176541   0.069   5.880  10.789  0.0452  0.2641 -0.6452
18350TIP3    H276542   0.029   6.016  10.734  1.9551  0.7251 -0.9516
18351TIP3   OH276543   1.246   3.771   3.647  0.3122 -0.3666 -0.3598
18351TIP3    H176544   1.201   3.824   3.713  1.4639 -2.7260  2.6085
18351TIP3    H276545   1.338   3.797   3.654  0.4510 -0.6452 -1.0743
18352TIP3   OH276546   1.123   2.744  13.303 -0.4229 -0.4981  0.0495
18352TIP3    H176547   1.063   2.690  13.355  0.1070 -0.7059  0.4599
18352TIP3    H276548   1.134   2.695  13.222  0.4092 -1.2602  0.6000
18353TIP3   OH276549   5.426   5.026  13.305  0.2259  0.1812  0.4574
18353TIP3    H176550   5.467   5.095  13.357  1.5310 -0.0768 -0.1820
18353TIP3    H276551   5.351   5.067  13.264 -0.7092  0.4610  2.3263
18354TIP3   OH276552   3.446   1.011   4.303  0.5310 -0.0046  0.2477
18354TIP3    H176553   3.371   0.981   4.251  0.5541  0.5705 -0.1250
18354TIP3    H276554   3.491   0.930   4.328  1.2371 -0.2601 -1.6998
18355TIP3   OH276555   0.838   4.628  15.454 -0.6157 -0.6723  0.0480
18355TIP3    H176556   0.895   4.705  15.445  0.9021 -1.5418  1.5934
18355TIP3    H276557   0.897   4.554  15.438 -1.9124 -1.5569 -0.7769
18356TIP3   OH276558   3.249   2.125  11.888  0.2167  0.0229 -0.0558
18356TIP3    H176559   3.273   2.163  11.804  0.2642 -0.7412 -0.3938
18356TIP3    H276560   3.156   2.104  11.878 -0.0834  1.0159  0.5050
18357TIP3   OH276561   4.265   3.995   0.665 -0.3644 -0.1695 -0.3265
18357TIP3    H176562   4.319   3.941   0.722 -1.4864 -0.5492  0.4203
18357TIP3    H276563   4.195   4.026   0.722 -1.4066 -0.3861 -1.4486
18358TIP3   OH276564   6.521   5.205   4.830 -0.2349 -0.3009 -0.5017
18358TIP3    H176565   6.579   5.226   4.904  0.3511 -0.2607 -0.9582
18358TIP3    H276566   6.502   5.112   4.839 -1.2038 -0.0201  0.4110
18359TIP3   OH276567   3.877   5.526   0.378 -0.0939  0.3224 -0.1018
18359TIP3    H176568   3.953   5.574   0.413 -0.1608 -0.3006  0.9334
18359TIP3    H276569   3.915   5.466   0.313  0.1993  0.5532 -0.1492
18360TIP3   OH276570   1.821   5.591   3.227 -0.2650  0.3763  0.5166
18360TIP3    H176571   1.912   5.605   3.253 -0.4517  2.0804  0.3609
18360TIP3    H276572   1.821   5.604   3.132 -0.5317 -0.4609  0.3976
18361TIP3   OH276573   5.917   0.073  13.408  0.1755 -0.3746  0.7030
18361TIP3    H176574   5.824   0.094  13.408 -0.5553 -3.1709 -0.5162
18361TIP3    H276575   5.957   0.141  13.353 -1.1394  0.7621  1.0866
18362TIP3   OH276576   6.090   6.049  15.368  0.1426 -0.4714  0.3681
18362TIP3    H176577   6.162   6.087  15.419 -0.0601 -1.0803  1.1290
18362TIP3    H276578   6.024   6.118  15.365  0.6805  0.0394 -0.2045
18363TIP3   OH276579   0.085   4.972   3.479  0.1682 -0.6016 -0.5837
18363TIP3    H176580   0.068   4.878   3.472 -2.3339 -0.2844  0.2911
18363TIP3    H276581   0.045   4.997   3.562  0.3838  1.3252 -1.0264
18364TIP3   OH276582   5.583   5.790  15.916 -0.2988  0.2374  0.2206
18364TIP3    H176583   5.526   5.823  15.986  0.6595  1.7366  0.3457
18364TIP3    H276584   5.530   5.723  15.872 -1.1174 -0.3656  2.0208
18365TIP3   OH276585   2.880   4.893  16.981  0.1727 -0.8212  0.3108
18365TIP3    H176586   2.854   4.977  16.943 -0.2921 -0.9295  0.3797
18365TIP3    H276587   2.941   4.915  17.051 -0.1539 -0.5228  0.5037
18366TIP3   OH276588   6.353   6.581  11.364  0.2572  0.4173 -0.2695
18366TIP3    H176589   6.433   6.632  11.380  0.3167  0.1945  0.1525
18366TIP3    H276590   6.356   6.510  11.428 -0.8969  1.1120  0.5996
18367TIP3   OH276591   6.435   3.905   6.406 -0.1427 -0.5164 -0.2531
18367TIP3    H176592   6.458   3.815   6.382  1.6519 -0.4122  0.8858
18367TIP3    H276593   6.443   3.954   6.324  3.4137 -0.6094 -0.1058
18368TIP3   OH276594   6.067   1.265   4.531  0.0413 -0.2579 -1.1212
18368TIP3    H176595   6.144   1.213   4.556 -0.8113 -1.8736 -1.7154
18368TIP3    H276596   5.998   1.201   4.518 -1.6225  1.2063  0.0159
18369TIP3   OH276597   3.061   4.875   5.829 -0.2808 -0.2019 -0.0158
18369TIP3    H176598   3.057   4.832   5.914 -1.3326 -1.9930 -0.9187
18369TIP3    H276599   3.005   4.953   5.838 -1.3032 -0.9869  0.6222
18370TIP3   OH276600   4.367   0.478   3.168  0.4562  0.4897  0.1233
18370TIP3    H176601   4.392   0.418   3.098  2.1101  1.0293  0.2007
18370TIP3    H276602   4.394   0.565   3.137 -0.8257  1.0565  0.5011
18371TIP3   OH276603   0.339   2.054  14.007  0.1253 -0.1470  0.0961
18371TIP3    H176604   0.260   2.072  14.057 -0.7051  1.9686 -1.8028
18371TIP3    H276605   0.391   1.997  14.064 -0.7939  1.8908  3.2724
18372TIP3   OH276606   6.758   1.326   1.198 -0.1210  0.2076  0.3932
18372TIP3    H176607   6.790   1.268   1.129 -1.9499 -2.2230  1.4356
18372TIP3    H276608   6.677   1.362   1.163  0.8795  2.0972 -0.1486
18373TIP3   OH276609   5.762   5.357  14.342 -0.2403 -0.0911 -0.3881
18373TIP3    H176610   5.743   5.331  14.432 -1.1892  1.5659 -0.0608
18373TIP3    H276611   5.851   5.394  14.346 -0.9278  1.6256  0.3076
18374TIP3   OH276612   4.735   1.559  12.546  0.2472 -0.4327 -1.0257
18374TIP3    H176613   4.697   1.596  12.466 -0.0646  1.3601 -0.1045
18374TIP3    H276614   4.825   1.591  12.547  0.6748 -1.5596 -1.2963
18375TIP3   OH276615   5.696   1.171  16.392  0.1704 -0.4466  0.3445
18375TIP3    H176616   5.735   1.157  16.478  1.8195 -0.1965 -0.3357
18375TIP3    H276617   5.649   1.254  16.400  0.0501 -0.5829  1.0909
18376TIP3   OH276618   1.908   0.092   4.114 -0.1564 -0.8173 -0.1558
18376TIP3    H176619   1.977   0.040   4.073  0.2229 -0.6017  0.2037
18376TIP3    H276620   1.896   0.167   4.055  2.5068  1.1151  1.5641
18377TIP3   OH276621   3.504   6.033  13.062  0.8529 -0.2412 -0.4415
18377TIP3    H176622   3.490   5.953  13.113  1.4671 -1.4479 -2.0754
18377TIP3    H276623   3.581   6.014  13.009  1.5838  1.8143 -0.2027
18378TIP3   OH276624   1.513   4.788  12.874 -0.2214 -0.4274 -0.3843
18378TIP3    H176625   1.546   4.709  12.831  1.7297 -0.9747  1.8946
18378TIP3    H276626   1.431   4.760  12.916  0.1423 -1.0999 -0.0999
18379TIP3   OH276627   6.012   6.122   2.840 -0.4657  0.1600 -0.3685
18379TIP3    H176628   6.089   6.075   2.871 -0.2845  0.7302  0.0681
18379TIP3    H276629   6.047   6.198   2.794 -0.7694  0.8034  0.4395
18380TIP3   OH276630   5.659   1.388  15.516  0.5563  0.1781  0.2547
18380TIP3    H176631   5.583   1.345  15.555 -0.3036 -1.8424 -3.2216
18380TIP3    H276632   5.632   1.478  15.504 -1.3646 -0.5109 -0.9330
18381TIP3   OH276633   6.316   5.991  15.918 -0.2165 -0.2598 -0.1084
18381TIP3    H176634   6.287   6.055  15.983  1.1887  2.2831 -1.8327
18381TIP3    H276635   6.401   5.960  15.951 -0.4985 -0.6311  0.2901
18382TIP3   OH276636   6.402   4.530  15.595 -0.2608 -0.0393  0.2057
18382TIP3    H176637   6.328   4.528  15.655 -0.7998  0.1237 -0.4428
18382TIP3    H276638   6.428   4.439  15.585 -1.5820 -0.3207 -1.0176
18383TIP3   OH276639   3.627   5.599   0.298 -0.4415 -0.1622  0.4917
18383TIP3    H176640   3.703   5.571   0.350  0.6825  1.0664 -0.3875
18383TIP3    H276641   3.628   5.695   0.305 -1.5986 -0.0984  0.0111
18384TIP3   OH276642   1.214   4.789   1.188 -0.1192  0.1536  0.3149
18384TIP3    H176643   1.288   4.844   1.161  0.2796  0.1114  1.2809
18384TIP3    H276644   1.209   4.721   1.120 -0.8869  1.5841 -1.1396
18385TIP3   OH276645   0.536   3.450  12.397  0.0186 -0.1267  0.4313
18385TIP3    H176646   0.531   3.522  12.460 -1.8868 -0.1890  0.3965
18385TIP3    H276647   0.554   3.492  12.313 -1.1362  0.3457  0.4023
18386TIP3   OH276648   3.378   1.053  16.286 -0.1280  0.2239  0.0962
18386TIP3    H176649   3.443   1.101  16.336  0.7380 -0.3875 -0.4120
18386TIP3    H276650   3.424   0.975  16.255 -0.6291  0.5589 -1.5995
18387TIP3   OH276651   3.823   6.781  14.712 -0.0803 -0.1699 -0.1578
18387TIP3    H176652   3.750   6.762  14.653  0.5222 -0.4308 -0.8330
18387TIP3    H276653   3.893   6.810  14.655 -0.0852  1.4590  0.6137
18388TIP3   OH276654   1.744   2.062   3.148  0.2732  0.1572 -0.1685
18388TIP3    H176655   1.708   2.147   3.123 -0.5765 -0.5527 -1.5048
18388TIP3    H276656   1.668   2.009   3.168  0.7936 -0.3367  0.5444
18389TIP3   OH276657   4.698   6.150   0.967  0.1199 -0.1596  0.6598
18389TIP3    H176658   4.670   6.078   1.023 -0.6418  0.0655  0.5805
18389TIP3    H276659   4.792   6.138   0.958  0.2180 -0.3662  1.7519
18390TIP3   OH276660   1.993   4.286   4.041 -0.0373  0.0266 -0.1918
18390TIP3    H176661   1.981   4.300   3.947  1.9644  0.0725 -0.4674
18390TIP3    H276662   1.989   4.375   4.078  2.1246  0.3599 -0.6401
18391TIP3   OH276663   6.083   2.706  15.555  0.3584 -0.4063  0.4608
18391TIP3    H176664   6.043   2.646  15.618 -0.4149  0.3484  0.7094
18391TIP3    H276665   6.168   2.667  15.535 -0.1965 -1.6547  0.4960
18392TIP3   OH276666   3.732   3.862  15.848  0.5822  0.1211  0.3960
18392TIP3    H176667   3.668   3.804  15.806 -0.3608  0.7125  0.9879
18392TIP3    H276668   3.682   3.940  15.871  1.0478 -0.2016  2.6806
18393TIP3   OH276669   6.189   2.992   1.600  0.3767  0.2958  0.3468
18393TIP3    H176670   6.108   2.959   1.638 -1.7150  1.3585 -2.7587
18393TIP3    H276671   6.212   3.068   1.653 -1.0494  0.3658  0.9020
18394TIP3   OH276672   4.106   4.119   4.147  0.2928  0.8617 -0.4767
18394TIP3    H176673   4.193   4.158   4.156  1.4491 -1.3104 -1.4217
18394TIP3    H276674   4.085   4.086   4.234  1.2177 -0.0951 -0.5969
18395TIP3   OH276675   6.806   1.651   3.627  0.2459  0.5300 -0.3215
18395TIP3    H176676   6.847   1.617   3.548 -0.0712 -1.8324  0.4437
18395TIP3    H276677   6.723   1.604   3.634 -0.9018  2.4811  0.1694
18396TIP3   OH276678   4.593   0.065  14.810 -0.0501  0.1560 -0.1237
18396TIP3    H176679   4.543   0.146  14.817  2.4904  1.6732  2.5283
18396TIP3    H276680   4.552   0.006  14.874 -1.1077 -0.2481 -1.1426
18397TIP3   OH276681   3.146   5.616  11.393  0.0813  0.0872  0.2552
18397TIP3    H176682   3.131   5.708  11.372 -0.2295  0.2036  0.9600
18397TIP3    H276683   3.210   5.587  11.328 -1.5874  0.1438 -1.4983
18398TIP3   OH276684   1.376   6.549  11.891 -0.5595  0.2768  0.1250
18398TIP3    H176685   1.434   6.475  11.875  0.3862  0.3135  2.9524
18398TIP3    H276686   1.429   6.626  11.871 -0.2902  0.2666  0.7973
18399TIP3   OH276687   2.715   6.271   0.680 -0.2813  0.2216  0.0014
18399TIP3    H176688   2.648   6.211   0.649  0.5194 -0.5909 -0.2085
18399TIP3    H276689   2.715   6.342   0.616  0.0193 -0.4752 -0.7976
18400TIP3   OH276690   3.146   4.377  14.938 -0.0338  0.5611  0.2490
18400TIP3    H176691   3.230   4.338  14.915  0.5199  1.9306 -0.1757
18400TIP3    H276692   3.082   4.332  14.882  0.2780 -0.9945  1.0930
18401TIP3   OH276693   0.395   4.515   5.011 -0.9325 -0.3280 -0.1808
18401TIP3    H176694   0.411   4.422   5.027  1.8055  0.1222  0.2536
18401TIP3    H276695   0.338   4.543   5.082 -0.4011 -1.3485  0.6697
18402TIP3   OH276696   5.404   5.078   0.595 -0.3498  0.4144  0.4820
18402TIP3    H176697   5.420   5.119   0.680  0.8157  2.0350 -0.4555
18402TIP3    H276698   5.487   5.037   0.573 -0.5146  0.3741 -0.0600
18403TIP3   OH276699   3.577   2.962  15.106 -0.2450 -0.0196  0.2094
18403TIP3    H176700   3.494   3.009  15.117  0.0691  0.5532  0.1345
18403TIP3    H276701   3.643   3.022  15.139  0.1427 -0.4724  0.2552
18404TIP3   OH276702   6.575   2.042  16.902  0.1548  0.2397 -0.0219
18404TIP3    H176703   6.636   1.999  16.963 -0.5858 -1.6440 -0.5225
18404TIP3    H276704   6.613   2.026  16.816 -0.3162  0.2827 -0.2408
18405TIP3   OH276705   0.759   6.836   3.603  0.4321 -0.1009  0.0739
18405TIP3    H176706   0.677   6.821   3.554  0.6390  0.0995 -0.3444
18405TIP3    H276707   0.779   6.928   3.587  1.5793 -0.5289 -1.1531
18406TIP3   OH276708   5.639   5.715   1.964  0.5005 -0.4732 -0.3382
18406TIP3    H176709   5.640   5.794   1.909 -0.1248 -0.5919 -0.5206
18406TIP3    H276710   5.628   5.748   2.053 -0.5744 -0.3833 -0.4883
18407TIP3   OH276711   0.159   4.468   6.176 -0.5033 -0.3428  0.0887
18407TIP3    H176712   0.159   4.509   6.090  1.3100  0.1497  0.2730
18407TIP3    H276713   0.232   4.406   6.173  0.4640  0.6289  1.6531
18408TIP3   OH276714   3.634   2.905   4.764  0.3776 -0.2342  0.2283
18408TIP3    H176715   3.571   2.858   4.709  1.3746 -1.6275  0.2130
18408TIP3    H276716   3.718   2.894   4.718  1.1056 -0.8008  1.6406
18409TIP3   OH276717   0.449   3.634  11.029  0.3295  0.0123 -0.6660
18409TIP3    H176718   0.415   3.585  10.955 -0.6883  0.1100 -0.2772
18409TIP3    H276719   0.538   3.657  11.003  1.0102 -2.4203 -0.6611
18410TIP3   OH276720   5.813   0.651   0.359  0.1174 -0.2803 -0.0346
18410TIP3    H176721   5.735   0.601   0.338 -0.2770  0.0999  0.4906
18410TIP3    H276722   5.870   0.589   0.405  0.3821 -0.7197 -0.9500
18411TIP3   OH276723   0.119   3.508   2.649 -0.0145 -0.0160  0.1051
18411TIP3    H176724   0.034   3.464   2.648 -0.4454  0.7635  0.7487
18411TIP3    H276725   0.183   3.437   2.654 -0.7163 -0.5900  1.9629
18412TIP3   OH276726   1.154   6.775  15.128  0.4109  0.4130  0.5255
18412TIP3    H176727   1.143   6.820  15.044  0.6498  0.4591  0.5188
18412TIP3    H276728   1.235   6.726  15.118  0.9755  1.2181  1.0883
18413TIP3   OH276729   6.059   1.950   1.911  0.7738 -0.0121 -0.0824
18413TIP3    H176730   6.076   1.944   2.005 -0.2371  0.1894  0.1255
18413TIP3    H276731   6.066   2.043   1.891  0.8575 -0.0397 -0.1861
18414TIP3   OH276732   3.783   0.278   0.512 -0.6382  0.3440  0.0054
18414TIP3    H176733   3.769   0.313   0.424 -0.1167  0.0744 -0.1899
18414TIP3    H276734   3.875   0.249   0.512 -0.1421  1.8154  1.1520
18415TIP3   OH276735   6.452   4.124   2.514 -0.5709  0.6611  0.5240
18415TIP3    H176736   6.382   4.090   2.458 -0.1914  0.6881  0.0339
18415TIP3    H276737   6.411   4.198   2.559  0.0966  2.9923 -2.4118
18416TIP3   OH276738   5.135   3.358  13.291 -0.7710  0.3987 -0.3699
18416TIP3    H176739   5.113   3.449  13.311  2.0746  1.2861 -0.7454
18416TIP3    H276740   5.168   3.323  13.373  1.3490  0.8461 -0.9730
18417TIP3   OH276741   1.686   0.942   0.530 -0.0662 -0.3054  0.5263
18417TIP3    H176742   1.599   0.903   0.538  0.4870 -1.3752  1.4524
18417TIP3    H276743   1.746   0.878   0.568  0.9439  1.1551  1.5116
18418TIP3   OH276744   3.776   4.232   2.773  0.4861 -0.3804 -0.2518
18418TIP3    H176745   3.865   4.202   2.786  0.4154  0.5477  3.4382
18418TIP3    H276746   3.782   4.296   2.701  2.8790  0.0686  0.2707
18419TIP3   OH276747   4.818   4.428   2.203 -0.7211 -0.4996 -0.4061
18419TIP3    H176748   4.778   4.350   2.242  0.7825 -0.8683  0.4635
18419TIP3    H276749   4.743   4.481   2.175 -1.7908 -1.8935 -0.3362
18420TIP3   OH276750   3.655   6.750   0.171 -0.1359 -0.0861  0.0245
18420TIP3    H176751   3.607   6.759   0.089  0.7140 -2.1237 -0.7463
18420TIP3    H276752   3.747   6.755   0.146  0.1954 -2.5080  0.5257
18421TIP3   OH276753   6.737   2.682   5.808 -0.1950 -0.1011 -0.4652
18421TIP3    H176754   6.741   2.603   5.861 -1.3757  0.8357  1.0909
18421TIP3    H276755   6.653   2.722   5.830  0.4912  1.7377 -0.9858
18422TIP3   OH276756   6.568   0.217  12.803 -0.1608 -0.1626  0.0392
18422TIP3    H176757   6.573   0.134  12.850 -0.9078 -1.1784 -1.5995
18422TIP3    H276758   6.586   0.195  12.712  0.0025  1.5445 -0.3767
18423TIP3   OH276759   4.596   0.593  16.425 -0.4024  0.3730 -0.0986
18423TIP3    H176760   4.665   0.658  16.413  0.4725 -0.5601 -0.2963
18423TIP3    H276761   4.518   0.644  16.447  0.7441  1.3592  1.9197
18424TIP3   OH276762   4.219   1.573   5.907  0.1483 -0.0635 -0.1290
18424TIP3    H176763   4.188   1.584   5.996 -0.2916 -1.4457 -0.1009
18424TIP3    H276764   4.308   1.610   5.908 -0.7611  2.2988  0.2116
18425TIP3   OH276765   2.289   2.380   1.102  0.3833  0.0865  0.0945
18425TIP3    H176766   2.205   2.341   1.077 -0.5349  1.1416  1.3869
18425TIP3    H276767   2.327   2.316   1.163 -0.1042  0.1851  0.5174
18426TIP3   OH276768   0.705   4.288   1.098  0.3942 -0.2013 -0.4006
18426TIP3    H176769   0.621   4.277   1.052  0.5395 -0.4356 -0.6143
18426TIP3    H276770   0.697   4.234   1.176  0.0942  0.3047 -0.0713
18427TIP3   OH276771   4.832   2.975   0.863  0.3823  0.6742 -0.8726
18427TIP3    H176772   4.742   2.994   0.834  0.1832  1.2147  0.0441
18427TIP3    H276773   4.823   2.900   0.922  0.1156  2.3129  1.3081
18428TIP3   OH276774   0.594   2.021   1.743 -0.2932 -0.2849  0.4094
18428TIP3    H176775   0.612   2.072   1.822 -0.5751  1.4065 -0.5708
18428TIP3    H276776   0.558   1.938   1.776 -0.1715  0.2732  2.0465
18429TIP3   OH276777   6.506   4.005   3.436  0.0078 -0.4394 -0.2312
18429TIP3    H176778   6.475   3.989   3.346  1.1852 -0.7432 -0.5975
18429TIP3    H276779   6.581   4.063   3.425  0.5880 -1.0323  0.5023
18430TIP3   OH276780   4.275   0.813  11.442 -0.1425 -0.0765 -0.2979
18430TIP3    H176781   4.272   0.805  11.538 -0.0984 -4.1972 -0.4803
18430TIP3    H276782   4.190   0.780  11.413  0.3886 -0.2387 -1.7322
18431TIP3   OH276783   1.719   1.549   0.674  0.1233  0.0155  0.0972
18431TIP3    H176784   1.729   1.642   0.656 -0.1737  0.1430  0.5555
18431TIP3    H276785   1.651   1.520   0.613  1.9487 -0.4848 -1.8350
18432TIP3   OH276786   6.206   5.008   1.606  0.1018 -0.0801 -0.4487
18432TIP3    H176787   6.180   4.920   1.580 -0.3981 -0.4207  1.0948
18432TIP3    H276788   6.300   5.012   1.588 -0.2107 -0.2828 -2.2173
18433TIP3   OH276789   1.013   6.225   5.728  0.3755  0.0939  0.5058
18433TIP3    H176790   0.925   6.187   5.726  0.0099  0.9491 -0.8221
18433TIP3    H276791   1.067   6.157   5.769 -0.9394 -0.3114  1.6391
18434TIP3   OH276792   4.302   5.986  16.446  0.3232 -0.1870  0.2819
18434TIP3    H176793   4.364   5.914  16.441  0.5326  0.0457 -2.4691
18434TIP3    H276794   4.355   6.064  16.431 -0.1669  0.3892  1.3980
18435TIP3   OH276795   1.999   6.694  11.690  0.1401 -0.2017  0.0806
18435TIP3    H176796   1.981   6.636  11.765 -0.9775 -1.0233 -0.7810
18435TIP3    H276797   1.955   6.776  11.712 -2.4303 -1.2725 -0.7534
18436TIP3   OH276798   3.397   0.992   5.749  0.0635 -0.1361  0.4641
18436TIP3    H176799   3.319   0.953   5.789 -1.8792  1.2728 -1.6889
18436TIP3    H276800   3.369   1.015   5.660  2.6881  1.2762 -0.0826
18437TIP3   OH276801   2.989   6.360   6.161 -0.7444 -0.4997 -0.2261
18437TIP3    H176802   3.070   6.365   6.111 -1.3116  0.1720 -1.1058
18437TIP3    H276803   2.990   6.437   6.217 -1.0161 -0.1992 -0.6277
18438TIP3   OH276804   6.426   1.355   4.728 -0.0426 -0.3064 -0.3667
18438TIP3    H176805   6.518   1.373   4.708  0.4308 -1.5632  0.5469
18438TIP3    H276806   6.407   1.274   4.682 -0.7192 -0.0192 -0.5977
18439TIP3   OH276807   0.754   4.765   5.681  0.4076 -0.7124 -0.0888
18439TIP3    H176808   0.794   4.745   5.596 -1.0651 -1.4435 -0.6370
18439TIP3    H276809   0.694   4.692   5.697  0.8571 -0.7287  1.7277
18440TIP3   OH276810   1.766   4.831  14.458 -0.3130 -0.3864 -0.2319
18440TIP3    H176811   1.832   4.831  14.390 -1.2141 -1.4215 -1.1340
18440TIP3    H276812   1.697   4.890  14.425 -0.0009  0.4606  0.5690
18441TIP3   OH276813   0.701   1.652  13.488  0.5563  0.0168 -0.0813
18441TIP3    H176814   0.655   1.734  13.475  0.2195  0.3093  2.4908
18441TIP3    H276815   0.643   1.585  13.450 -0.9428  0.6164  1.0659
18442TIP3   OH276816   0.811   6.404  13.629 -0.3562  0.1357  0.1694
18442TIP3    H176817   0.819   6.310  13.611  0.9952  0.3327 -0.3364
18442TIP3    H276818   0.749   6.435  13.562 -0.0898 -0.2282 -0.2512
18443TIP3   OH276819   5.872   2.750  14.409 -0.6536  0.8067 -0.5172
18443TIP3    H176820   5.839   2.816  14.470 -1.0309 -0.9907  1.3146
18443TIP3    H276821   5.967   2.763  14.410 -0.5008 -0.0802  1.6236
18444TIP3   OH276822   0.325   1.204   5.122 -0.3882  0.2069 -0.5593
18444TIP3    H176823   0.304   1.158   5.040 -0.1805  0.9236 -1.0222
18444TIP3    H276824   0.302   1.295   5.104  4.4286  1.4724 -1.6763
18445TIP3   OH276825   5.119   5.088  17.023  0.1671 -0.1985 -0.0905
18445TIP3    H176826   5.082   5.095  17.111 -1.3299 -1.2713 -0.5788
18445TIP3    H276827   5.180   5.014  17.028 -1.3027 -1.4753 -0.3475
18446TIP3   OH276828   0.318   6.608  14.488  0.0600  0.1141  0.0363
18446TIP3    H176829   0.242   6.575  14.440  0.8023  0.8965 -1.7796
18446TIP3    H276830   0.366   6.659  14.423  1.3709  0.8557  1.5348
18447TIP3   OH276831   5.733   4.856  15.772  0.3941  0.3720 -0.0609
18447TIP3    H176832   5.726   4.890  15.683 -0.6008  0.5657  0.0717
18447TIP3    H276833   5.658   4.797  15.781  1.2944 -0.7665  0.1896
18448TIP3   OH276834   4.653   5.437   3.427  0.1205 -0.3097  0.1320
18448TIP3    H176835   4.640   5.526   3.460 -0.5781 -0.6245  0.7353
18448TIP3    H276836   4.571   5.416   3.381  0.8030 -0.1417 -1.2303
18449TIP3   OH276837   1.510   0.723  15.347  0.3536 -0.2685  0.3599
18449TIP3    H176838   1.458   0.643  15.361  0.8217 -0.8239 -0.8942
18449TIP3    H276839   1.506   0.769  15.430 -0.8409 -1.0738  0.7732
18450TIP3   OH276840   3.961   1.955   4.709 -0.5860  0.3824  0.1183
18450TIP3    H176841   4.030   1.889   4.720 -0.5889  0.0685 -1.4860
18450TIP3    H276842   3.996   2.033   4.752  0.2146 -0.1495  0.4632
18451TIP3   OH276843   3.211   5.871  13.794  0.4096  0.2920  0.1305
18451TIP3    H176844   3.190   5.956  13.832 -0.5285 -0.6440  1.8736
18451TIP3    H276845   3.273   5.890  13.724 -0.3942  2.4620 -0.0587
18452TIP3   OH276846   2.576   5.771  16.690 -0.0543  0.0144 -0.2487
18452TIP3    H176847   2.550   5.850  16.737  1.1815  1.1509 -1.3927
18452TIP3    H276848   2.496   5.741  16.646 -0.9876 -0.5140  1.6912
18453TIP3   OH276849   4.437   6.070  12.922  0.9140 -0.0242  0.1125
18453TIP3    H176850   4.483   6.036  12.846  1.1649 -0.6674  0.5408
18453TIP3    H276851   4.399   6.153  12.893  2.7989  0.8025 -0.1101
18454TIP3   OH276852   6.827   3.356   3.883 -0.8676  0.5704 -0.7061
18454TIP3    H176853   6.873   3.286   3.836  0.1035  1.1878 -0.7209
18454TIP3    H276854   6.878   3.434   3.863 -1.1561  1.0531  0.4004
18455TIP3   OH276855   2.075   2.385   2.025 -0.3288  0.0988  0.2782
18455TIP3    H176856   1.986   2.370   1.991  0.2363  0.6273 -1.5316
18455TIP3    H276857   2.070   2.470   2.068 -0.5433  0.4343 -0.4027
18456TIP3   OH276858   5.951   5.249   3.747 -0.6982  0.0375  0.0798
18456TIP3    H176859   6.037   5.233   3.708 -0.8552  1.2781 -0.8526
18456TIP3    H276860   5.941   5.182   3.814  0.5306 -0.8014 -0.5544
18457TIP3   OH276861   3.706   0.776  12.441 -0.0032  0.2184  0.4022
18457TIP3    H176862   3.674   0.694  12.403 -1.0782  2.0004 -2.9312
18457TIP3    H276863   3.628   0.814  12.482  0.1851  0.2333  0.7527
18458TIP3   OH276864   2.864   2.328   1.338  0.4919  0.2724  0.2104
18458TIP3    H176865   2.798   2.382   1.295  1.0704 -0.5885 -1.8770
18458TIP3    H276866   2.939   2.331   1.279  1.0777 -1.5283  0.8010
18459TIP3   OH276867   6.005   3.221  13.411  0.0725 -0.0400  0.1137
18459TIP3    H176868   6.073   3.287  13.402  1.1918 -1.0575  0.9470
18459TIP3    H276869   5.989   3.215  13.505 -1.4106  0.3965 -0.0783
18460TIP3   OH276870   4.615   6.799  12.651  0.5058 -0.0489  0.0571
18460TIP3    H176871   4.568   6.755  12.721 -0.8027  2.2773  0.7725
18460TIP3    H276872   4.556   6.793  12.575  0.7530 -0.3391 -0.1136
18461TIP3   OH276873   3.057   5.174  12.650  0.3580 -0.4712 -0.2566
18461TIP3    H176874   3.136   5.131  12.683  0.0918 -0.1286  0.8610
18461TIP3    H276875   3.090   5.249  12.601  0.7311 -0.0495  0.6128
18462TIP3   OH276876   1.536   2.775  13.421 -0.1056 -0.3115 -0.0898
18462TIP3    H176877   1.548   2.818  13.505 -0.3248  0.4656 -0.4362
18462TIP3    H276878   1.517   2.684  13.442 -1.7366  0.1889  0.7837
18463TIP3   OH276879   5.310   4.805   0.651  0.1304 -0.3568 -0.3068
18463TIP3    H176880   5.361   4.765   0.721  0.6008 -0.3932 -0.6698
18463TIP3    H276881   5.324   4.899   0.661  0.0139 -0.3483 -0.2161
18464TIP3   OH276882   5.427   2.498  15.009 -0.1642  0.2456  0.1393
18464TIP3    H176883   5.411   2.587  14.977  0.4197  1.4833  2.9719
18464TIP3    H276884   5.440   2.446  14.930 -0.8755  2.5903 -1.6321
18465TIP3   OH276885   3.174   0.545  14.728 -0.1588  0.0239 -0.0098
18465TIP3    H176886   3.234   0.606  14.685  2.1892 -1.6535  0.7245
18465TIP3    H276887   3.104   0.601  14.762  0.1181  1.8781 -2.2324
18466TIP3   OH276888   6.556   0.929  12.260  0.4812  0.9870 -0.1510
18466TIP3    H176889   6.547   0.890  12.173  1.2658  1.1619 -0.3143
18466TIP3    H276890   6.600   1.013  12.245 -0.4206  1.5566  0.2954
18467TIP3   OH276891   3.594   5.069  13.834  0.2477 -0.6230  0.2928
18467TIP3    H176892   3.517   5.047  13.781 -0.0788 -0.0952  0.5289
18467TIP3    H276893   3.643   5.132  13.781  0.2960 -0.6371  0.3205
18468TIP3   OH276894   3.763   5.872   3.659 -0.3803 -0.0977 -0.1644
18468TIP3    H176895   3.856   5.883   3.678 -0.1455 -2.3617  0.2987
18468TIP3    H276896   3.719   5.929   3.722  0.6484 -0.5857  1.0363
18469TIP3   OH276897   5.242   3.534   5.557 -0.2272  0.5641  0.2399
18469TIP3    H176898   5.313   3.587   5.520  0.4607 -0.1778  0.4461
18469TIP3    H276899   5.169   3.546   5.497  0.6374 -0.0245 -0.9784
18470TIP3   OH276900   5.137   2.106   4.451  0.4064  0.1399 -0.0689
18470TIP3    H176901   5.045   2.113   4.426 -0.1146 -2.3012  0.8378
18470TIP3    H276902   5.181   2.076   4.372  0.7642  2.6851 -0.9245
18471TIP3   OH276903   3.875   1.170   2.636  0.2827 -0.3010  0.1472
18471TIP3    H176904   3.803   1.120   2.600  0.7014 -0.2638 -0.7658
18471TIP3    H276905   3.920   1.108   2.694  0.7892 -0.9996 -0.9585
18472TIP3   OH276906   3.523   0.006   4.770 -0.1633  0.3846 -0.2149
18472TIP3    H176907   3.515  -0.089   4.774 -0.7699  0.3774 -1.2519
18472TIP3    H276908   3.449   0.039   4.821 -0.6707  0.2896 -0.8728
18473TIP3   OH276909   0.439   3.146  14.754  0.1659 -0.1314 -0.0627
18473TIP3    H176910   0.514   3.121  14.700 -0.8677  0.6872 -1.9742
18473TIP3    H276911   0.478   3.192  14.829  1.7836 -3.2351  1.1532
18474TIP3   OH276912   1.993   1.737  11.421 -0.0920  0.0638 -0.3038
18474TIP3    H176913   1.915   1.715  11.370 -1.3374  1.2579  0.9885
18474TIP3    H276914   2.064   1.688  11.379 -1.8177 -2.5291 -0.4159
18475TIP3   OH276915   5.276   0.384  16.601 -0.3954 -0.4181  0.7067
18475TIP3    H176916   5.327   0.409  16.678  0.6659 -1.5913  0.4132
18475TIP3    H276917   5.299   0.450  16.535 -1.0429  0.3879  1.2664
18476TIP3   OH276918   2.711   1.388  15.714  0.5458  0.7032 -0.3495
18476TIP3    H176919   2.757   1.359  15.635  1.8368 -0.5389  0.8256
18476TIP3    H276920   2.731   1.323  15.780 -2.2126  0.5815  0.5158
18477TIP3   OH276921   6.695   1.854  11.936  0.0753 -0.0974 -0.1780
18477TIP3    H176922   6.638   1.777  11.947  0.1305 -0.1554 -0.2976
18477TIP3    H276923   6.689   1.875  11.843 -0.4981  0.4757 -0.0195
18478TIP3   OH276924   6.450   3.767  15.642  0.1888 -0.5893  0.0302
18478TIP3    H176925   6.431   3.779  15.735  1.9102  1.9255  0.1716
18478TIP3    H276926   6.370   3.797  15.597  0.1930  0.4476  0.6858
18479TIP3   OH276927   5.725   1.762  14.179 -1.2406  0.2883 -0.0183
18479TIP3    H176928   5.633   1.736  14.179 -1.0147 -0.5640  0.8737
18479TIP3    H276929   5.750   1.763  14.271 -0.2080 -0.0819 -0.2810
18480TIP3   OH276930   3.709   2.042   5.417 -0.2786 -0.5148  0.4675
18480TIP3    H176931   3.800   2.071   5.427 -0.5134  1.2753 -1.8229
18480TIP3    H276932   3.715   1.964   5.361 -0.1611 -0.3691  0.2770
18481TIP3   OH276933   3.163   4.919   0.559 -0.0738 -0.0074  0.2818
18481TIP3    H176934   3.111   4.998   0.552 -2.4454 -1.4938  0.1320
18481TIP3    H276935   3.131   4.875   0.637  0.2610 -1.4548 -0.3580
18482TIP3   OH276936   6.698   6.493   0.232  0.0673 -0.5596  0.1411
18482TIP3    H176937   6.760   6.481   0.304  1.8621 -1.0931 -1.3849
18482TIP3    H276938   6.696   6.407   0.189  2.1010  0.6238 -2.6610
18483TIP3   OH276939   0.905   4.709  14.661 -0.1804 -0.2412  0.6250
18483TIP3    H176940   0.935   4.692  14.572  1.8821 -1.4321  1.4803
18483TIP3    H276941   0.915   4.803  14.673  0.1513 -0.1692 -0.1799
18484TIP3   OH276942   2.479   6.263   4.045 -0.9284  0.7560 -0.0852
18484TIP3    H176943   2.525   6.308   3.974 -0.7778  1.3590  0.3872
18484TIP3    H276944   2.477   6.326   4.117 -1.0999  0.1628  0.4440
18485TIP3   OH276945   5.566   6.535  10.855  0.1887 -0.3513 -0.7575
18485TIP3    H176946   5.577   6.447  10.892  0.8266 -0.0129 -0.1097
18485TIP3    H276947   5.655   6.562  10.831  0.3815  1.0588  1.2914
18486TIP3   OH276948   2.418   3.131   6.455  0.8355  0.1662 -0.4307
18486TIP3    H176949   2.390   3.045   6.484  0.5372  0.9842  1.8597
18486TIP3    H276950   2.495   3.151   6.508 -0.4985  2.2783  0.8563
18487TIP3   OH276951   0.779   0.366   4.432  0.0036  0.5095  0.0463
18487TIP3    H176952   0.837   0.405   4.497  1.2843 -0.7252 -0.3184
18487TIP3    H276953   0.828   0.292   4.397 -1.2564  0.2526 -1.2630
18488TIP3   OH276954   5.791   5.995   2.981 -0.6423  0.0473  0.2310
18488TIP3    H176955   5.849   6.043   2.923 -1.4864  1.4340  0.4961
18488TIP3    H276956   5.727   5.955   2.923  0.0578 -0.7773  0.0100
18489TIP3   OH276957   5.767   5.006   3.255 -0.2809  0.3465 -0.1463
18489TIP3    H176958   5.717   5.050   3.186 -1.9927  0.6023  1.1904
18489TIP3    H276959   5.722   5.030   3.336 -0.4402 -2.7027  0.8011
18490TIP3   OH276960   3.465   6.351   4.007 -0.2588 -0.1455 -0.3327
18490TIP3    H176961   3.544   6.405   3.998 -0.6563  0.7094  0.9179
18490TIP3    H276962   3.492   6.264   3.979  1.6386 -0.2721  1.5793
18491TIP3   OH276963   1.219   6.676  11.519 -0.8735 -0.2128  0.1230
18491TIP3    H176964   1.292   6.615  11.511 -0.3263  0.4612 -0.1486
18491TIP3    H276965   1.175   6.673  11.434  0.5339  1.4502 -0.7470
18492TIP3   OH276966   5.073   6.333  14.885  0.6562  0.7225  0.6804
18492TIP3    H176967   5.109   6.346  14.797  1.0962 -0.5663  0.6497
18492TIP3    H276968   5.032   6.247  14.882 -0.8020  1.3697  1.2707
18493TIP3   OH276969   6.614   6.818   2.209 -0.4916  0.5346 -0.1291
18493TIP3    H176970   6.596   6.804   2.302 -1.2234  0.4437 -0.2789
18493TIP3    H276971   6.619   6.913   2.200  0.9919  0.5038  0.2541
18494TIP3   OH276972   1.620   3.732  15.410 -0.1676 -0.1936 -0.4497
18494TIP3    H176973   1.660   3.714  15.495  1.8831  0.4702 -1.2127
18494TIP3    H276974   1.567   3.655  15.392  0.8483 -1.1769  0.5979
18495TIP3   OH276975   5.052   5.450   0.190  0.4714  0.5181  0.0799
18495TIP3    H176976   5.126   5.507   0.212  1.1501 -0.2442 -0.1755
18495TIP3    H276977   4.985   5.472   0.254  1.5077  0.0805  1.3535
18496TIP3   OH276978   2.829   0.441   3.052  0.3540  0.2070  0.1271
18496TIP3    H176979   2.837   0.373   2.986  0.9983  0.3730  0.0267
18496TIP3    H276980   2.759   0.498   3.020 -0.3220 -0.4991  0.3083
18497TIP3   OH276981   4.294   5.638  11.672 -0.0248 -0.1757 -0.5523
18497TIP3    H176982   4.367   5.630  11.733  1.4831  0.1283 -2.2131
18497TIP3    H276983   4.264   5.548  11.657  0.1826 -0.3280 -0.0591
18498TIP3   OH276984   4.628   1.382  13.581  0.0694  0.5802  0.6075
18498TIP3    H176985   4.608   1.434  13.660 -0.0254 -0.2582  1.1473
18498TIP3    H276986   4.547   1.337  13.560  0.4600 -0.2552  0.8434
18499TIP3   OH276987   0.328   3.438  11.209  0.0938 -0.2836 -0.0561
18499TIP3    H176988   0.355   3.355  11.170  2.1524  1.0508 -1.6564
18499TIP3    H276989   0.315   3.497  11.134  0.1714  1.2601  1.0901
18500TIP3   OH276990   1.058   0.328   4.075  0.3428 -0.0709 -0.3137
18500TIP3    H176991   1.005   0.358   4.001 -5.4660  0.4129  3.4820
18500TIP3    H276992   1.068   0.405   4.130  0.7997 -1.2669  1.3539
18501TIP3   OH276993   4.181   3.811   6.265  0.1015 -0.2135  0.4479
18501TIP3    H176994   4.192   3.906   6.266 -1.5449  0.0411 -0.6185
18501TIP3    H276995   4.104   3.795   6.319  0.3726 -0.9458  0.6349
18502TIP3   OH276996   2.254   5.898  11.492 -0.3190 -0.5383  0.6860
18502TIP3    H176997   2.203   5.969  11.530 -1.1791 -1.6348  1.6335
18502TIP3    H276998   2.193   5.825  11.485  0.3183 -0.9579 -1.0738
18503TIP3   OH276999   3.416   2.685  10.945 -0.0830  0.9753  0.3544
18503TIP3    H177000   3.410   2.730  10.861  1.9789 -0.4180 -0.6177
18503TIP3    H277001   3.388   2.596  10.927 -1.2917  1.0790  1.5807
18504TIP3   OH277002   0.026   3.602  16.473  0.6240 -0.4121 -0.1663
18504TIP3    H177003   0.100   3.597  16.413  0.5867  1.2244 -0.4051
18504TIP3    H277004   0.047   3.541  16.543  1.8292 -0.5216 -0.6079
18505TIP3   OH277005   6.516   0.809   1.729  0.4735 -0.4474  0.7291
18505TIP3    H177006   6.586   0.768   1.678 -2.1257 -2.1617 -1.8064
18505TIP3    H277007   6.502   0.749   1.802  0.9704 -0.6100  0.6977
18506TIP3   OH277008   5.406   6.310  11.942 -0.5007  0.1308 -0.1028
18506TIP3    H177009   5.470   6.348  11.882  0.7973 -1.0570  0.4804
18506TIP3    H277010   5.336   6.375  11.946  1.4434  2.3381  0.5948
18507TIP3   OH277011   3.135   5.307  16.831  0.0324  0.2773 -0.1978
18507TIP3    H177012   3.224   5.270  16.833  0.3233  0.9995  0.8836
18507TIP3    H277013   3.136   5.377  16.896 -1.4988 -0.0824  0.2618
18508TIP3   OH277014   5.520   1.559  15.083  0.0584 -0.7651  0.3116
18508TIP3    H177015   5.577   1.532  15.011 -1.0593 -0.0656 -0.8746
18508TIP3    H277016   5.442   1.504  15.073 -0.4180 -0.1396  0.5342
18509TIP3   OH277017   4.428   6.138   1.315 -0.2900 -0.3852 -0.4801
18509TIP3    H177018   4.438   6.180   1.400 -0.0943 -0.0833 -0.6511
18509TIP3    H277019   4.512   6.153   1.271 -0.7407  0.3308 -1.1117
18510TIP3   OH277020   1.086   5.057   0.136 -0.2430  0.3564 -0.1990
18510TIP3    H177021   1.023   4.999   0.178 -1.2374  1.6491  0.1397
18510TIP3    H277022   1.035   5.104   0.069  0.7470  0.1862 -1.1047
18511TIP3   OH277023   0.258   5.928   3.092 -0.1860  0.6441 -0.9758
18511TIP3    H177024   0.230   5.866   3.160 -2.7101  2.0343 -0.6192
18511TIP3    H277025   0.297   6.000   3.141  0.5187  0.4354 -1.2205
18512TIP3   OH277026   1.865   2.616   4.567 -0.0431 -0.0666  0.1505
18512TIP3    H177027   1.952   2.587   4.595  0.4372  0.1333 -1.0949
18512TIP3    H277028   1.847   2.567   4.487 -1.2311 -0.3551  0.5755
18513TIP3   OH277029   3.287   2.926  12.754  0.4741 -0.0826 -0.5373
18513TIP3    H177030   3.258   2.845  12.712 -0.7885 -1.1017  2.0501
18513TIP3    H277031   3.206   2.968  12.782  1.1322  1.9684 -1.5166
18514TIP3   OH277032   0.531   3.450   4.209 -0.2829 -0.1653 -0.4409
18514TIP3    H177033   0.592   3.415   4.274 -0.1603  2.4096  0.9450
18514TIP3    H277034   0.575   3.436   4.125  1.1543 -0.4368  0.3342
18515TIP3   OH277035   2.711   1.517   4.126 -1.1000  0.0710 -0.1863
18515TIP3    H177036   2.764   1.486   4.199 -0.3048  2.1147  0.1913
18515TIP3    H277037   2.626   1.475   4.138 -0.7889 -0.1436  1.5430
18516TIP3   OH277038   5.851   3.250  11.316  0.4916  0.3526 -0.6504
18516TIP3    H177039   5.910   3.175  11.317  1.2539  0.9029  1.7678
18516TIP3    H277040   5.786   3.228  11.249  3.0333 -0.5389 -3.0667
18517TIP3   OH277041   2.160   5.651  12.074  0.1129 -0.1730 -0.2040
18517TIP3    H177042   2.192   5.599  12.000  1.1158  0.1629 -0.0209
18517TIP3    H277043   2.131   5.586  12.138  0.0154 -0.4800 -0.5539
18518TIP3   OH277044   0.893   3.104   4.959 -0.0081  0.5932 -0.3547
18518TIP3    H177045   0.851   3.018   4.960  0.9715  0.0273 -2.2694
18518TIP3    H277046   0.844   3.155   5.023  0.2343 -1.7682  1.9082
18519TIP3   OH277047   6.645   6.016  14.559  0.1161 -0.3099 -0.2744
18519TIP3    H177048   6.628   6.033  14.652  0.1723 -0.9200 -0.1492
18519TIP3    H277049   6.697   5.936  14.558  1.5740  0.5949 -0.7359
18520TIP3   OH277050   2.158   2.254  12.963 -0.1251  0.5073 -0.0048
18520TIP3    H177051   2.180   2.298  13.045 -1.0586 -0.8846  1.0297
18520TIP3    H277052   2.226   2.283  12.902  0.3259  1.9289  1.1143
18521TIP3   OH277053   3.097   3.828   0.240 -0.7555 -0.6284  0.1292
18521TIP3    H177054   3.026   3.856   0.297 -0.6856 -0.7584  0.2822
18521TIP3    H277055   3.067   3.744   0.203 -0.3514 -1.0847  0.8136
18522TIP3   OH277056   6.258   1.925  13.879  0.2730  0.2813 -0.9515
18522TIP3    H177057   6.268   2.017  13.906  1.0973  0.2024 -0.9689
18522TIP3    H277058   6.301   1.921  13.794  0.8814 -0.2800 -0.6243
18523TIP3   OH277059   4.501   4.272   3.593  0.8633 -0.0258 -0.3242
18523TIP3    H177060   4.590   4.307   3.586  1.1732 -0.9952 -1.6957
18523TIP3    H277061   4.458   4.299   3.512 -0.3529  1.0541  0.6363
18524TIP3   OH277062   5.502   1.844  16.563 -0.0083 -0.5615  0.0771
18524TIP3    H177063   5.593   1.829  16.538  0.0165 -0.8340  0.3343
18524TIP3    H277064   5.464   1.757  16.572 -0.2208 -0.4537  0.2476
18525TIP3   OH277065   6.112   5.548  13.245  0.0769  0.6051  0.5079
18525TIP3    H177066   6.062   5.566  13.165 -1.5286 -1.5501  0.9383
18525TIP3    H277067   6.200   5.526  13.214 -0.0917  1.3370 -0.5308
18526TIP3   OH277068   4.209   5.795  12.694  0.0317  0.1595 -0.2588
18526TIP3    H177069   4.304   5.789  12.684 -0.0698 -1.1004 -0.6229
18526TIP3    H277070   4.176   5.805  12.605 -0.1385  1.9058 -0.0527
18527TIP3   OH277071   0.546   2.197   2.442  0.5756  0.1533  0.5980
18527TIP3    H177072   0.458   2.170   2.468  0.4869  0.2258  0.3790
18527TIP3    H277073   0.601   2.121   2.461  0.7323  0.6179  2.1127
18528TIP3   OH277074   1.503   5.182   4.556  0.2442 -0.7973 -0.2327
18528TIP3    H177075   1.436   5.130   4.512  0.5008 -0.6166 -0.8558
18528TIP3    H277076   1.528   5.130   4.632  0.2662 -1.4421 -0.6698
18529TIP3   OH277077   0.374   5.873   2.868  0.3403 -0.0820 -0.0067
18529TIP3    H177078   0.300   5.881   2.808  0.0565 -1.9991  0.0080
18529TIP3    H277079   0.338   5.894   2.954  0.1305  0.2256 -0.1684
18530TIP3   OH277080   3.510   5.846   0.037 -0.1952 -0.3061  0.3796
18530TIP3    H177081   3.419   5.829   0.061  0.0778  0.7540  2.3506
18530TIP3    H277082   3.530   5.780  -0.030 -1.7557 -1.9606  1.4534
18531TIP3   OH277083   4.988   6.059  15.818 -0.0780 -0.3262  0.3437
18531TIP3    H177084   4.922   6.096  15.877  0.6170 -0.0020  0.9348
18531TIP3    H277085   5.065   6.113  15.831  0.1110 -0.2839 -0.8400
18532TIP3   OH277086   0.254   3.191  16.674 -0.5904  0.4399  0.4330
18532TIP3    H177087   0.195   3.266  16.661 -1.8374 -0.9091 -2.8049
18532TIP3    H277088   0.332   3.213  16.624 -0.9279 -0.3245 -0.4610
18533TIP3   OH277089   3.645   2.386  13.451  0.0405 -0.0803  0.2383
18533TIP3    H177090   3.720   2.443  13.471 -0.7886  1.2808 -0.4366
18533TIP3    H277091   3.630   2.397  13.358 -0.2961 -1.2536  0.1370
18534TIP3   OH277092   1.784   0.664   1.607 -0.1536  0.0355 -0.1652
18534TIP3    H177093   1.764   0.649   1.700 -0.0283  0.7075 -0.0258
18534TIP3    H277094   1.879   0.674   1.604  0.1050 -2.1917 -0.6935
18535TIP3   OH277095   6.781   2.385  15.594  0.0016 -0.3228  0.2307
18535TIP3    H177096   6.852   2.334  15.634  0.4394 -1.0837 -1.4258
18535TIP3    H277097   6.814   2.474  15.591 -0.4497 -0.0294  2.4291
18536TIP3   OH277098   5.306   4.805  15.343  0.9119  0.1714 -0.3069
18536TIP3    H177099   5.382   4.770  15.390  0.3265 -0.2366  0.3401
18536TIP3    H277100   5.285   4.886  15.390  1.2617  0.5606 -0.8088
18537TIP3   OH277101   3.573   2.381   5.000  0.7176  0.6742 -1.2710
18537TIP3    H177102   3.605   2.294   4.978  0.3498 -0.0592  0.9352
18537TIP3    H277103   3.646   2.423   5.046  0.3388  0.9416 -0.9047
18538TIP3   OH277104   4.749   0.136   4.949  0.2713 -0.0817  0.8065
18538TIP3    H177105   4.836   0.102   4.967  0.9894  2.2860  2.2790
18538TIP3    H277106   4.712   0.075   4.885  3.2325 -0.7971 -0.3894
18539TIP3   OH277107   6.336   3.473   3.552  0.7256  0.4771 -0.0433
18539TIP3    H177108   6.335   3.505   3.643 -1.7022 -0.2619  0.2534
18539TIP3    H277109   6.276   3.530   3.505 -1.1408 -1.5102 -0.2303
18540TIP3   OH277110   0.856   0.708   4.440  0.6377  0.4163 -0.3567
18540TIP3    H177111   0.806   0.637   4.400  0.4392  0.2752  0.1337
18540TIP3    H277112   0.917   0.664   4.499 -0.3572  0.6869  0.9298
18541TIP3   OH277113   3.972   4.885  11.100 -0.1737  0.0867  0.1823
18541TIP3    H177114   3.960   4.979  11.087  1.3303  0.6259  2.1214
18541TIP3    H277115   4.031   4.859  11.029 -0.7010  0.5572 -0.4459
18542TIP3   OH277116   0.438   0.258  16.716 -0.3576 -0.1675 -0.2587
18542TIP3    H177117   0.438   0.348  16.685  0.6810 -0.1750 -0.3109
18542TIP3    H277118   0.374   0.257  16.788 -1.8406  0.1467 -1.5045
18543TIP3   OH277119   1.681   3.721  14.052 -0.9927 -0.3207 -0.2963
18543TIP3    H177120   1.744   3.696  14.119 -0.6461 -0.6979 -0.7615
18543TIP3    H277121   1.629   3.642  14.038  2.1335 -2.0242 -4.0808
18544TIP3   OH277122   0.535   1.621   0.145  0.0609  0.0851 -0.3493
18544TIP3    H177123   0.449   1.657   0.166  1.2461  2.6816  0.5557
18544TIP3    H277124   0.536   1.535   0.187 -1.5791  0.6154  0.8738
18545TIP3   OH277125   2.025   2.283  15.348 -0.2679 -0.0160  0.5575
18545TIP3    H177126   1.977   2.207  15.317 -2.4827  2.0051 -1.4275
18545TIP3    H277127   1.988   2.302  15.434 -0.9316 -0.2171  0.3225
18546TIP3   OH277128   2.948   0.617   2.167  0.0823 -0.1433 -0.3715
18546TIP3    H177129   2.911   0.587   2.084  0.5183 -1.7487 -0.0263
18546TIP3    H277130   3.035   0.651   2.143 -0.2016  0.3613 -0.7025
18547TIP3   OH277131   0.533   6.065   3.967  0.5009 -0.4554  0.2561
18547TIP3    H177132   0.465   6.001   3.988  0.4684 -1.4278 -2.4074
18547TIP3    H277133   0.575   6.084   4.051 -3.7928  1.2334  2.2992
18548TIP3   OH277134   3.009   6.224  15.403  0.9883  0.1049 -0.3848
18548TIP3    H177135   3.092   6.242  15.447  1.1015  0.4835 -0.7527
18548TIP3    H277136   2.947   6.287  15.440  0.8837 -0.1133 -0.1812
18549TIP3   OH277137   4.829   3.492  13.245  0.1975 -0.0336 -0.8674
18549TIP3    H177138   4.884   3.441  13.186 -0.7873 -0.2124 -1.6570
18549TIP3    H277139   4.870   3.578  13.248 -0.2137  0.2479 -2.5211
18550TIP3   OH277140   0.591   1.934   5.616  0.0662 -0.3863  0.2723
18550TIP3    H177141   0.622   1.849   5.646 -1.1122 -1.0199 -0.2160
18550TIP3    H277142   0.559   1.978   5.695 -0.6559 -0.9957  0.3293
18551TIP3   OH277143   2.664   5.086  16.354 -0.1981 -0.2116 -0.0564
18551TIP3    H177144   2.667   5.152  16.424 -0.2387 -0.7563  0.4700
18551TIP3    H277145   2.579   5.043  16.365 -1.0534  0.9773 -1.6630
18552TIP3   OH277146   0.763   1.826   6.490  0.3937 -0.7281  0.2678
18552TIP3    H177147   0.820   1.857   6.561 -1.0789 -1.1933  1.7267
18552TIP3    H277148   0.702   1.766   6.533  0.3278 -2.1400 -1.6759
18553TIP3   OH277149   0.193   6.109   3.517 -0.9370  0.1068 -0.1201
18553TIP3    H177150   0.106   6.074   3.496 -1.7763  2.1360 -0.3310
18553TIP3    H277151   0.186   6.138   3.608  0.3215 -1.8770  0.6545
18554TIP3   OH277152   4.803   3.569  14.083 -1.0041  0.6508  0.4392
18554TIP3    H177153   4.762   3.560  14.169 -1.3926 -0.9625  0.1318
18554TIP3    H277154   4.741   3.528  14.023  0.1025  0.0602 -0.3377
18555TIP3   OH277155   3.822   4.990  17.152 -0.1809 -0.3373  0.7523
18555TIP3    H177156   3.785   4.903  17.170 -0.5675 -0.7178 -1.5777
18555TIP3    H277157   3.746   5.048  17.146 -0.1850 -0.4513 -0.6364
18556TIP3   OH277158   5.298   0.008  15.243 -0.2914  0.1199 -0.0918
18556TIP3    H177159   5.208  -0.022  15.256 -1.0227  1.6922 -1.1595
18556TIP3    H277160   5.347  -0.071  15.220 -1.4119 -0.7408  0.3781
18557TIP3   OH277161   1.953   4.221   5.260  0.3167  0.3947 -0.4649
18557TIP3    H177162   1.942   4.190   5.350 -0.9569  0.9611 -0.4070
18557TIP3    H277163   1.950   4.141   5.207  2.8159 -0.1494  0.0689
18558TIP3   OH277164   4.277   1.220   2.000 -0.0312  0.3540 -0.3969
18558TIP3    H177165   4.345   1.287   2.006  0.2793  0.1713 -1.5097
18558TIP3    H277166   4.309   1.159   1.934 -0.6986 -0.4348 -0.0162
18559TIP3   OH277167   4.543   2.136  10.887  0.3098  0.1020 -0.3638
18559TIP3    H177168   4.591   2.177  10.815 -0.3560 -0.0219 -0.8908
18559TIP3    H277169   4.457   2.116  10.850 -0.4584  1.0984  0.7936
18560TIP3   OH277170   4.958   0.880   6.034  0.8566 -0.0163  0.3771
18560TIP3    H177171   4.912   0.820   5.974  1.6491 -1.1612  0.8749
18560TIP3    H277172   4.984   0.824   6.107  0.2888  1.2755  1.5976
18561TIP3   OH277173   2.030   6.273   5.376  0.0423  0.7317  0.3569
18561TIP3    H177174   2.054   6.281   5.468 -0.0215  0.6912  0.3776
18561TIP3    H277175   2.017   6.180   5.362 -2.3190  0.9153  0.9304
18562TIP3   OH277176   4.673   1.447   6.255  0.5010 -0.0962  0.7169
18562TIP3    H177177   4.602   1.442   6.191 -1.5215  1.5952  2.6634
18562TIP3    H277178   4.751   1.466   6.203 -0.5508 -1.2710 -1.4401
18563TIP3   OH277179   4.418   4.233   1.576 -0.1970  0.3412  0.4655
18563TIP3    H177180   4.462   4.265   1.498  2.5294  0.3525  1.8999
18563TIP3    H277181   4.411   4.138   1.562 -0.2834  0.4160 -0.0226
18564TIP3   OH277182   4.743   0.549   4.688  0.1187  0.4971 -0.3676
18564TIP3    H177183   4.655   0.582   4.707  0.2644  1.2871 -0.9895
18564TIP3    H277184   4.782   0.532   4.773  0.1314  2.2363  0.0038
18565TIP3   OH277185   4.678   3.118  10.692 -0.3866 -0.5289 -0.0837
18565TIP3    H177186   4.612   3.067  10.645 -0.8322 -1.0913  1.0894
18565TIP3    H277187   4.688   3.071  10.775 -0.8833  1.3617  1.0914
18566TIP3   OH277188   1.871   6.191  13.382  0.1602 -0.3865 -0.1684
18566TIP3    H177189   1.850   6.192  13.476 -0.3829 -2.6473 -0.2323
18566TIP3    H277190   1.948   6.135  13.375 -0.8025 -1.6158 -1.2517
18567TIP3   OH277191   1.285   5.292   6.044 -0.4228 -0.1628  0.0120
18567TIP3    H177192   1.203   5.338   6.057 -0.4017 -0.3025  0.6675
18567TIP3    H277193   1.344   5.357   6.006 -0.7722 -0.0101 -0.2726
18568TIP3   OH277194   0.102   5.364  15.276  0.6117 -0.6786  0.0699
18568TIP3    H177195   0.196   5.350  15.289  0.9184  0.0912 -1.1539
18568TIP3    H277196   0.062   5.280  15.299  1.6589 -1.2029  0.0584
18569TIP3   OH277197   2.535   0.734  13.745 -0.2630 -0.1331 -0.2834
18569TIP3    H177198   2.578   0.681  13.678 -0.0146 -0.2189 -0.0577
18569TIP3    H277199   2.444   0.739  13.717 -0.8429 -2.6400  0.8983
18570TIP3   OH277200   3.703   4.782  13.466 -0.0842  0.2448 -0.1337
18570TIP3    H177201   3.625   4.741  13.427 -1.4132  1.1276  1.4453
18570TIP3    H277202   3.746   4.826  13.393 -0.6915 -0.8264 -1.1710
18571TIP3   OH277203   0.691   2.402   1.093 -0.1905  0.5042 -0.1595
18571TIP3    H177204   0.759   2.446   1.145  1.1323 -1.1539 -0.3980
18571TIP3    H277205   0.735   2.378   1.012 -1.0741 -0.5478 -0.3550
18572TIP3   OH277206   0.576   5.676   2.970  0.7963  0.1928 -0.2633
18572TIP3    H177207   0.652   5.717   3.011  1.1026 -0.6131 -0.0100
18572TIP3    H277208   0.537   5.745   2.917  0.9950  0.9652  0.5709
18573TIP3   OH277209   1.013   2.587   0.681 -0.0796 -0.6597 -0.5487
18573TIP3    H177210   1.025   2.567   0.588 -0.4845 -1.9767 -0.3382
18573TIP3    H277211   1.092   2.553   0.723  0.4610  0.6314 -0.4915
18574TIP3   OH277212   5.084   1.568  11.307 -0.0680 -0.2218  0.1544
18574TIP3    H177213   5.171   1.606  11.297 -0.8323  1.4944 -0.2937
18574TIP3    H277214   5.028   1.642  11.328 -1.5075 -1.2277 -0.0331
18575TIP3   OH277215   2.721   5.099   3.803 -0.0184  0.3332  0.0505
18575TIP3    H177216   2.730   5.023   3.745 -1.5898 -1.0663  1.5560
18575TIP3    H277217   2.721   5.063   3.891  0.2192  2.2061  0.8645
18576TIP3   OH277218   0.762   3.649  12.383 -0.1094  0.6883  0.2300
18576TIP3    H177219   0.810   3.627  12.303 -0.3186  0.9787  0.0234
18576TIP3    H277220   0.739   3.741  12.372 -0.9038  0.4969  0.2247
18577TIP3   OH277221   3.311   6.773  11.324 -0.6238 -0.0153 -0.0325
18577TIP3    H177222   3.358   6.813  11.397 -0.5016  1.3067 -0.7891
18577TIP3    H277223   3.379   6.731  11.272 -0.1557  2.0833 -1.2451
18578TIP3   OH277224   0.047   6.692  10.685 -0.3199  0.0513 -0.0402
18578TIP3    H177225   0.116   6.725  10.628 -1.3556  0.4850 -1.0727
18578TIP3    H277226   0.000   6.770  10.714 -1.2281 -0.3213 -0.4771
18579TIP3   OH277227   6.269   6.376  14.572 -1.0599 -0.4740 -0.0996
18579TIP3    H177228   6.295   6.467  14.563  1.7430 -1.1505  0.0975
18579TIP3    H277229   6.276   6.340  14.483 -1.9196 -0.5600 -0.1379
18580TIP3   OH277230   6.247   3.333  16.809  0.6854 -0.0856 -0.0475
18580TIP3    H177231   6.314   3.271  16.839  1.8134  0.8214 -0.6421
18580TIP3    H277232   6.257   3.409  16.866  1.6685  0.9443 -1.5478
18581TIP3   OH277233   3.655   5.160   4.950 -0.1032 -0.9022 -0.3531
18581TIP3    H177234   3.679   5.068   4.963  1.2195 -0.3717  1.1412
18581TIP3    H277235   3.739   5.206   4.940 -0.6678  0.3814  0.5898
18582TIP3   OH277236   2.120   0.079   5.059 -0.6300  0.3363 -0.2251
18582TIP3    H177237   2.039   0.029   5.051  0.0379 -0.8790  0.3894
18582TIP3    H277238   2.123   0.105   5.151 -0.1022 -0.0358 -0.1304
18583TIP3   OH277239   6.241   5.930   1.419 -0.5112 -0.5924 -0.4490
18583TIP3    H177240   6.311   5.864   1.417 -1.2209 -1.3464 -1.6977
18583TIP3    H277241   6.234   5.955   1.511  0.9591 -0.9704 -0.2056
18584TIP3   OH277242   5.189   5.952   5.697  0.2254 -0.1966 -0.2404
18584TIP3    H177243   5.161   5.991   5.614  0.1563 -1.8535 -1.0294
18584TIP3    H277244   5.140   6.000   5.764 -0.5516  0.4263 -1.2321
18585TIP3   OH277245   2.041   1.886  15.178  0.0233 -0.0045 -0.1196
18585TIP3    H177246   2.056   1.870  15.084  0.0828  1.0299 -0.2961
18585TIP3    H277247   2.045   1.799  15.218  1.6840 -0.3052 -0.8424
18586TIP3   OH277248   3.663   1.181   5.368  0.0124 -0.1071 -0.4346
18586TIP3    H177249   3.650   1.237   5.444  1.6493 -0.1775 -0.0824
18586TIP3    H277250   3.612   1.102   5.388  2.7695 -1.4419  2.0666
18587TIP3   OH277251   1.886   4.025   4.006 -0.5660  0.6970  0.2271
18587TIP3    H177252   1.935   4.098   4.045  0.9572  0.5301 -1.2844
18587TIP3    H277253   1.845   4.063   3.928  0.8710 -0.1949 -1.0072
18588TIP3   OH277254   2.223   4.905   1.814  0.2925  0.1122  0.5766
18588TIP3    H177255   2.187   4.874   1.897 -2.2289 -0.2761 -0.5535
18588TIP3    H277256   2.146   4.933   1.764  1.6868  0.1580 -1.6913
18589TIP3   OH277257   2.378   3.485  13.359  0.4092 -0.0543 -0.1290
18589TIP3    H177258   2.465   3.444  13.359  0.3939 -0.1032  0.7377
18589TIP3    H277259   2.338   3.456  13.441 -1.1597 -1.5648 -1.3344
18590TIP3   OH277260   0.434   4.715  12.789 -0.1434 -0.8148 -0.3109
18590TIP3    H177261   0.427   4.793  12.733  1.0927 -0.6465 -0.2443
18590TIP3    H277262   0.419   4.642  12.730  1.2794 -0.6456 -0.9172
18591TIP3   OH277263   2.237   4.979  11.709  0.2933  0.5283  0.5125
18591TIP3    H177264   2.244   5.006  11.617  1.8155  0.1045  0.4790
18591TIP3    H277265   2.170   4.911  11.709 -0.1239  0.9248 -0.1908
18592TIP3   OH277266   6.132   2.072   2.433 -0.0083  0.0342 -0.5686
18592TIP3    H177267   6.140   2.167   2.442 -2.5330  0.3572 -1.1923
18592TIP3    H277268   6.190   2.037   2.501  0.0669  2.0341  0.4611
18593TIP3   OH277269   4.937   2.097   4.997 -0.5826  0.2388  0.5158
18593TIP3    H177270   4.879   2.027   4.967  1.3031 -0.6076 -1.4722
18593TIP3    H277271   4.900   2.177   4.959 -1.6479  0.0434  1.1241
18594TIP3   OH277272   0.613   3.411   0.689  0.0878 -0.2198 -0.0048
18594TIP3    H177273   0.593   3.427   0.597  0.8837 -2.3364 -0.6073
18594TIP3    H277274   0.709   3.403   0.692  0.3436  2.3685  1.5003
18595TIP3   OH277275   4.073   5.576   2.675 -0.0249 -0.2810 -0.3441
18595TIP3    H177276   3.984   5.547   2.694  0.4194 -0.2754  2.1769
18595TIP3    H277277   4.129   5.511   2.718  1.1198  0.8861 -0.0164
18596TIP3   OH277278   5.025   6.702  12.268 -0.3361  0.1886  0.2181
18596TIP3    H177279   5.033   6.721  12.362  1.2616 -3.0347  0.9016
18596TIP3    H277280   5.108   6.728  12.230 -0.4855  0.2922 -0.0397
18597TIP3   OH277281   5.973   0.449   0.467  0.0954 -0.3535 -0.1637
18597TIP3    H177282   5.901   0.386   0.462  0.2489 -0.4318 -1.9081
18597TIP3    H277283   6.042   0.402   0.515  0.1180 -1.4387 -1.2153
18598TIP3   OH277284   3.239   6.656  14.190 -0.9483  0.5080  0.0626
18598TIP3    H177285   3.196   6.652  14.275  0.7600 -0.6810  0.9039
18598TIP3    H277286   3.329   6.629  14.206 -0.0966  1.9537 -1.8203
18599TIP3   OH277287   3.051   5.871   5.600 -0.0423  0.6180  0.0484
18599TIP3    H177288   3.121   5.910   5.653  0.4098 -0.9202  0.6301
18599TIP3    H277289   3.096   5.813   5.539 -0.8107 -1.1327  1.0625
18600TIP3   OH277290   1.040   0.663  17.151  0.1996 -0.7523 -0.6693
18600TIP3    H177291   1.099   0.698  17.217  0.9738 -2.1396 -0.5910
18600TIP3    H277292   0.958   0.649  17.198 -0.9517  2.9862 -1.2074
18601TIP3   OH277293   6.343   5.462  11.888  0.5397  0.0525 -0.1781
18601TIP3    H177294   6.253   5.464  11.856  0.4595 -1.0281 -0.0425
18601TIP3    H277295   6.391   5.519  11.827 -0.0279 -0.2130 -0.8887
18602TIP3   OH277296   2.257   2.253   4.615 -0.1522  0.0440  0.0841
18602TIP3    H177297   2.260   2.226   4.523  0.2901 -0.7603  0.3274
18602TIP3    H277298   2.321   2.198   4.658 -1.3497 -0.5750  1.1345
18603TIP3   OH277299   0.293   2.430   5.095  0.4089  0.6568 -0.1093
18603TIP3    H177300   0.199   2.449   5.092  0.4406  0.9555  0.5953
18603TIP3    H277301   0.299   2.336   5.083 -0.2065  0.1320  2.9901
18604TIP3   OH277302   3.073   0.374   0.392 -0.8147  0.0978 -0.3255
18604TIP3    H177303   3.023   0.314   0.449 -0.6571  0.8493  0.6248
18604TIP3    H277304   3.117   0.316   0.330 -2.2840 -0.6346 -0.7278
18605TIP3   OH277305   1.076   6.630   2.413  0.2188  0.4500  0.2530
18605TIP3    H177306   1.074   6.667   2.324  1.6753 -2.3044 -1.0567
18605TIP3    H277307   1.166   6.598   2.423 -0.0968  0.1510  2.4989
18606TIP3   OH277308   0.025   5.250   3.173  0.0213  0.5576  0.3594
18606TIP3    H177309   0.094   5.202   3.219  0.8932  0.0890 -1.3774
18606TIP3    H277310   0.023   5.336   3.216 -0.2486 -0.3252  2.2430
18607TIP3   OH277311   4.231   5.349   3.082  0.3748  0.3288  0.2175
18607TIP3    H177312   4.294   5.283   3.112  2.5608  2.3495  0.4209
18607TIP3    H277313   4.232   5.416   3.150 -3.4120 -0.2846  1.0787
18608TIP3   OH277314   5.267   5.685   5.589  0.7295 -0.1643 -0.1581
18608TIP3    H177315   5.280   5.767   5.637  1.4142  0.1743 -0.9002
18608TIP3    H277316   5.176   5.660   5.608 -0.1454  1.7726 -1.4296
18609TIP3   OH277317   4.744   6.743  14.598 -0.0651 -0.3836  0.0692
18609TIP3    H177318   4.687   6.741  14.676 -0.9450 -1.1694 -0.5748
18609TIP3    H277319   4.703   6.807  14.540  1.4242  1.3434  0.8303
18610TIP3   OH277320   0.644   5.801  12.490 -0.2099 -0.0246  0.6260
18610TIP3    H177321   0.565   5.786  12.438 -0.9586 -0.2566  1.7871
18610TIP3    H277322   0.716   5.784  12.430 -1.0369  0.3001 -0.4952
18611TIP3   OH277323   1.562   4.993  14.337  0.5947  0.5694 -0.1189
18611TIP3    H177324   1.600   5.079  14.318 -2.1665  1.8414 -0.3201
18611TIP3    H277325   1.539   4.958  14.251 -0.9230  0.9613  0.1061
18612TIP3   OH277326   6.561   2.596   0.658 -0.3235 -0.2594 -0.2830
18612TIP3    H177327   6.501   2.670   0.666 -0.8209 -0.6616 -0.1891
18612TIP3    H277328   6.547   2.564   0.569 -0.2224 -0.3346 -0.2717
18613TIP3   OH277329   3.933   0.904  14.318  0.1330 -0.5168  0.3866
18613TIP3    H177330   3.878   0.964  14.267  0.0997 -0.1982  0.7990
18613TIP3    H277331   3.948   0.830  14.259  0.1405 -0.1231 -0.1112
18614TIP3   OH277332   6.081   0.782  12.046  0.4495 -0.2107 -0.2430
18614TIP3    H177333   6.000   0.732  12.036  0.3786 -0.5842  1.7374
18614TIP3    H277334   6.076   0.850  11.978 -1.9578  0.3372  0.3672
18615TIP3   OH277335   3.108   1.733   6.466 -0.4463 -0.4129  0.6524
18615TIP3    H177336   3.159   1.774   6.536 -1.3157  0.0070  1.0611
18615TIP3    H277337   3.146   1.646   6.457 -0.0174 -0.3084  1.3287
18616TIP3   OH277338   3.610   1.155  11.792  0.5179  0.5083  0.6713
18616TIP3    H177339   3.551   1.191  11.725 -0.3561  0.5783  1.4651
18616TIP3    H277340   3.634   1.069  11.760  1.1382  1.0363 -0.3495
18617TIP3   OH277341   0.144   0.462  16.863  0.7524 -0.3323  0.4800
18617TIP3    H177342   0.163   0.499  16.776 -0.8615 -1.2825 -0.3195
18617TIP3    H277343   0.110   0.536  16.913 -0.8757 -0.3126 -0.5795
18618TIP3   OH277344   4.552   2.303  16.277  0.1759 -0.0136 -0.4199
18618TIP3    H177345   4.522   2.264  16.195  1.4368  3.3375 -2.7099
18618TIP3    H277346   4.481   2.364  16.301 -0.0606 -0.7712  0.8874
18619TIP3   OH277347   4.649   4.606   5.061  0.2224 -0.2113  0.2515
18619TIP3    H177348   4.645   4.583   4.968 -1.9980  1.1822 -0.0783
18619TIP3    H277349   4.639   4.522   5.106 -0.5871 -0.7145 -0.8076
18620TIP3   OH277350   1.057   6.483   0.113  0.1801  0.2634  0.3048
18620TIP3    H177351   1.052   6.412   0.048 -0.6689  0.9358 -0.3898
18620TIP3    H277352   1.010   6.448   0.189 -1.0794  0.4256 -0.3807
18621TIP3   OH277353   0.089   5.818   5.697 -0.7560  0.3019 -0.3314
18621TIP3    H177354   0.090   5.723   5.707 -2.7292  0.4311  2.1540
18621TIP3    H277355   0.170   5.847   5.740 -1.1253 -0.1854  0.7412
18622TIP3   OH277356   5.906   2.662  13.809  0.1426 -0.4285 -0.4346
18622TIP3    H177357   5.955   2.600  13.862  0.8699 -1.3576 -2.1122
18622TIP3    H277358   5.934   2.748  13.839  1.4378 -0.9472 -0.1325
18623TIP3   OH277359   5.902   5.359   1.702 -0.2782  0.9279  0.0434
18623TIP3    H177360   5.964   5.381   1.771 -0.3620 -0.3433  0.5488
18623TIP3    H277361   5.906   5.264   1.694 -1.5191  0.8907 -0.5127
18624TIP3   OH277362   2.154   2.017   0.352 -0.3131  0.3654  0.0873
18624TIP3    H177363   2.215   2.017   0.278 -2.1278 -0.2556 -1.4941
18624TIP3    H277364   2.107   2.100   0.344  0.2179  0.7933  1.2307
18625TIP3   OH277365   6.425   4.040  14.403 -0.2429  0.2360  0.2208
18625TIP3    H177366   6.461   4.120  14.441  0.7092  0.9732 -2.0797
18625TIP3    H277367   6.494   4.007  14.346 -1.3065 -1.2273 -0.2862
18626TIP3   OH277368   2.874   6.538   5.898 -0.3333  0.6426 -0.6128
18626TIP3    H177369   2.926   6.517   5.976 -0.3326  1.1387 -0.4764
18626TIP3    H277370   2.939   6.568   5.834 -0.2064 -0.7280 -1.1642
18627TIP3   OH277371   5.472   1.634  14.483  0.9230  0.3322  0.1207
18627TIP3    H177372   5.535   1.565  14.460 -0.2539 -0.7455  0.0137
18627TIP3    H277373   5.414   1.640  14.407  1.3811  1.9293 -0.1452
18628TIP3   OH277374   2.270   3.440  12.495 -0.2228  0.3900 -0.1864
18628TIP3    H177375   2.257   3.522  12.544  1.3709 -0.0856  1.1275
18628TIP3    H277376   2.331   3.390  12.549 -1.5909 -1.9287 -0.6728
18629TIP3   OH277377   5.347   4.515  16.121  0.1010 -0.4673 -0.5228
18629TIP3    H177378   5.325   4.424  16.141  2.2213 -1.1474 -1.0340
18629TIP3    H277379   5.301   4.533  16.040  0.5510 -1.4938 -1.0294
18630TIP3   OH277380   3.727   1.895   2.526  0.0165  0.0630 -1.2417
18630TIP3    H177381   3.799   1.855   2.574 -0.9879 -0.1832  0.1170
18630TIP3    H277382   3.648   1.854   2.561 -0.8667  1.1659 -1.8506
18631TIP3   OH277383   6.804   3.308   0.224  0.0404  0.3717  0.6091
18631TIP3    H177384   6.898   3.300   0.206  0.2115 -0.8753  1.8835
18631TIP3    H277385   6.764   3.239   0.171 -0.1390  0.7738  0.2198
18632TIP3   OH277386   2.425   4.415   1.104 -0.2496  0.2145  0.1825
18632TIP3    H177387   2.488   4.411   1.177  0.1199 -0.0824 -0.1526
18632TIP3    H277388   2.364   4.484   1.130 -0.8067 -0.6784  1.3145
18633TIP3   OH277389   3.517   5.691   5.100  0.6673 -0.2723  0.9068
18633TIP3    H177390   3.591   5.719   5.153  0.3120  0.2589  1.1278
18633TIP3    H277391   3.484   5.613   5.145  0.5237  0.0291  1.3305
18634TIP3   OH277392   1.895   3.873  16.751  0.0069  0.2519  0.1510
18634TIP3    H177393   1.882   3.800  16.812  0.5068  0.5653  0.6517
18634TIP3    H277394   1.984   3.904  16.770  0.2551  0.2153 -0.9018
18635TIP3   OH277395   5.638   6.721   1.591 -0.2826 -0.1202  0.2160
18635TIP3    H177396   5.707   6.709   1.525 -0.2754  0.6792  0.0689
18635TIP3    H277397   5.684   6.753   1.668 -0.3068 -0.9541  0.5861
18636TIP3   OH277398   3.273   3.485  11.622 -0.3860 -0.1603  1.2754
18636TIP3    H177399   3.207   3.415  11.612 -0.7811  0.1616  1.6063
18636TIP3    H277400   3.248   3.550  11.555  1.6780 -1.6055 -1.0756
18637TIP3   OH277401   4.915   1.831   3.424  0.5257 -0.3020  0.3620
18637TIP3    H177402   4.849   1.885   3.380 -1.0655 -0.4459  2.3980
18637TIP3    H277403   4.877   1.813   3.510  3.4892  0.0501  1.8637
18638TIP3   OH277404   6.463   2.635  11.451  0.0528 -0.3956 -0.1161
18638TIP3    H177405   6.468   2.681  11.535  1.1583 -1.5994  0.5242
18638TIP3    H277406   6.507   2.693  11.389  1.2919 -0.4780  0.6450
18639TIP3   OH277407   0.871   5.564   2.449  0.0580  0.1143 -0.0963
18639TIP3    H177408   0.948   5.616   2.426  0.4300 -0.3504  0.0675
18639TIP3    H277409   0.867   5.570   2.545  0.0539 -0.0787 -0.0834
18640TIP3   OH277410   6.680   1.528  16.462 -0.7423 -0.1061  0.3164
18640TIP3    H177411   6.747   1.460  16.472  1.7044  1.8812 -1.2186
18640TIP3    H277412   6.612   1.505  16.525  1.3023 -2.3657  1.8634
18641TIP3   OH277413   2.314   6.090  13.626 -0.0623  0.0850  0.0755
18641TIP3    H177414   2.346   6.091  13.536 -0.7867 -0.6295 -0.2081
18641TIP3    H277415   2.301   6.182  13.648 -1.8498  0.2190 -1.2981
18642TIP3   OH277416   3.106   3.153  17.175  0.0202  0.5324 -0.7247
18642TIP3    H177417   3.139   3.093  17.107 -0.7810 -2.1668  1.1089
18642TIP3    H277418   3.039   3.102  17.221  1.7870  1.4619  3.3106
18643TIP3   OH277419   4.470   2.923   3.588  0.2715  0.0821  0.5959
18643TIP3    H177420   4.543   2.975   3.554 -0.3103  0.1098 -0.6696
18643TIP3    H277421   4.405   2.988   3.615  0.7158  0.0594  1.7922
18644TIP3   OH277422   3.022   0.738  14.867 -0.2100  0.2899 -0.2619
18644TIP3    H177423   2.973   0.813  14.834  0.9882  1.7901  1.1773
18644TIP3    H277424   2.977   0.714  14.948 -0.3427 -0.3024 -0.5031
18645TIP3   OH277425   5.590   5.811  13.324  0.4362 -0.0412  0.5791
18645TIP3    H177426   5.649   5.737  13.338  0.1996 -0.2802  0.3305
18645TIP3    H277427   5.527   5.779  13.260 -0.3176  0.0191  1.2815
18646TIP3   OH277428   0.880   6.764  12.207  0.1152 -0.1572  0.4417
18646TIP3    H177429   0.952   6.800  12.260  1.8297 -1.3880 -0.9170
18646TIP3    H277430   0.924   6.712  12.140 -2.0911 -1.0254 -0.4180
18647TIP3   OH277431   5.385   0.866   3.809 -0.1831 -0.1868 -0.6602
18647TIP3    H177432   5.302   0.910   3.827 -0.5942 -1.3205  0.3973
18647TIP3    H277433   5.394   0.802   3.880  1.6713  0.0058 -0.6512
18648TIP3   OH277434   2.298   6.167  16.321  0.1532  0.8037 -0.3586
18648TIP3    H177435   2.271   6.084  16.361  1.2501  0.4300 -0.3581
18648TIP3    H277436   2.364   6.142  16.256  1.4228  1.7586  0.4922
18649TIP3   OH277437   2.178   2.976  13.777  0.0485 -0.1288 -0.6481
18649TIP3    H177438   2.178   3.029  13.697 -0.8950  1.0557  0.0974
18649TIP3    H277439   2.217   2.892  13.751  2.7904  1.3244 -1.5819
18650TIP3   OH277440   5.740   1.408  16.111  0.0092 -0.1688 -0.0412
18650TIP3    H177441   5.713   1.328  16.065  0.1035 -0.2010 -0.0422
18650TIP3    H277442   5.676   1.419  16.181  0.0332 -0.2824 -0.0016
18651TIP3   OH277443   2.956   3.661   4.278 -0.0780  0.0060 -0.3701
18651TIP3    H177444   2.907   3.687   4.356 -0.7367  0.1545 -0.8258
18651TIP3    H277445   2.982   3.570   4.295 -0.8283 -0.2015 -0.2619
18652TIP3   OH277446   3.528   0.295   4.356  0.0013 -0.5994 -0.0853
18652TIP3    H177447   3.550   0.264   4.444  2.5550  0.1048 -0.3860
18652TIP3    H277448   3.579   0.239   4.297 -0.6176 -0.2045 -1.0250
18653TIP3   OH277449   0.798   2.398   0.072  0.3482  0.2237  0.0724
18653TIP3    H177450   0.726   2.352   0.115 -0.8768  0.9675 -1.0983
18653TIP3    H277451   0.808   2.479   0.123  1.7775 -0.7687  1.4716
18654TIP3   OH277452   0.226   2.867   2.463  0.3612 -0.0419  0.0590
18654TIP3    H177453   0.136   2.878   2.433 -0.3400  1.2002  2.3941
18654TIP3    H277454   0.268   2.952   2.449  1.7723 -1.0405 -2.5393
18655TIP3   OH277455   5.939   0.895   1.782  0.3052 -0.3337 -0.5079
18655TIP3    H177456   5.998   0.827   1.814  0.5940  0.3764  0.5670
18655TIP3    H277457   5.994   0.952   1.728  0.4864  0.0107  0.0295
18656TIP3   OH277458   5.652   5.198  13.118  0.0495  0.0727 -0.4014
18656TIP3    H177459   5.600   5.152  13.052 -3.6942 -0.6431  2.7304
18656TIP3    H277460   5.619   5.288  13.117 -1.5150 -0.4076  1.6787
18657TIP3   OH277461   5.555   3.895   0.093  0.1256  0.4536  0.1837
18657TIP3    H177462   5.510   3.971   0.055 -1.0244  0.6891  1.8784
18657TIP3    H277463   5.497   3.867   0.164  1.7921 -0.4234  1.2497
18658TIP3   OH277464   5.737   1.121   6.338 -0.3393  0.3642 -0.6014
18658TIP3    H177465   5.825   1.104   6.305 -0.4260  0.6773 -0.9982
18658TIP3    H277466   5.685   1.047   6.307 -0.3599  0.5162 -0.9370
18659TIP3   OH277467   4.960   3.586  11.047  0.4006  0.2767 -0.5064
18659TIP3    H177468   5.003   3.546  10.971 -1.4576 -2.0571 -0.4693
18659TIP3    H277469   4.920   3.666  11.012 -1.8426 -1.5721 -2.5681
18660TIP3   OH277470   4.056   1.653  12.188 -0.6253  0.5749  0.4449
18660TIP3    H177471   4.138   1.676  12.145  0.1210 -1.1268  0.8543
18660TIP3    H277472   4.025   1.575  12.142 -1.9473  1.1076  0.3910
18661TIP3   OH277473   2.427   2.125   5.978  0.1818 -0.4853  0.0162
18661TIP3    H177474   2.432   2.152   6.069 -0.3741  1.4895 -0.4874
18661TIP3    H277475   2.338   2.092   5.967 -0.1150  0.3092 -0.0467
18662TIP3   OH277476   1.883   2.896  16.787  0.4412 -0.1000  0.5596
18662TIP3    H177477   1.941   2.822  16.765 -0.3362 -0.8796  1.0693
18662TIP3    H277478   1.834   2.866  16.863 -1.0570  0.3044 -0.2162
18663TIP3   OH277479   2.939   3.785   1.959  0.1478  0.2876 -0.1291
18663TIP3    H177480   2.884   3.715   1.994 -1.5687  0.7294 -1.7565
18663TIP3    H277481   2.877   3.845   1.917  1.8936  0.7357 -2.2175
18664TIP3   OH277482   2.604   6.075   0.515 -0.0055 -0.8303  0.1481
18664TIP3    H177483   2.570   6.040   0.432  1.0873  1.9446 -1.6234
18664TIP3    H277484   2.528   6.113   0.558 -0.1402  0.2136 -0.9846
18665TIP3   OH277485   2.678   5.383  11.388 -0.1569 -0.1808 -0.1108
18665TIP3    H177486   2.756   5.425  11.424  0.7827 -1.7710 -0.2160
18665TIP3    H277487   2.648   5.444  11.320  1.1561  0.3347 -0.2604
18666TIP3   OH277488   6.703   2.831  11.804 -0.7548 -0.5249 -0.0329
18666TIP3    H177489   6.792   2.840  11.838 -0.8746  1.1882 -0.0625
18666TIP3    H277490   6.650   2.811  11.881 -0.9757  3.0201  0.9273
18667TIP3   OH277491   6.810   3.026   3.396  0.1553  0.5397  0.1351
18667TIP3    H177492   6.772   3.109   3.367 -0.5209  0.3730  0.5199
18667TIP3    H277493   6.811   2.971   3.318 -0.9435  0.3487  0.2460
18668TIP3   OH277494   0.797   6.482  14.638  0.5900 -0.6687 -0.6060
18668TIP3    H177495   0.868   6.492  14.701  0.9106  0.8257 -1.1495
18668TIP3    H277496   0.840   6.460  14.556  0.6108  1.4684 -1.2381
18669TIP3   OH277497   1.107   5.619  13.987 -0.1266  0.6973 -0.0965
18669TIP3    H177498   1.160   5.556  13.938  0.2453  0.3109  0.7904
18669TIP3    H277499   1.037   5.567  14.026  0.1300  0.8396  0.5694
18670TIP3   OH277500   1.795   3.634   3.892  0.7410 -0.6230  0.0205
18670TIP3    H177501   1.834   3.551   3.919  1.8767 -0.2297 -0.3784
18670TIP3    H277502   1.756   3.615   3.806  1.1344 -0.7125 -0.1409
18671TIP3   OH277503   5.554   5.475   2.719 -0.2889  0.1847  0.9065
18671TIP3    H177504   5.607   5.439   2.648  0.0316  2.7789 -0.2804
18671TIP3    H277505   5.614   5.532   2.767 -0.9836 -0.0974  2.1545
18672TIP3   OH277506   4.386   6.316   5.049 -0.3095  0.1075  0.6854
18672TIP3    H177507   4.299   6.355   5.038 -0.4901  0.0046  1.6543
18672TIP3    H277508   4.371   6.242   5.107 -0.1366 -2.0303 -1.8047
18673TIP3   OH277509   2.373   6.659  15.924 -0.1307  0.1682 -0.8930
18673TIP3    H177510   2.374   6.716  15.847  0.7356  0.8757 -0.3792
18673TIP3    H277511   2.418   6.580  15.897 -2.2647 -0.7638 -1.9418
18674TIP3   OH277512   0.765   0.977   4.859  0.1902  0.0995  0.6062
18674TIP3    H177513   0.857   0.983   4.832 -0.1586 -1.1878 -1.0831
18674TIP3    H277514   0.769   0.951   4.951  1.6006 -2.1321  0.0053
18675TIP3   OH277515   5.614   4.367   5.494 -0.1764  0.1614 -0.3829
18675TIP3    H177516   5.695   4.354   5.445  0.2809 -0.4572  0.5093
18675TIP3    H277517   5.596   4.282   5.535  1.1841  1.3194  3.0594
18676TIP3   OH277518   1.062   2.367  16.662 -0.5649 -0.7858 -0.8913
18676TIP3    H177519   1.033   2.419  16.586 -0.3854  2.5601  1.1358
18676TIP3    H277520   0.982   2.343  16.707 -0.5840 -1.0440 -1.0576
18677TIP3   OH277521   5.822   1.051  15.438  0.9607  0.4903  0.6918
18677TIP3    H177522   5.755   1.044  15.506  1.9691  0.5424  1.7311
18677TIP3    H277523   5.880   0.976  15.453  1.0166  0.3290 -0.3129
18678TIP3   OH277524   6.006   1.981  15.257  0.2212 -0.2871 -0.3840
18678TIP3    H177525   6.052   1.902  15.227 -0.8240 -0.8432 -0.5690
18678TIP3    H277526   6.063   2.018  15.324  1.4444 -0.3703 -1.3362
18679TIP3   OH277527   2.118   3.786  15.128 -0.1133 -0.2013  0.0169
18679TIP3    H177528   2.193   3.730  15.150  0.5839  0.2617 -1.0725
18679TIP3    H277529   2.056   3.772  15.199  0.0539 -2.3258 -0.1892
18680TIP3   OH277530   3.035   5.632   4.208  0.1641  0.5135 -0.3473
18680TIP3    H177531   3.049   5.563   4.272  4.0522  2.2938  1.0151
18680TIP3    H277532   3.102   5.617   4.141  1.6610  3.2353  0.3926
18681TIP3   OH277533   0.154   6.229  15.728  0.0594  0.0365  0.4871
18681TIP3    H177534   0.184   6.145  15.762 -1.5730 -0.8972 -0.2157
18681TIP3    H277535   0.060   6.229  15.745 -0.2513  0.9802 -1.0069
18682TIP3   OH277536   4.157   2.686   6.368 -0.0655 -0.1524 -0.0900
18682TIP3    H177537   4.244   2.646   6.367  0.2524  0.5242 -0.3616
18682TIP3    H277538   4.173   2.774   6.403 -0.5525  0.1750 -0.6858
18683TIP3   OH277539   0.163   5.904  13.007  0.6461  0.0800  0.4684
18683TIP3    H177540   0.234   5.863  12.959  1.9228  1.4340  1.1229
18683TIP3    H277541   0.148   5.846  13.082  1.9910  0.4641  1.0512
18684TIP3   OH277542   4.104   5.292  16.795 -0.3487 -0.0600 -0.7310
18684TIP3    H177543   4.174   5.264  16.736 -0.5197 -0.2499 -0.8458
18684TIP3    H277544   4.068   5.371  16.754  0.9420  1.0683  0.2207
18685TIP3   OH277545   5.721   4.433  13.170  0.5705 -0.1400  0.4547
18685TIP3    H177546   5.652   4.467  13.113  1.7657  0.3774 -0.7752
18685TIP3    H277547   5.759   4.511  13.210  1.4821 -0.2371 -0.1715
18686TIP3   OH277548   0.951   1.629   4.201 -0.1984  0.4805 -0.6688
18686TIP3    H177549   0.987   1.582   4.277  0.9566  2.3707  0.0182
18686TIP3    H277550   0.890   1.567   4.161 -1.7766 -0.2164  2.4895
18687TIP3   OH277551   0.400   6.189  11.191 -0.1247 -0.1383  0.3072
18687TIP3    H177552   0.349   6.165  11.114 -0.3964 -1.2153  0.8032
18687TIP3    H277553   0.394   6.285  11.195 -1.4490 -0.1844 -0.1012
18688TIP3   OH277554   3.588   2.485   3.391 -0.6952  0.4023  0.1244
18688TIP3    H177555   3.671   2.437   3.386 -1.6678 -1.4298  0.4586
18688TIP3    H277556   3.591   2.546   3.317  1.3040  1.0243  0.6529
18689TIP3   OH277557   6.463   6.377  15.203  0.0528  0.6030  0.3570
18689TIP3    H177558   6.556   6.394  15.188 -0.1695 -0.0410 -2.0622
18689TIP3    H277559   6.455   6.281  15.198 -0.9959  0.7503 -1.3799
18690TIP3   OH277560   1.893   3.100   2.800  0.7313  0.2177  0.6744
18690TIP3    H177561   1.816   3.157   2.790 -1.9965 -3.0117  1.6597
18690TIP3    H277562   1.944   3.141   2.870 -0.1537  2.3244  0.1756
18691TIP3   OH277563   5.815   0.924  13.567 -0.2804  0.0663  0.2038
18691TIP3    H177564   5.774   0.990  13.512 -0.7979 -0.2894  0.1567
18691TIP3    H277565   5.903   0.958  13.585 -0.9174  1.3070  1.1246
18692TIP3   OH277566   2.609   2.257  11.879 -0.1390 -0.2735  0.0517
18692TIP3    H177567   2.558   2.271  11.958 -0.3458  0.4539 -0.2041
18692TIP3    H277568   2.700   2.271  11.906  0.0114 -1.9839  0.6057
18693TIP3   OH277569   4.497   4.838  13.848  0.1901 -0.3715  0.6088
18693TIP3    H177570   4.503   4.813  13.756  0.9055  0.2248  0.4778
18693TIP3    H277571   4.563   4.784  13.892 -0.1045 -0.6084  0.7630
18694TIP3   OH277572   4.304   6.381  13.700  0.6726 -0.1874  0.3646
18694TIP3    H177573   4.320   6.400  13.793  1.3274  0.9662  0.0450
18694TIP3    H277574   4.314   6.466  13.657  3.1269 -1.1145 -1.1293
18695TIP3   OH277575   2.343   4.101  16.823  0.2078 -0.7877  0.0431
18695TIP3    H177576   2.375   4.109  16.913 -1.1755 -1.1735  0.6122
18695TIP3    H277577   2.411   4.052  16.777  0.8776 -0.6965  0.9153
18696TIP3   OH277578   0.905   3.544  12.586 -0.0907 -0.0918  0.0768
18696TIP3    H177579   0.831   3.577  12.535  0.7478  1.7080 -0.0450
18696TIP3    H277580   0.955   3.491  12.524 -0.2863  0.2196 -0.3496
18697TIP3   OH277581   4.695   0.846  15.475  0.3408  0.1718 -0.0818
18697TIP3    H177582   4.714   0.940  15.463  2.3531 -0.0330  1.1000
18697TIP3    H277583   4.615   0.844  15.528  0.1434  1.2035 -0.3179
18698TIP3   OH277584   6.553   6.747  11.437 -0.0354  0.3832  0.5922
18698TIP3    H177585   6.629   6.791  11.475 -0.0096 -0.7965  1.9824
18698TIP3    H277586   6.491   6.740  11.510 -0.7000 -0.3708 -0.0353
18699TIP3   OH277587   1.172   5.597  13.189 -0.0609  0.7825  0.4729
18699TIP3    H177588   1.232   5.600  13.263  0.5335  1.5818 -0.0134
18699TIP3    H277589   1.138   5.508  13.188 -0.5660  0.9375  2.0759
18700TIP3   OH277590   4.441   3.384   3.231  0.2486 -0.1442  0.0384
18700TIP3    H177591   4.494   3.412   3.156 -0.4471 -1.4230 -0.9750
18700TIP3    H277592   4.491   3.313   3.271  0.1849 -0.0784  0.2390
18701TIP3   OH277593   5.725   0.277   2.024  0.0464 -0.3681  0.9366
18701TIP3    H177594   5.748   0.325   1.944  1.5713  0.3619  1.7702
18701TIP3    H277595   5.630   0.273   2.022  0.0467 -0.4899 -0.9763
18702TIP3   OH277596   1.124   1.263  11.907  0.5047 -0.0711 -0.6769
18702TIP3    H177597   1.145   1.269  11.814  1.1710 -0.3703 -0.5574
18702TIP3    H277598   1.209   1.267  11.951  0.1063  1.9002  0.0433
18703TIP3   OH277599   0.377   4.627  10.653  0.0406  0.5613 -0.0707
18703TIP3    H177600   0.388   4.617  10.559 -1.5823 -1.1574 -0.1360
18703TIP3    H277601   0.312   4.697  10.662 -1.3565 -0.6338 -0.3727
18704TIP3   OH277602   6.736   0.314  13.148  0.5093  0.0380 -0.2601
18704TIP3    H177603   6.781   0.285  13.227  0.4957  1.2525  0.2078
18704TIP3    H277604   6.672   0.378  13.178  1.1273  1.2094 -1.3349
18705TIP3   OH277605   0.899   6.347   5.454 -0.4511 -0.2327 -0.4309
18705TIP3    H177606   0.944   6.346   5.538  0.4342 -0.0129 -0.8848
18705TIP3    H277607   0.826   6.407   5.466 -1.5820 -1.7707  0.7777
18706TIP3   OH277608   3.128   0.277  16.907  0.2120 -0.0961 -0.5027
18706TIP3    H177609   3.051   0.289  16.964  1.1373 -0.1615  0.8047
18706TIP3    H277610   3.091   0.270  16.819 -1.4266 -1.7055  0.2316
18707TIP3   OH277611   3.936   2.281   3.089 -0.1888 -0.4135  0.0348
18707TIP3    H177612   3.887   2.201   3.108  1.3206 -1.2663  0.5909
18707TIP3    H277613   4.023   2.249   3.064  0.3909  1.0581  0.0970
18708TIP3   OH277614   6.390   4.274  15.531 -0.0110  0.0366  0.1485
18708TIP3    H177615   6.443   4.197  15.551 -0.2312 -0.7676 -2.0429
18708TIP3    H277616   6.301   4.248  15.552 -0.1525 -0.5417 -1.0690
18709TIP3   OH277617   2.772   3.660  14.094  0.4666 -0.0752  0.4821
18709TIP3    H177618   2.685   3.620  14.100  0.6489 -0.6113 -0.2746
18709TIP3    H277619   2.777   3.718  14.170 -1.0989  1.0208 -0.1904
18710TIP3   OH277620   1.158   1.946  12.887  0.8026 -0.1331  0.4531
18710TIP3    H177621   1.164   1.916  12.797  0.6437  0.7982  0.1241
18710TIP3    H277622   1.077   1.906  12.921 -0.7862  1.8585 -0.7561
18711TIP3   OH277623   1.383   1.829   2.036  0.2240 -0.0454 -0.6232
18711TIP3    H177624   1.426   1.840   2.121  1.1868  0.4850 -1.1656
18711TIP3    H277625   1.435   1.764   1.990 -0.0882 -0.0738 -0.9460
18712TIP3   OH277626   2.079   0.946   2.209 -0.3216  0.1462  0.0809
18712TIP3    H177627   2.013   0.877   2.221  0.1439 -0.2969  0.1266
18712TIP3    H277628   2.028   1.023   2.186 -0.8261 -0.3347 -0.4665
18713TIP3   OH277629   6.063   4.709   1.792 -0.3259  0.1771 -0.0161
18713TIP3    H177630   5.972   4.691   1.766 -0.7926  2.3732 -0.1321
18713TIP3    H277631   6.111   4.712   1.709 -0.2619 -0.3267 -0.0028
18714TIP3   OH277632   3.572   1.613   2.868  0.4136  0.1949  0.0333
18714TIP3    H177633   3.500   1.559   2.900 -0.1819  1.2075  0.4502
18714TIP3    H277634   3.634   1.550   2.829  0.8083 -1.0267  2.4621
18715TIP3   OH277635   3.935   3.534  11.777  0.3870  0.0839  0.0109
18715TIP3    H177636   3.992   3.540  11.700  1.4400 -0.4617  0.7409
18715TIP3    H277637   3.871   3.605  11.764  2.1384  1.7269 -0.0647
18716TIP3   OH277638   6.723   1.027   2.150 -0.2135  0.4938  0.3961
18716TIP3    H177639   6.725   0.985   2.236 -0.2212  0.3483  0.3259
18716TIP3    H277640   6.633   1.057   2.141  0.0178  1.3266  0.8283
18717TIP3   OH277641   1.097   0.103  14.922 -0.1122 -0.2364 -0.1829
18717TIP3    H177642   1.015   0.071  14.960 -0.7755 -0.8646 -2.0294
18717TIP3    H277643   1.070   0.176  14.866  0.2516 -1.7216 -2.4100
18718TIP3   OH277644   2.695   4.051  12.792  0.1615  0.2188  0.0240
18718TIP3    H177645   2.634   4.095  12.732 -0.3042 -0.1843  0.2003
18718TIP3    H277646   2.781   4.066  12.753 -0.0635  0.6513 -0.3152
18719TIP3   OH277647   0.435   1.016   4.039 -0.2148 -0.1863  1.0111
18719TIP3    H177648   0.410   1.022   4.131 -3.9611 -0.7056  0.2027
18719TIP3    H277649   0.427   0.922   4.018  1.1421 -0.1568  0.2662
18720TIP3   OH277650   2.195   0.284  15.193 -0.0413 -0.1496 -0.3157
18720TIP3    H177651   2.247   0.302  15.114 -0.0139 -1.7892 -0.7121
18720TIP3    H277652   2.129   0.221  15.165  0.4641 -1.3921  1.1211
18721TIP3   OH277653   3.233   1.983   0.979  0.2562  0.3259 -0.0789
18721TIP3    H177654   3.234   1.941   1.065  0.7762  1.1777  0.3457
18721TIP3    H277655   3.292   1.929   0.925 -1.5543 -1.3629 -0.5101
18722TIP3   OH277656   5.314   5.376   5.236 -0.3894 -1.0515 -0.1840
18722TIP3    H177657   5.285   5.467   5.235 -0.1017 -0.9330 -2.2336
18722TIP3    H277658   5.249   5.330   5.290 -1.1938  0.1521 -0.1021
18723TIP3   OH277659   3.675   2.373  10.861 -0.5439  0.0658 -0.7003
18723TIP3    H177660   3.753   2.363  10.807  0.4505 -0.5325  0.7649
18723TIP3    H277661   3.699   2.441  10.925 -0.3392 -1.6473  1.1529
18724TIP3   OH277662   0.368   0.521  13.691 -0.5879 -0.7071 -0.5776
18724TIP3    H177663   0.349   0.581  13.619 -0.6581  0.4929  0.3817
18724TIP3    H277664   0.443   0.469  13.661  0.4701  0.9207 -0.8993
18725TIP3   OH277665   1.272   2.423   0.019 -0.7069  0.4090 -0.2121
18725TIP3    H177666   1.341   2.379  -0.030  1.3914  0.5222  2.3980
18725TIP3    H277667   1.245   2.496  -0.037 -0.0930 -0.7558 -2.1015
18726TIP3   OH277668   0.712   1.323  15.849  0.0079 -0.0610 -0.8809
18726TIP3    H177669   0.783   1.290  15.794 -0.0535  1.0267 -1.6575
18726TIP3    H277670   0.749   1.400  15.892  0.4691 -1.5845  1.6597
18727TIP3   OH277671   5.588   0.165   3.188 -0.3460 -0.1782 -0.5902
18727TIP3    H177672   5.605   0.136   3.278 -1.6318 -0.5930 -0.4550
18727TIP3    H277673   5.649   0.115   3.134  2.1519  1.7991  0.2183
18728TIP3   OH277674   1.742   3.258   0.378 -0.3232  0.2285 -0.0008
18728TIP3    H177675   1.769   3.207   0.302  0.9310 -2.2041  1.9489
18728TIP3    H277676   1.683   3.200   0.426 -0.9997  1.6618  0.9665
18729TIP3   OH277677   3.089   2.203  13.277 -0.1365  0.4105 -0.4346
18729TIP3    H177678   3.080   2.122  13.226 -1.3455  0.8913 -1.0424
18729TIP3    H277679   3.000   2.225  13.303 -0.0816  2.3899 -1.6604
18730TIP3   OH277680   4.976   4.699   0.396  0.8698 -0.2592 -0.5255
18730TIP3    H177681   4.915   4.766   0.428  0.3141 -0.1547 -1.7318
18730TIP3    H277682   5.063   4.739   0.406  0.6164  0.2475 -0.3267
18731TIP3   OH277683   5.345   0.802  14.366  0.0296 -0.4960  0.3147
18731TIP3    H177684   5.329   0.711  14.340  0.3221 -0.9026  1.4978
18731TIP3    H277685   5.387   0.796  14.452 -0.4530  0.7681  0.6741
18732TIP3   OH277686   3.933   4.128   1.359 -0.2888 -0.0803  0.0827
18732TIP3    H177687   3.838   4.141   1.352 -0.2103  0.4271 -0.0638
18732TIP3    H277688   3.944   4.076   1.439 -0.6148  0.8459  0.7469
18733TIP3   OH277689   1.021   3.219  15.725  0.3556  0.1695 -0.2937
18733TIP3    H177690   1.005   3.153  15.793  0.9820  1.5349  1.2408
18733TIP3    H277691   0.935   3.253  15.703  0.1613 -0.1685 -0.0603
18734TIP3   OH277692   3.482   5.276  16.249 -0.5367  0.3364 -0.3939
18734TIP3    H177693   3.518   5.217  16.315 -1.8913  0.6708  0.6842
18734TIP3    H277694   3.559   5.308  16.201  0.3999 -0.5793  0.4489
18735TIP3   OH277695   6.056   2.572   3.325  0.3181 -0.1459  0.3564
18735TIP3    H177696   6.027   2.596   3.413  0.9734  1.8812  0.0532
18735TIP3    H277697   5.977   2.538   3.282 -0.7229  1.5763  0.8079
18736TIP3   OH277698   0.718   3.193  13.980 -0.5989  0.4007 -0.5265
18736TIP3    H177699   0.733   3.117  14.036  3.3214  1.5031  0.2853
18736TIP3    H277700   0.724   3.160  13.891 -1.8218 -0.6209 -0.2494
18737TIP3   OH277701   0.240   3.269  15.028 -0.6282 -0.0296  0.5566
18737TIP3    H177702   0.327   3.296  15.058 -0.1761 -1.3570  0.4785
18737TIP3    H277703   0.188   3.350  15.029  0.8054  0.9323 -0.1549
18738TIP3   OH277704   5.768   0.939  12.353 -0.0430 -0.2460  0.3886
18738TIP3    H177705   5.732   1.007  12.410  1.7895  1.5720 -0.5089
18738TIP3    H277706   5.814   0.880  12.412 -2.3236 -1.2808  1.2715
18739TIP3   OH277707   4.541   2.211   0.060 -0.2699  0.1483 -0.7019
18739TIP3    H177708   4.604   2.197  -0.010  0.3826  1.4343 -0.4005
18739TIP3    H277709   4.467   2.154   0.038  1.1181 -1.6344 -0.8795
18740TIP3   OH277710   6.561   2.507   1.368 -0.4053  0.3892 -0.2552
18740TIP3    H177711   6.489   2.482   1.310 -0.1024 -2.1880  0.3390
18740TIP3    H277712   6.639   2.476   1.323 -0.1450 -1.4083  1.3191
18741TIP3   OH277713   1.558   0.631   6.160 -0.1865  0.0943 -0.4874
18741TIP3    H177714   1.584   0.543   6.187 -0.1326  0.4404  0.6736
18741TIP3    H277715   1.504   0.663   6.232 -0.2174  1.0047 -0.8983
18742TIP3   OH277716   4.968   1.276  12.773 -0.2417  0.0032 -0.3366
18742TIP3    H177717   4.911   1.353  12.772 -0.4459 -0.0786  1.4569
18742TIP3    H277718   4.919   1.211  12.824  0.6491 -0.7311 -0.3884
18743TIP3   OH277719   2.406   2.379   0.821  0.0256 -0.0111 -0.6674
18743TIP3    H177720   2.370   2.465   0.800  1.1984  0.9900  1.1505
18743TIP3    H277721   2.378   2.362   0.910  2.1276 -0.1721  0.0331
18744TIP3   OH277722   5.507   4.495  12.092 -0.0181 -0.2954 -0.0210
18744TIP3    H177723   5.486   4.582  12.059 -1.6622 -0.7620 -0.3014
18744TIP3    H277724   5.583   4.508  12.149 -0.2956  1.3225  0.0186
18745TIP3   OH277725   0.217   4.669  16.131 -0.2533 -0.4845 -0.0496
18745TIP3    H177726   0.191   4.602  16.194 -2.1298 -0.9722 -1.2359
18745TIP3    H277727   0.260   4.620  16.061  1.3715 -0.0088  0.5835
18746TIP3   OH277728   6.200   5.347  12.101 -0.4942  0.2600 -0.1402
18746TIP3    H177729   6.265   5.386  12.043 -2.7633  0.9259 -2.4699
18746TIP3    H277730   6.201   5.254  12.079 -1.8767  0.6201 -1.9650
18747TIP3   OH277731   4.376   6.712  10.901 -0.2216  0.0086 -0.4370
18747TIP3    H177732   4.470   6.727  10.908 -0.5160  1.5011  1.3342
18747TIP3    H277733   4.365   6.659  10.823  2.0713 -0.0515 -0.7733
18748TIP3   OH277734   1.283   6.452  17.009 -0.0529  0.6825 -0.3892
18748TIP3    H177735   1.361   6.419  16.965  1.0737 -0.9208  2.5147
18748TIP3    H277736   1.253   6.378  17.063 -3.2141  1.4522 -0.8497
18749TIP3   OH277737   2.841   2.869  12.821  0.6902  0.1334  0.0334
18749TIP3    H177738   2.837   2.774  12.836  0.0454  0.0140 -0.8096
18749TIP3    H277739   2.776   2.885  12.753 -0.0733  1.3674  1.0151
18750TIP3   OH277740   3.603   0.266   2.293 -0.9253  0.2201  0.2000
18750TIP3    H177741   3.690   0.284   2.256 -1.1690  0.8714 -0.0659
18750TIP3    H277742   3.556   0.221   2.223 -0.1904 -1.8954  0.9938
18751TIP3   OH277743   6.425   6.109  15.226 -0.5579  0.1918  0.7024
18751TIP3    H177744   6.387   6.082  15.142  0.5501  2.7318 -0.7265
18751TIP3    H277745   6.444   6.026  15.271 -2.4594 -1.2318 -0.9095
18752TIP3   OH277746   4.243   2.415  12.511 -0.2414 -0.6702 -0.7848
18752TIP3    H177747   4.189   2.491  12.531  0.8652  0.0336 -0.3698
18752TIP3    H277748   4.327   2.434  12.552 -0.5211 -2.9971  1.0322
18753TIP3   OH277749   6.765   2.058  13.914  0.3484 -0.5261 -0.1070
18753TIP3    H177750   6.757   1.996  13.987 -2.5234 -0.4733 -0.2764
18753TIP3    H277751   6.752   2.005  13.836  0.2990 -0.0803 -0.4004
18754TIP3   OH277752   5.171   6.521  10.405  0.0425  0.4634 -0.1832
18754TIP3    H177753   5.230   6.505  10.479  0.9994  0.7649 -0.8550
18754TIP3    H277754   5.170   6.616  10.396 -0.2371  0.4372 -0.4328
18755TIP3   OH277755   3.713   1.823   1.048  0.6561 -0.4519  0.3740
18755TIP3    H177756   3.677   1.738   1.021 -0.8385 -0.2721  1.6818
18755TIP3    H277757   3.774   1.846   0.978 -3.7104  0.5324 -3.5297
18756TIP3   OH277758   5.303   1.438   5.479 -0.0778  0.2775 -0.2677
18756TIP3    H177759   5.270   1.505   5.540 -1.4478  0.0535 -0.7449
18756TIP3    H277760   5.230   1.378   5.466 -0.1187  0.7505 -2.7638
18757TIP3   OH277761   6.053   4.251   2.942  0.1048  0.2534 -0.4291
18757TIP3    H177762   5.973   4.274   2.895 -0.6597 -1.4092  0.0049
18757TIP3    H277763   6.072   4.161   2.916  2.4223  0.9146 -1.2874
18758TIP3   OH277764   4.390   4.041   6.054 -0.3694 -0.5312 -0.0878
18758TIP3    H177765   4.480   4.071   6.039 -1.1513  1.6466 -0.8578
18758TIP3    H277766   4.388   4.018   6.147  1.0625 -0.9669 -0.1348
18759TIP3   OH277767   2.666   5.013   5.753 -0.3537  0.8403 -0.0234
18759TIP3    H177768   2.635   5.101   5.728  1.5479  1.6715  0.3648
18759TIP3    H277769   2.752   5.005   5.712 -0.4585 -0.8266  0.0254
18760TIP3   OH277770   0.778   5.605   5.793 -0.3035 -0.4941  0.5160
18760TIP3    H177771   0.841   5.677   5.795  0.3643 -1.0538 -0.3193
18760TIP3    H277772   0.819   5.535   5.844 -0.3159 -0.8124  0.0870
18761TIP3   OH277773   4.555   0.831  14.467  0.1349 -0.1729  0.6230
18761TIP3    H177774   4.635   0.877  14.491 -0.5808  2.3395 -1.2875
18761TIP3    H277775   4.498   0.900  14.431 -1.8788 -2.2768 -0.4915
18762TIP3   OH277776   4.469   4.064  11.878 -0.1805 -0.7453  0.1615
18762TIP3    H177777   4.562   4.048  11.863  0.2591  1.4633  0.1647
18762TIP3    H277778   4.467   4.139  11.939 -1.8673  1.5913 -2.5150
18763TIP3   OH277779   1.057   4.027  12.895 -0.7228 -0.2654  0.4688
18763TIP3    H177780   1.106   4.094  12.942  1.4057 -2.0087  0.9412
18763TIP3    H277781   1.032   4.068  12.813  1.8153  0.7082  0.1019
18764TIP3   OH277782   5.738   5.742  15.385  0.2200  0.2248  0.2205
18764TIP3    H177783   5.807   5.682  15.354  2.5491  2.2382  1.2337
18764TIP3    H277784   5.701   5.698  15.462  1.7327 -0.0690  0.8195
18765TIP3   OH277785   6.460   0.993   3.656  0.1068  0.2775 -0.1671
18765TIP3    H177786   6.464   0.971   3.563 -0.3657  0.4118 -0.2194
18765TIP3    H277787   6.411   0.921   3.696  2.6036 -1.2215  0.4340
18766TIP3   OH277788   1.147   4.239  14.212 -0.3863 -0.0959 -0.3827
18766TIP3    H177789   1.230   4.279  14.185 -0.6028  0.2454 -0.5537
18766TIP3    H277790   1.171   4.151  14.241  0.0824  0.1150 -0.1146
18767TIP3   OH277791   1.048   1.952  11.018  0.0689 -0.6303  0.0875
18767TIP3    H177792   1.133   1.943  10.975  0.1823  1.8032 -0.3565
18767TIP3    H277793   0.986   1.968  10.947 -0.9319 -2.8651  0.3541
18768TIP3   OH277794   3.094   4.009   5.371 -0.1476  0.6126  0.1554
18768TIP3    H177795   3.168   4.010   5.310  0.6014  2.0247  1.0371
18768TIP3    H277796   3.076   3.916   5.384  2.3144  0.1502  0.8862
18769TIP3   OH277797   2.034   4.616  12.301 -0.2123  0.0721 -0.5774
18769TIP3    H177798   2.028   4.642  12.393 -0.3867 -2.0326  0.0475
18769TIP3    H277799   2.092   4.681  12.262  1.3204  0.0156  1.4235
18770TIP3   OH277800   5.170   0.486  16.225 -0.5565 -0.4052 -0.2718
18770TIP3    H177801   5.249   0.488  16.279 -0.0304  0.1216 -1.0349
18770TIP3    H277802   5.188   0.420  16.158 -0.0889  0.8213 -1.4039
18771TIP3   OH277803   6.702   2.941   1.899 -0.2241  0.2666  0.2188
18771TIP3    H177804   6.669   3.030   1.894 -0.3422  0.2810  1.1683
18771TIP3    H277805   6.794   2.947   1.874 -0.2809  0.6161  0.0946
18772TIP3   OH277806   3.275   0.266  14.273  0.4280  0.5392 -0.1723
18772TIP3    H177807   3.240   0.326  14.339 -0.3823 -0.2882  0.1836
18772TIP3    H277808   3.336   0.211  14.322  1.3982  1.2419 -0.5598
18773TIP3   OH277809   2.214   6.823   3.652  0.3875  0.3573  0.1237
18773TIP3    H177810   2.238   6.895   3.711 -1.9076 -0.2952  2.0151
18773TIP3    H277811   2.120   6.811   3.665  0.7035 -3.2587  0.3198
18774TIP3   OH277812   1.986   1.439   0.664 -0.1313  0.5085  0.1553
18774TIP3    H177813   1.976   1.346   0.643  1.3285  0.5525 -0.8601
18774TIP3    H277814   1.896   1.472   0.670 -0.7323 -1.3417  2.4700
18775TIP3   OH277815   5.550   1.629  16.777  0.6299 -0.3022  0.1840
18775TIP3    H177816   5.565   1.696  16.843 -0.4033 -0.4450  0.5892
18775TIP3    H277817   5.455   1.617  16.776  0.6715 -0.6594 -0.9773
18776TIP3   OH277818   5.968   0.109   1.869 -0.3775 -0.0075 -0.3133
18776TIP3    H177819   5.874   0.103   1.851 -0.3101 -2.6021 -0.1802
18776TIP3    H277820   6.003   0.025   1.842  1.9841  0.9782 -0.5561
18777TIP3   OH277821   3.572   0.866  16.387  0.1602  0.0599  0.4298
18777TIP3    H177822   3.660   0.867  16.426  1.5871  1.2925 -2.4671
18777TIP3    H277823   3.560   0.776  16.357  0.2311 -0.2296  1.2680
18778TIP3   OH277824   1.981   1.604   4.370  0.0270  0.1174 -0.2208
18778TIP3    H177825   2.061   1.655   4.387 -1.2353  1.4935  2.1974
18778TIP3    H277826   1.961   1.622   4.278  1.9235  0.5539 -0.6021
18779TIP3   OH277827   4.920   1.411   6.466 -0.5165 -0.1143  0.6668
18779TIP3    H177828   4.831   1.441   6.445 -0.7561 -1.2024  0.1013
18779TIP3    H277829   4.908   1.345   6.534 -0.1144 -0.0734  0.7807
18780TIP3   OH277830   0.325   0.464  15.697 -0.8902 -0.2092 -0.1854
18780TIP3    H177831   0.326   0.548  15.650  0.4001  0.2430  0.6165
18780TIP3    H277832   0.411   0.426  15.681 -1.2345 -1.0859 -0.0011
18781TIP3   OH277833   5.614   1.676  15.494  0.3900  0.0112  0.0831
18781TIP3    H177834   5.644   1.760  15.460  0.4551  0.5518  1.4183
18781TIP3    H277835   5.523   1.669  15.464  0.6597  0.1189 -0.7931
18782TIP3   OH277836   6.369   4.070   3.909 -0.3252 -0.4940  0.7026
18782TIP3    H177837   6.387   4.001   3.844 -0.9362 -0.2843  0.3006
18782TIP3    H277838   6.279   4.098   3.890 -0.8507 -1.0419  2.2210
18783TIP3   OH277839   6.349   5.138   3.935  0.2814 -0.2175 -0.0657
18783TIP3    H177840   6.326   5.093   3.853  1.6459 -0.5271 -0.3082
18783TIP3    H277841   6.366   5.229   3.908 -0.2605 -0.0749  0.0548
18784TIP3   OH277842   3.610   0.424   1.984  0.5411 -0.0951 -0.4151
18784TIP3    H177843   3.666   0.351   1.960 -0.3184 -0.5887 -0.9655
18784TIP3    H277844   3.578   0.459   1.901  2.5289  2.2404 -0.3205
18785TIP3   OH277845   1.580   5.881   4.483 -0.0678 -0.2120 -0.3431
18785TIP3    H177846   1.579   5.836   4.399  0.0126  1.4687 -1.2866
18785TIP3    H277847   1.668   5.917   4.490 -0.0865 -0.2914  0.4612
18786TIP3   OH277848   0.015   5.789   4.757  0.2873 -0.4744 -0.0000
18786TIP3    H177849  -0.030   5.847   4.819  2.4004 -0.1542  1.3365
18786TIP3    H277850   0.096   5.835   4.735  1.5097 -2.3693  0.2291
18787TIP3   OH277851   1.975   0.030   2.520  0.2171  0.9553 -0.3946
18787TIP3    H177852   1.992   0.119   2.488  0.8905  1.2199  0.6455
18787TIP3    H277853   1.889   0.036   2.563  1.3353  1.8003  1.9362
18788TIP3   OH277854   5.043   0.868  14.402  0.0759 -0.0103  0.1380
18788TIP3    H177855   5.134   0.851  14.376 -0.2521 -1.5580 -0.0992
18788TIP3    H277856   5.036   0.963  14.401  1.4832  0.1260 -0.5970
18789TIP3   OH277857   1.149   6.397   2.063  0.0620  0.1693 -0.0585
18789TIP3    H177858   1.169   6.309   2.031 -1.7431  0.3046 -1.8239
18789TIP3    H277859   1.104   6.383   2.146 -1.3730 -0.7281 -0.9317
18790TIP3   OH277860   3.717   2.863   3.000  0.0373  0.4378 -0.0566
18790TIP3    H177861   3.758   2.921   2.936 -2.6340  2.7753  0.1429
18790TIP3    H277862   3.720   2.912   3.083  0.5863 -1.1599  0.9203
18791TIP3   OH277863   0.552   2.279   0.129 -0.8982  0.6571 -0.0687
18791TIP3    H177864   0.486   2.297   0.063 -0.3590  0.7249 -0.6003
18791TIP3    H277865   0.517   2.207   0.180 -2.4434  2.1931  1.1589
18792TIP3   OH277866   4.030   4.095   0.843  0.0369  0.1491 -0.3964
18792TIP3    H177867   3.977   4.142   0.908 -0.0031  1.6361 -1.4293
18792TIP3    H277868   4.087   4.038   0.894  0.4036  1.6782  1.0053
18793TIP3   OH277869   1.388   1.657   4.081 -0.3115  0.1254  0.0527
18793TIP3    H177870   1.421   1.707   4.156  0.1756 -1.2822  0.8234
18793TIP3    H277871   1.457   1.593   4.062 -2.2815 -2.6261  1.4442
18794TIP3   OH277872   4.549   3.235  14.490 -0.1349  0.1998 -0.5759
18794TIP3    H177873   4.527   3.287  14.568 -0.9146  1.4279 -1.5672
18794TIP3    H277874   4.643   3.251  14.477 -0.0986  0.3545 -0.1472
18795TIP3   OH277875   2.670   2.922   2.134  0.1005  0.2882 -0.6399
18795TIP3    H177876   2.738   2.989   2.138  0.4296 -0.0781  0.1229
18795TIP3    H277877   2.594   2.967   2.098  0.0597  1.3029  0.6449
18796TIP3   OH277878   0.836   6.176   4.897  0.9759  0.4570 -0.1049
18796TIP3    H177879   0.818   6.087   4.926  0.1139  0.0361 -1.8042
18796TIP3    H277880   0.861   6.223   4.977  2.7126 -1.5735  0.6337
18797TIP3   OH277881   1.308   1.902  11.258 -0.0201 -0.0321 -0.5761
18797TIP3    H177882   1.339   1.812  11.267 -1.0007 -0.4811 -1.4132
18797TIP3    H277883   1.331   1.944  11.341  1.8266 -0.6061 -0.7478
18798TIP3   OH277884   5.124   6.369  11.228  0.0877 -0.5376  0.1530
18798TIP3    H177885   5.110   6.447  11.281  1.8128 -0.4786  0.5556
18798TIP3    H277886   5.201   6.389  11.175  0.4124 -1.8882  0.0917
18799TIP3   OH277887   3.743   5.081   0.781  0.0556 -0.1597  0.3979
18799TIP3    H177888   3.772   5.113   0.866  1.9661 -3.0172  0.9712
18799TIP3    H277889   3.821   5.083   0.727 -0.6839 -0.2004 -0.7001
18800TIP3   OH277890   0.335   1.899   1.323 -0.1661  0.7152  0.2223
18800TIP3    H177891   0.335   1.812   1.363  0.9813 -0.5228 -2.2778
18800TIP3    H277892   0.410   1.943   1.363  0.3801 -0.1440  0.1782
18801TIP3   OH277893   0.705   4.216  12.715  0.0211 -0.5407 -0.2496
18801TIP3    H177894   0.651   4.275  12.662 -2.6162  0.2520  2.9962
18801TIP3    H277895   0.764   4.275  12.762  0.6694 -1.0134 -0.4505
18802TIP3   OH277896   0.126   1.794  13.699 -0.5867  0.2081 -0.6949
18802TIP3    H177897   0.175   1.768  13.776 -0.7768  2.9127  0.4350
18802TIP3    H277898   0.040   1.753  13.710 -0.3111 -0.1850  0.0278
18803TIP3   OH277899   1.957   2.313   4.601 -0.1638 -0.3116  0.3239
18803TIP3    H177900   1.931   2.343   4.688  3.3509 -1.1606  1.8410
18803TIP3    H277901   2.051   2.299   4.608  0.0677 -1.5456 -3.3305
18804TIP3   OH277902   6.348   1.132   0.922  0.1646  0.3451  0.5853
18804TIP3    H177903   6.349   1.128   0.826  1.1375  1.4895  0.5313
18804TIP3    H277904   6.369   1.223   0.943  1.3623 -0.2008  1.9188
18805TIP3   OH277905   3.056   1.232   2.145 -0.1254 -0.1093  0.3690
18805TIP3    H177906   3.110   1.311   2.155 -0.5933  0.1497  0.8565
18805TIP3    H277907   3.116   1.167   2.108  0.5861  0.1126  1.1034
18806TIP3   OH277908   3.934   0.247   4.788 -0.0079  0.1530  0.1847
18806TIP3    H177909   4.007   0.302   4.815 -0.1746  0.4281  0.0856
18806TIP3    H277910   3.930   0.259   4.693  0.1442 -0.2670  0.1249
18807TIP3   OH277911   3.243   5.521   2.046 -0.6152 -0.1565 -0.2044
18807TIP3    H177912   3.247   5.478   1.961 -1.5137  0.3224 -0.4903
18807TIP3    H277913   3.257   5.450   2.109 -0.7890 -0.6531 -0.7169
18808TIP3   OH277914   2.884   1.598  11.772 -0.4855 -0.2890  0.2530
18808TIP3    H177915   2.976   1.595  11.799 -0.2784  0.1225 -0.4021
18808TIP3    H277916   2.883   1.563  11.683 -0.4516  2.6942 -1.0481
18809TIP3   OH277917   5.973   2.107   3.751  0.2263  0.5287 -0.2539
18809TIP3    H177918   5.890   2.131   3.710 -0.1138 -1.2119 -0.6463
18809TIP3    H277919   6.035   2.101   3.677  0.3006  0.1672 -0.1598
18810TIP3   OH277920   5.995   2.047  16.828  0.2533 -0.2717 -0.6937
18810TIP3    H177921   5.911   2.072  16.868  0.8531  1.7056 -0.5355
18810TIP3    H277922   5.984   2.065  16.735  0.5851  0.3443 -0.6237
18811TIP3   OH277923   0.940   6.073   5.422 -0.5307 -0.1764 -0.4038
18811TIP3    H177924   0.921   6.167   5.433 -0.4138 -0.0875 -0.9476
18811TIP3    H277925   1.035   6.067   5.419 -0.1774 -0.8283  4.2052
18812TIP3   OH277926   4.188   5.755  13.714  0.2253 -0.0730  0.3568
18812TIP3    H177927   4.204   5.667  13.681 -1.2597 -0.3797  0.4005
18812TIP3    H277928   4.170   5.744  13.807  0.3499  0.3203  0.4307
18813TIP3   OH277929   3.238   2.508  14.022  0.2161  0.6090 -0.1204
18813TIP3    H177930   3.316   2.547  14.059  1.1362 -0.5668 -0.7336
18813TIP3    H277931   3.268   2.464  13.942 -1.2833  1.1316 -1.0180
18814TIP3   OH277932   2.177   0.384  12.676 -0.1516  0.7867  0.5348
18814TIP3    H177933   2.129   0.393  12.593  1.0875 -0.1302 -0.3234
18814TIP3    H277934   2.204   0.292  12.678  1.6228  1.2661  0.9118
18815TIP3   OH277935   1.564   2.566  15.233  0.4997  0.2672  0.8361
18815TIP3    H177936   1.507   2.599  15.302  1.0229 -1.2992  2.1047
18815TIP3    H277937   1.653   2.585  15.264  0.7285  1.4723 -0.4663
18816TIP3   OH277938   0.364   2.666   4.848 -0.4299 -0.0169 -0.2416
18816TIP3    H177939   0.347   2.723   4.924 -0.6824 -0.7904  0.2991
18816TIP3    H277940   0.284   2.613   4.840 -0.1992 -0.2899 -0.7389
18817TIP3   OH277941   0.303   6.314   3.361  0.5062  0.1289 -0.1237
18817TIP3    H177942   0.237   6.384   3.354  1.1481  0.8878  1.1070
18817TIP3    H277943   0.261   6.249   3.417 -0.4782 -0.9893 -2.0532
18818TIP3   OH277944   3.533   3.792   1.133  0.1247  0.0643  0.1754
18818TIP3    H177945   3.578   3.818   1.213 -0.2114  1.6466 -0.1283
18818TIP3    H277946   3.565   3.851   1.066 -0.5108 -0.4502 -0.6068
18819TIP3   OH277947   5.912   4.513  13.479 -0.0997 -0.2350 -0.0204
18819TIP3    H177948   5.907   4.423  13.511  1.6008 -0.6361 -0.7700
18819TIP3    H277949   5.914   4.504  13.383  0.2267  0.5755 -0.0983
18820TIP3   OH277950   3.694   3.919  13.464 -0.4278 -0.1773  0.2713
18820TIP3    H177951   3.619   3.879  13.420  0.5939 -2.5281  0.5344
18820TIP3    H277952   3.701   4.006  13.425 -3.0461 -0.0337 -0.0173
18821TIP3   OH277953   0.504   2.031  13.104  0.4955 -0.2933  0.3003
18821TIP3    H177954   0.564   2.085  13.053 -1.2458  1.5607  0.0643
18821TIP3    H277955   0.423   2.031  13.053 -0.7190  0.0288  2.1363
18822TIP3   OH277956   5.936   5.720  14.547  0.2288 -0.4982 -0.1428
18822TIP3    H177957   5.940   5.804  14.592 -0.4038 -1.3650  1.6222
18822TIP3    H277958   5.844   5.709  14.524  0.4163 -0.4259 -0.9468
18823TIP3   OH277959   1.742   1.265  14.624  0.3285 -0.1317 -0.1037
18823TIP3    H177960   1.761   1.353  14.592  1.0297 -1.1293 -2.6799
18823TIP3    H277961   1.662   1.239  14.578  0.0357 -0.8061  0.7539
18824TIP3   OH277962   0.479   1.305   3.946 -0.3717  0.8507 -0.2933
18824TIP3    H177963   0.403   1.252   3.970  0.4524 -1.1455 -1.8551
18824TIP3    H277964   0.550   1.242   3.935  2.0789  2.7424  2.7538
18825TIP3   OH277965   2.917   5.755  10.667 -0.3357  0.5454 -0.1678
18825TIP3    H177966   2.850   5.695  10.699 -0.0556  0.0414 -0.5035
18825TIP3    H277967   2.891   5.841  10.701 -1.1719  0.3709 -0.3389
18826TIP3   OH277968   1.945   1.778  13.431 -0.1622 -0.7539  0.0269
18826TIP3    H177969   2.025   1.773  13.484  1.8473 -1.5244 -2.8313
18826TIP3    H277970   1.922   1.687  13.414  0.3993 -0.5720 -1.9351
18827TIP3   OH277971   4.167   6.133  14.286  0.2495  0.2455 -0.1472
18827TIP3    H177972   4.214   6.197  14.339 -0.2331  0.1206  0.4477
18827TIP3    H277973   4.223   6.118  14.210  1.3027 -0.0980  0.6675
18828TIP3   OH277974   0.269   4.380  11.559 -0.4762 -0.0411 -0.1821
18828TIP3    H177975   0.259   4.472  11.581 -1.4419  0.3536 -2.0157
18828TIP3    H277976   0.335   4.378  11.489 -0.5527 -0.7058 -0.2489
18829TIP3   OH277977   3.061   1.999   3.247 -0.1991  0.3258 -0.8323
18829TIP3    H177978   3.047   1.947   3.326 -0.0901  0.6121 -0.6233
18829TIP3    H277979   3.006   1.958   3.180 -1.7679  1.1999 -0.1316
18830TIP3   OH277980   3.989   1.829   1.883 -0.0773  0.2624  0.2867
18830TIP3    H177981   3.963   1.874   1.963 -2.3897  0.3499 -0.4327
18830TIP3    H277982   3.994   1.898   1.816 -1.8579 -0.2340 -0.4188
18831TIP3   OH277983   2.860   0.687   2.417 -0.3621  0.0990  0.0429
18831TIP3    H177984   2.853   0.601   2.458 -3.2841 -0.5209 -1.4720
18831TIP3    H277985   2.901   0.670   2.332  0.6189  0.4849  0.4356
18832TIP3   OH277986   5.396   3.214  11.926  0.4258 -0.0891 -0.5385
18832TIP3    H177987   5.479   3.234  11.882  1.3679 -0.5386  0.9473
18832TIP3    H277988   5.353   3.151  11.868  1.8044 -0.9728 -0.6575
18833TIP3   OH277989   3.463   4.774   0.970  0.2897 -0.3417  0.6392
18833TIP3    H177990   3.384   4.722   0.986 -0.2138 -0.1691 -1.0790
18833TIP3    H277991   3.437   4.864   0.990  0.1289 -0.3232  0.3537
18834TIP3   OH277992   0.755   4.031  15.447  0.4563  0.2473  0.4052
18834TIP3    H177993   0.756   3.959  15.384 -1.3732  1.0715 -0.6429
18834TIP3    H277994   0.769   4.110  15.394  0.2035  0.8535  1.2181
18835TIP3   OH277995   3.936   1.723   3.134  0.8615 -0.0922  0.3232
18835TIP3    H177996   3.864   1.774   3.095  0.8914 -0.1147  0.2367
18835TIP3    H277997   3.940   1.644   3.080 -0.7088 -1.2964  1.8788
18836TIP3   OH277998   3.944   3.272  13.210  0.2402 -0.2638  0.6983
18836TIP3    H177999   3.931   3.296  13.118 -2.6381 -0.1583  1.0436
18836TIP3    H278000   3.917   3.180  13.215  1.1090 -0.4957  1.3132
18837TIP3   OH278001   0.269   4.935  13.404  0.0688 -0.5729 -0.6843
18837TIP3    H178002   0.302   4.984  13.479 -0.6500 -1.1307  0.0163
18837TIP3    H278003   0.319   4.968  13.329 -0.2939  1.1054 -0.2082
18838TIP3   OH278004   6.326   1.134   3.836 -0.1614  0.8728  0.2747
18838TIP3    H178005   6.388   1.083   3.784 -1.2954  0.7531 -1.0285
18838TIP3    H278006   6.340   1.104   3.926  0.4489 -0.4304 -0.2246
18839TIP3   OH278007   2.467   5.063   6.807  0.1465 -0.1014 -0.2975
18839TIP3    H178008   2.404   5.118   6.854 -1.2731 -2.0952  0.2525
18839TIP3    H278009   2.524   5.028   6.876 -0.2641 -0.9378 -0.3752
18840TIP3   OH278010   0.927   4.518  12.258  0.6816 -1.1604 -0.1842
18840TIP3    H178011   0.931   4.441  12.315  4.1226 -1.3494 -0.4520
18840TIP3    H278012   0.971   4.490  12.177 -0.4040  0.3254 -1.3476
18841TIP3   OH278013   6.025   0.870   5.685 -0.2441  0.6983  0.4318
18841TIP3    H178014   6.110   0.908   5.709  0.3388  0.0083 -0.4807
18841TIP3    H278015   6.047   0.787   5.643 -1.2721  1.3235 -1.4296
18842TIP3   OH278016   0.601   5.351  12.799 -0.0628  0.3972 -0.0210
18842TIP3    H178017   0.567   5.374  12.885 -0.5783  2.6073 -0.7631
18842TIP3    H278018   0.696   5.347  12.811 -0.1288  0.7432  0.6344
18843TIP3   OH278019   5.108   4.862  16.275  0.4557 -0.5588  0.1977
18843TIP3    H178020   5.194   4.856  16.233  0.2243  2.2029 -0.8383
18843TIP3    H278021   5.045   4.847  16.204  0.0754 -0.1421  0.4390
18844TIP3   OH278022   4.792   2.519  14.422  0.1329  0.1827  0.0489
18844TIP3    H178023   4.732   2.488  14.354 -0.2172  1.2694 -0.1616
18844TIP3    H278024   4.735   2.550  14.492  0.4955 -1.5528  1.1603
18845TIP3   OH278025   1.546   1.547  15.426 -0.3263 -0.5972  0.0804
18845TIP3    H178026   1.474   1.588  15.474 -1.9044 -0.7153 -2.0885
18845TIP3    H278027   1.618   1.610  15.435 -0.6240 -0.4739  2.2831
18846TIP3   OH278028   2.975   6.265  12.590 -0.2587 -0.3681  0.0024
18846TIP3    H178029   2.953   6.288  12.680  0.1089 -2.0865  0.5787
18846TIP3    H278030   2.950   6.341  12.538  0.1490  0.9300  1.6371
18847TIP3   OH278031   0.748   1.307   0.722  0.5219 -0.0387  0.3772
18847TIP3    H178032   0.822   1.334   0.776 -0.7075  2.1893  1.0751
18847TIP3    H278033   0.787   1.280   0.639  2.1211  1.5319  0.5628
18848TIP3   OH278034   0.380   0.085   5.197  0.1783  0.6226  0.8097
18848TIP3    H178035   0.443   0.014   5.208 -1.2444 -1.1140 -1.2673
18848TIP3    H278036   0.355   0.081   5.105 -1.2151  2.7626  1.0117
18849TIP3   OH278037   1.296   1.037   4.463 -0.0667 -0.3770  1.1904
18849TIP3    H178038   1.290   0.944   4.484  0.1901 -0.1561  2.3005
18849TIP3    H278039   1.352   1.073   4.532 -1.3209  0.8541  1.5944
18850TIP3   OH278040   5.777   4.663  16.367 -0.3438 -0.0912  0.5326
18850TIP3    H178041   5.840   4.597  16.340  0.3080  0.5718  0.3944
18850TIP3    H278042   5.709   4.614  16.413 -0.4182 -0.9797 -0.4949
18851TIP3   OH278043   6.366   3.755  16.392  0.4469  0.0043  0.0171
18851TIP3    H178044   6.334   3.674  16.433 -0.4334  0.2991 -0.0562
18851TIP3    H278045   6.428   3.726  16.325  0.2036 -0.6004  0.0502
18852TIP3   OH278046   6.374   2.116  13.680 -0.3659  0.0354  0.1934
18852TIP3    H178047   6.438   2.168  13.729 -0.8407 -0.6152  1.5720
18852TIP3    H278048   6.425   2.050  13.634  0.0587  0.3203  0.2572
18853TIP3   OH278049   3.642   3.297   0.365  0.6503 -0.0736  0.0565
18853TIP3    H178050   3.577   3.265   0.302  0.7882  0.5774 -0.4290
18853TIP3    H278051   3.710   3.230   0.366  0.1148 -0.6305  0.3631
18854TIP3   OH278052   2.218   5.695  15.194 -0.1199 -0.1049 -0.2572
18854TIP3    H178053   2.163   5.618  15.206  1.2571 -1.1259 -0.2910
18854TIP3    H278054   2.273   5.698  15.271 -0.6249  1.2874  0.0822
18855TIP3   OH278055   5.399   3.961   5.224 -0.5864  0.8647  0.0822
18855TIP3    H178056   5.382   3.993   5.136 -0.5000 -0.1204 -0.3021
18855TIP3    H278057   5.313   3.946   5.262 -0.6466 -0.7123 -0.5975
18856TIP3   OH278058   3.433   0.481   0.864 -0.2147  0.3912 -0.9255
18856TIP3    H178059   3.404   0.571   0.880 -0.4534  0.2215 -0.3638
18856TIP3    H278060   3.353   0.429   0.872 -0.1220  0.1596 -1.5065
18857TIP3   OH278061   2.066   2.585  12.166 -0.3436 -0.3230  0.2464
18857TIP3    H178062   2.161   2.593  12.166 -0.4383  2.1416 -1.8337
18857TIP3    H278063   2.045   2.536  12.086 -0.8607  1.2601 -0.6294
18858TIP3   OH278064   2.195   1.183  14.627 -0.7127  0.5043 -0.0123
18858TIP3    H178065   2.111   1.174  14.672 -1.3572 -2.8415 -1.5481
18858TIP3    H278066   2.251   1.227  14.690 -3.0915  1.2188  1.7851
18859TIP3   OH278067   2.531   2.593   2.439  0.1026  0.6198  0.4937
18859TIP3    H178068   2.529   2.600   2.534  0.4177 -0.7849  0.6315
18859TIP3    H278069   2.476   2.517   2.420  0.8912  0.2425 -0.3547
18860TIP3   OH278070   4.750   1.910   1.652 -0.0345  0.3546  0.7805
18860TIP3    H178071   4.760   1.837   1.714 -2.2934  2.0541  3.3922
18860TIP3    H278072   4.802   1.981   1.690  1.4707  0.4441 -1.2967
18861TIP3   OH278073   6.794   3.337  10.691 -0.1523  0.7633 -0.2758
18861TIP3    H178074   6.732   3.400  10.726  0.7735  0.4386  2.1442
18861TIP3    H278075   6.865   3.390  10.654  0.5820  1.2133  1.6674
18862TIP3   OH278076   3.425   5.998   1.005 -0.2232 -0.2301 -0.3262
18862TIP3    H178077   3.399   5.925   1.062  0.8803 -1.4680 -1.3501
18862TIP3    H278078   3.401   5.969   0.917 -1.5116  1.4755 -0.5954
18863TIP3   OH278079   0.329   0.689   0.026 -0.3603  0.3024 -0.4289
18863TIP3    H178080   0.294   0.764   0.074 -1.0795 -0.2375 -0.0921
18863TIP3    H278081   0.409   0.722  -0.016  1.1896  0.4357  2.3520
18864TIP3   OH278082   2.939   5.149   3.416 -0.2263 -0.2184  0.0636
18864TIP3    H178083   2.989   5.088   3.469  0.7302  0.3640 -0.1405
18864TIP3    H278084   3.002   5.216   3.390 -0.5935 -0.5879 -1.9724
18865TIP3   OH278085   0.159   2.203  13.590  0.0412  0.3428  0.4119
18865TIP3    H178086   0.196   2.184  13.504 -1.1996 -0.9104  0.1321
18865TIP3    H278087   0.207   2.145  13.650 -0.2529 -0.0205  0.3015
18866TIP3   OH278088   1.235   4.385   4.022 -0.4807  0.1113  0.2641
18866TIP3    H178089   1.184   4.305   4.038 -0.4383  0.1476  0.5750
18866TIP3    H278090   1.220   4.404   3.929  1.4985 -1.6522 -0.5021
18867TIP3   OH278091   5.111   6.683   3.560 -0.2208  0.0912 -0.2513
18867TIP3    H178092   5.035   6.697   3.617  0.5609  1.9367  0.3908
18867TIP3    H278093   5.094   6.736   3.483 -0.5153 -1.1281 -1.0516
18868TIP3   OH278094   3.961   3.316   2.773 -0.0363  0.0139  0.2065
18868TIP3    H178095   3.969   3.267   2.691  1.5288 -0.4132  0.5833
18868TIP3    H278096   4.043   3.365   2.781 -1.1102  1.8735  0.3993
18869TIP3   OH278097   5.739   3.283  17.075 -0.1071  0.3045 -0.3089
18869TIP3    H178098   5.711   3.213  17.134 -2.9174  0.5419 -1.2440
18869TIP3    H278099   5.834   3.290  17.090  0.0705 -2.8467  0.6801
18870TIP3   OH278100   1.179   6.263  14.293  0.0067 -0.2474 -0.1870
18870TIP3    H178101   1.160   6.169  14.295 -0.0446 -0.2716 -1.2194
18870TIP3    H278102   1.113   6.302  14.350  0.5653 -0.9133  0.9385
18871TIP3   OH278103   5.076   1.758  12.891  0.0191  0.6343 -0.2136
18871TIP3    H178104   5.094   1.844  12.929 -1.1210  0.9700 -0.3807
18871TIP3    H278105   5.030   1.778  12.809 -0.8810 -0.1318  0.0809
18872TIP3   OH278106   5.728   6.758  13.280 -0.0028 -0.4840 -0.0968
18872TIP3    H178107   5.777   6.684  13.314 -1.1430 -1.1243  0.1878
18872TIP3    H278108   5.658   6.772  13.343 -0.4359  0.1534 -0.7054
18873TIP3   OH278109   4.438   4.419  11.718  0.6389  0.3958 -0.3027
18873TIP3    H178110   4.478   4.449  11.799 -0.5137  0.6971  0.1791
18873TIP3    H278111   4.344   4.425  11.734  0.3878  0.5034 -1.6849
18874TIP3   OH278112   3.285   0.067  16.750  0.4636  0.2037  0.4837
18874TIP3    H178113   3.209   0.038  16.698  0.3354 -0.8279  1.2283
18874TIP3    H278114   3.317   0.144  16.703 -2.4079  2.1094  1.3578
18875TIP3   OH278115   5.358   6.297  12.829 -0.1964 -0.1884  0.2392
18875TIP3    H178116   5.325   6.382  12.799  0.2555 -0.3866 -0.8775
18875TIP3    H278117   5.281   6.241  12.833 -0.4869  0.2539  0.9112
18876TIP3   OH278118   5.690   3.130   2.290  0.6958  0.0323  0.2164
18876TIP3    H178119   5.743   3.182   2.351 -1.4037  0.6821  1.6060
18876TIP3    H278120   5.675   3.189   2.216 -0.7396  1.0661  1.2849
18877TIP3   OH278121   3.717   0.026  14.994  0.2280 -0.8440 -0.5546
18877TIP3    H178122   3.807  -0.002  14.975  0.0983 -0.8513 -1.1732
18877TIP3    H278123   3.666  -0.003  14.919  0.1298  1.3057 -1.3975
18878TIP3   OH278124   1.308   1.508  14.142  0.3031  0.9667 -0.3952
18878TIP3    H178125   1.380   1.468  14.192 -0.0739  2.9037  1.8493
18878TIP3    H278126   1.348   1.532  14.059  1.3649 -1.0028 -0.5127
18879TIP3   OH278127   3.543   3.107  13.209  0.2219  0.5714  0.7488
18879TIP3    H178128   3.584   3.056  13.279  0.8018  0.1449  0.1244
18879TIP3    H278129   3.511   3.041  13.147  0.6514  0.9503  0.1081
18880TIP3   OH278130   2.773   0.354  14.271 -0.2567 -0.4535  0.3811
18880TIP3    H178131   2.735   0.441  14.263 -0.2215 -0.4617  0.0932
18880TIP3    H278132   2.790   0.327  14.180 -0.6832 -0.9440  0.4400
18881TIP3   OH278133   1.663   4.097  10.720  0.2604 -0.0788 -0.0922
18881TIP3    H178134   1.677   4.175  10.774  2.0949 -1.2681  1.2812
18881TIP3    H278135   1.595   4.122  10.658 -2.2221  1.3294  2.9124
18882TIP3   OH278136   4.573   1.352  11.821  0.3077  0.3091  0.2843
18882TIP3    H178137   4.490   1.353  11.774 -0.5208 -0.7234  1.6485
18882TIP3    H278138   4.560   1.412  11.895  0.6652 -0.0990  0.6848
18883TIP3   OH278139   5.897   4.223   4.708 -0.5082  0.5897  0.3276
18883TIP3    H178140   5.886   4.305   4.660 -1.7376 -0.8726 -2.1203
18883TIP3    H278141   5.961   4.173   4.657  0.4904  0.1519  1.9642
18884TIP3   OH278142   1.465   3.278   6.472 -0.2658 -0.7444  0.0388
18884TIP3    H178143   1.376   3.315   6.472 -0.0550 -0.0802  2.5198
18884TIP3    H278144   1.452   3.185   6.458 -1.5221 -0.8578  1.6465
18885TIP3   OH278145   4.745   1.286  16.003 -0.4191  0.3701 -0.4163
18885TIP3    H178146   4.812   1.221  15.981  0.6643  0.8999  1.1194
18885TIP3    H278147   4.698   1.247  16.077 -2.1661 -0.1969 -1.7588
18886TIP3   OH278148   0.954   3.187  12.675  0.9954  0.5104 -0.6581
18886TIP3    H178149   0.935   3.273  12.714  0.9748  0.8219 -1.3320
18886TIP3    H278150   0.919   3.194  12.586  0.0784 -0.5557 -0.3966
18887TIP3   OH278151   4.914   2.251  14.831  0.4270  0.0296  0.1902
18887TIP3    H178152   4.870   2.189  14.889  1.0917 -0.1088  0.5619
18887TIP3    H278153   4.856   2.327  14.828 -0.4494 -0.6315 -0.3456
18888TIP3   OH278154   5.665   3.367   5.245 -0.0877  0.0619  0.2585
18888TIP3    H178155   5.720   3.405   5.176  3.8633 -3.9235  0.7496
18888TIP3    H278156   5.699   3.407   5.326 -0.6637  0.4322  0.3221
18889TIP3   OH278157   0.066   1.402  13.792  0.7302  0.6729  0.5436
18889TIP3    H178158   0.025   1.315  13.791 -0.3904  1.1904 -0.5199
18889TIP3    H278159   0.143   1.392  13.736  0.1027  0.5786 -0.3223
18890TIP3   OH278160   1.972   4.122   2.418  0.3138  0.4157  0.0574
18890TIP3    H178161   2.055   4.120   2.465  0.6854 -0.5544 -0.6263
18890TIP3    H278162   1.951   4.216   2.412  0.5256  0.5832  1.6590
18891TIP3   OH278163   0.218   4.043   1.412 -0.1634  0.2104  0.0431
18891TIP3    H178164   0.267   4.113   1.370 -1.2031  0.5623 -0.6287
18891TIP3    H278165   0.166   4.004   1.341  0.5618 -1.4086  0.3383
18892TIP3   OH278166   5.476   5.373  14.585 -0.1470  0.5999 -0.3539
18892TIP3    H178167   5.560   5.406  14.619 -0.2090  0.2488  0.1485
18892TIP3    H278168   5.417   5.376  14.660  0.0169 -1.2809 -0.1147
18893TIP3   OH278169   2.064   3.201  12.429 -0.3779 -0.4384 -0.2306
18893TIP3    H178170   2.026   3.282  12.395  0.7882 -0.4633 -1.7103
18893TIP3    H278171   2.102   3.159  12.352 -0.0312 -1.8787  0.6977
18894TIP3   OH278172   0.973   6.661   3.248  0.3293 -0.1304  0.4291
18894TIP3    H178173   0.879   6.646   3.256  0.3165 -0.1446  0.2557
18894TIP3    H278174   1.013   6.592   3.300  0.4103 -3.1731 -3.2512
18895TIP3   OH278175   2.048   2.612  17.002  0.2677 -0.7361  0.6754
18895TIP3    H178176   2.123   2.667  16.977  0.6159 -0.4539  2.2693
18895TIP3    H278177   2.039   2.550  16.929 -0.3433  1.5844 -1.3603
18896TIP3   OH278178   3.879   1.795  15.884 -0.1210 -0.2593 -0.2497
18896TIP3    H178179   3.872   1.794  15.980  1.4920 -1.8481 -0.0946
18896TIP3    H278180   3.953   1.854  15.867  0.3488 -0.8971 -0.4329
18897TIP3   OH278181   3.705   2.418   5.613  0.3836  0.3091 -0.5644
18897TIP3    H178182   3.622   2.387   5.649 -0.3906  1.5078 -1.2465
18897TIP3    H278183   3.691   2.512   5.597  1.4424  0.2778 -1.8773
18898TIP3   OH278184   5.675   4.595   3.731  0.2987 -0.3875  0.3324
18898TIP3    H178185   5.744   4.611   3.796 -1.0778 -0.9812  2.0097
18898TIP3    H278186   5.653   4.682   3.698  0.2255  0.0690  1.5327
18899TIP3   OH278187   0.938   3.593   1.751  0.6915  0.3486 -0.9667
18899TIP3    H178188   0.908   3.520   1.806 -0.9323  1.4738 -0.2659
18899TIP3    H278189   1.032   3.597   1.764  0.5091 -0.2731  0.6778
18900TIP3   OH278190   1.560   2.441  10.914 -0.7233  0.0360 -0.1266
18900TIP3    H178191   1.567   2.421  10.820  2.1774 -1.7336  0.3570
18900TIP3    H278192   1.468   2.465  10.926 -1.0963  0.7977 -3.4784
18901TIP3   OH278193   4.481   3.114   0.128 -0.2928 -0.5644 -0.0086
18901TIP3    H178194   4.406   3.151   0.081 -1.1895 -1.5572  0.6032
18901TIP3    H278195   4.557   3.145   0.079 -1.0589  0.8557 -0.3735
18902TIP3   OH278196   2.827   3.528   0.746 -0.4098 -0.2819 -0.5237
18902TIP3    H178197   2.822   3.510   0.839  0.4540  0.5909 -0.2942
18902TIP3    H278198   2.860   3.447   0.707 -1.4103 -0.8761 -0.1702
18903TIP3   OH278199   4.257   0.005  14.399  0.2071  0.5126  0.8348
18903TIP3    H178200   4.180   0.020  14.455  0.0258 -0.2253  0.7934
18903TIP3    H278201   4.320  -0.039  14.457 -0.1008 -0.5461  0.3948
18904TIP3   OH278202   2.416   5.337   3.258 -0.7707 -0.1501  0.3557
18904TIP3    H178203   2.427   5.390   3.179 -0.6191 -0.3078  0.2699
18904TIP3    H278204   2.462   5.386   3.326  1.6493 -1.4257 -0.2688
18905TIP3   OH278205   3.293   2.769   4.717 -0.5696  0.5535 -1.1836
18905TIP3    H178206   3.215   2.721   4.689  0.2863 -1.2719 -0.5342
18905TIP3    H278207   3.336   2.712   4.781  0.7049  2.0186 -0.6589
18906TIP3   OH278208   2.528   0.092   4.040 -0.8155 -0.1203 -0.1302
18906TIP3    H178209   2.465   0.163   4.033  0.1282  0.8236  0.5792
18906TIP3    H278210   2.572   0.107   4.124 -0.2113 -1.2191 -0.2304
18907TIP3   OH278211   2.523   1.445  11.637 -1.2886  0.3616 -0.4397
18907TIP3    H178212   2.442   1.475  11.679 -0.8539  1.9541 -0.6731
18907TIP3    H278213   2.582   1.520  11.642  0.8911 -1.3519  1.4250
18908TIP3   OH278214   4.362   6.517   4.340 -0.1600 -0.0732  0.0343
18908TIP3    H178215   4.359   6.590   4.402 -2.2438 -0.1209  0.0511
18908TIP3    H278216   4.360   6.438   4.395  2.2627 -0.2322  0.0257
18909TIP3   OH278217   3.621   0.975  15.270 -0.1648  0.0020 -0.1203
18909TIP3    H178218   3.594   0.989  15.361  0.8202  0.8156  0.0589
18909TIP3    H278219   3.716   0.989  15.271  0.3927 -3.0018 -0.6714
18910TIP3   OH278220   1.434   6.798  15.431  0.3490 -0.4506  0.3891
18910TIP3    H178221   1.447   6.707  15.406 -1.4590 -0.5584 -0.3399
18910TIP3    H278222   1.462   6.849  15.354  1.2780 -0.3872  0.7639
18911TIP3   OH278223   4.344   6.086   2.236  0.0288  0.0276 -0.5835
18911TIP3    H178224   4.284   6.019   2.205  1.1873 -0.9453 -0.7872
18911TIP3    H278225   4.421   6.038   2.265  0.4468  1.1921  0.3277
18912TIP3   OH278226   5.965   0.425   5.695  0.8335  0.1862  0.0889
18912TIP3    H178227   5.970   0.456   5.785 -1.8030 -0.3538  0.4795
18912TIP3    H278228   6.028   0.353   5.691 -0.2672 -0.9682  2.0376
18913TIP3   OH278229   5.748   5.360   3.609  0.8332  0.9837 -0.3976
18913TIP3    H178230   5.782   5.354   3.520 -0.0696 -2.6195 -0.6674
18913TIP3    H278231   5.815   5.319   3.664 -0.6952 -1.6291 -0.2729
18914TIP3   OH278232   5.790   2.604  13.277 -0.2760  0.0653  0.1194
18914TIP3    H178233   5.793   2.651  13.360 -0.5682 -0.4117  0.4019
18914TIP3    H278234   5.868   2.634  13.230  1.4935 -1.7687  1.6931
18915TIP3   OH278235   4.650   1.088  16.383  0.0432  0.2652  0.4045
18915TIP3    H178236   4.722   1.150  16.390 -1.3238  1.7352  3.0789
18915TIP3    H278237   4.689   1.002  16.400  1.1483  1.0832  2.2810
18916TIP3   OH278238   6.730   1.881  13.127  0.7815  0.1145 -0.2588
18916TIP3    H178239   6.637   1.863  13.141  0.3352  2.2530 -0.1296
18916TIP3    H278240   6.757   1.818  13.060 -0.6077 -0.9027  0.0877
18917TIP3   OH278241   0.829   3.747   2.726  0.1842 -0.2726 -0.3564
18917TIP3    H178242   0.826   3.671   2.667 -0.5139 -0.2360 -0.3824
18917TIP3    H278243   0.825   3.823   2.668 -4.2018 -0.1735 -0.2849
18918TIP3   OH278244   2.782   1.736  17.097 -0.2484  0.0565 -0.1891
18918TIP3    H178245   2.821   1.722  17.184 -0.0203 -1.5818 -0.5176
18918TIP3    H278246   2.793   1.652  17.052 -1.2171  0.5792 -1.4749
18919TIP3   OH278247   3.381   1.054   4.691 -0.4782  0.3294 -0.3574
18919TIP3    H178248   3.380   1.038   4.786 -0.1244  0.0832 -0.3910
18919TIP3    H278249   3.474   1.054   4.668 -0.5874 -2.4335 -1.1543
18920TIP3   OH278250   5.552   5.024   6.441 -0.1222 -0.0191 -0.3403
18920TIP3    H178251   5.611   4.956   6.408  1.6385 -0.1943  2.7569
18920TIP3    H278252   5.468   4.981   6.451  0.0935 -0.7676 -1.5144
18921TIP3   OH278253   5.762   3.401   1.336 -0.3804 -0.0907 -0.3496
18921TIP3    H178254   5.847   3.428   1.372  0.4906  1.2133 -3.0901
18921TIP3    H278255   5.721   3.484   1.310  0.0337 -0.9121 -4.1613
18922TIP3   OH278256   1.897   5.990   1.859 -0.6314 -0.3406  0.2307
18922TIP3    H178257   1.844   6.042   1.799  1.0847  1.8805  0.4873
18922TIP3    H278258   1.863   6.013   1.946 -0.5627 -0.4817  0.2944
18923TIP3   OH278259   5.084   5.969  11.949  0.4791 -0.6331  0.1668
18923TIP3    H178260   4.996   5.993  11.980  0.8041 -0.8204  1.2765
18923TIP3    H278261   5.140   6.040  11.981  1.0711 -1.6292  1.4274
18924TIP3   OH278262   3.416   5.419   4.360  0.0060  0.1366  0.1097
18924TIP3    H178263   3.503   5.455   4.344  0.3177 -1.1182 -1.2994
18924TIP3    H278264   3.433   5.335   4.403 -0.6196  0.7610  1.6486
18925TIP3   OH278265   5.124   2.508  15.529  0.2917  0.3270  0.1256
18925TIP3    H178266   5.070   2.579  15.567 -1.1066  0.1656 -1.4246
18925TIP3    H278267   5.068   2.431  15.535  0.8676 -0.1278 -0.3511
18926TIP3   OH278268   3.255   3.445   2.523 -0.1432 -0.3081 -0.1644
18926TIP3    H178269   3.349   3.460   2.532  0.0733 -1.2279 -0.6976
18926TIP3    H278270   3.232   3.486   2.440  0.1331 -1.4541 -0.8385
18927TIP3   OH278271   4.779   1.140   1.858  0.0354 -0.2907 -0.9898
18927TIP3    H178272   4.865   1.129   1.899 -1.4157 -1.5806  2.0118
18927TIP3    H278273   4.716   1.116   1.927 -2.8530  2.8914 -2.2263
18928TIP3   OH278274   6.714   4.676  14.404 -0.1536  0.5550 -0.3003
18928TIP3    H178275   6.748   4.588  14.420  0.9694  0.9928 -0.1319
18928TIP3    H278276   6.665   4.697  14.483  0.2618  0.3885  0.0057
18929TIP3   OH278277   1.757   2.765  10.558 -0.1617  0.2849  0.7152
18929TIP3    H178278   1.849   2.748  10.540 -0.4321  0.5157 -1.0768
18929TIP3    H278279   1.729   2.692  10.614  0.9375 -0.1289  0.7470
18930TIP3   OH278280   6.227   4.012   4.119  0.6358  0.4765  0.5957
18930TIP3    H178281   6.289   4.034   4.050  0.6105 -0.9711  0.0634
18930TIP3    H278282   6.194   3.925   4.094 -0.2368  0.4332  1.8223
18931TIP3   OH278283   1.696   4.275  14.971  0.3774  0.6232 -0.0902
18931TIP3    H178284   1.767   4.314  15.023 -0.3539  0.8585  0.7620
18931TIP3    H278285   1.637   4.237  15.036 -0.3853  0.6182 -0.7740
18932TIP3   OH278286   4.703   5.903  15.443 -0.3401  0.4617 -0.0164
18932TIP3    H178287   4.773   5.969  15.445 -0.4220  0.5674 -0.6525
18932TIP3    H278288   4.653   5.923  15.364  0.3545 -1.0934 -0.8999
18933TIP3   OH278289   6.531   1.104  15.721  0.1966 -0.2473  0.1567
18933TIP3    H178290   6.451   1.083  15.768 -1.6967  1.6134 -1.9876
18933TIP3    H278291   6.598   1.048  15.761 -2.2685 -2.4080  1.5611
18934TIP3   OH278292   1.665   0.018  16.350  0.1441 -0.3978 -0.7073
18934TIP3    H178293   1.573   0.014  16.374  0.4878  2.8226  1.6988
18934TIP3    H278294   1.711  -0.022  16.424  0.7889 -2.7413 -2.2368
18935TIP3   OH278295   4.015   6.234   6.096 -0.0372 -0.2112 -0.0124
18935TIP3    H178296   4.109   6.247   6.106  0.0593 -1.0051  0.1709
18935TIP3    H278297   3.978   6.269   6.178  0.2767 -1.5973  0.7607
18936TIP3   OH278298   2.049   4.192   0.492 -0.3033  0.4144 -0.1295
18936TIP3    H178299   2.032   4.193   0.398 -0.0953 -0.2881 -0.1774
18936TIP3    H278300   2.083   4.280   0.510 -3.1439  1.6192 -0.1528
18937TIP3   OH278301   4.009   6.670  13.608  0.2422  0.2284 -0.5981
18937TIP3    H178302   3.971   6.592  13.566 -1.3657  1.0455 -0.7212
18937TIP3    H278303   4.103   6.661  13.593  0.0656 -1.5101 -0.9180
18938TIP3   OH278304   0.070   5.804   4.312  0.4494  0.1421  0.0807
18938TIP3    H178305  -0.025   5.815   4.305  0.2834 -1.4431 -0.9340
18938TIP3    H278306   0.106   5.890   4.290 -0.7433  0.5087 -0.5690
18939TIP3   OH278307   1.455   1.030   2.283 -0.6774  0.8611  0.2606
18939TIP3    H178308   1.465   0.942   2.245  1.0804  0.9243  0.5022
18939TIP3    H278309   1.390   1.073   2.227  1.1149  0.6228 -2.1417
18940TIP3   OH278310   1.951   2.494  13.560 -0.1886  0.1625 -0.0794
18940TIP3    H178311   1.933   2.577  13.515 -1.4045  0.0082  0.0660
18940TIP3    H278312   1.865   2.466  13.591  0.2289 -1.1065 -0.0419
18941TIP3   OH278313   2.591   1.538  16.502  0.2616 -0.4933  0.0719
18941TIP3    H178314   2.544   1.606  16.550 -0.0146  0.6778 -1.7722
18941TIP3    H278315   2.591   1.568  16.411  1.9955 -1.9272 -0.4660
18942TIP3   OH278316   5.655   5.082   3.510  0.1768  0.0566  0.1356
18942TIP3    H178317   5.642   4.995   3.549  5.3289 -1.3358 -0.5559
18942TIP3    H278318   5.687   5.136   3.583 -1.5897  1.0488  0.2308
18943TIP3   OH278319   4.002   1.438   3.205  0.1274 -0.3071  0.5005
18943TIP3    H178320   3.913   1.440   3.240  0.0939 -0.2452  0.4101
18943TIP3    H278321   4.052   1.389   3.271  0.0481 -0.2546  0.5993
18944TIP3   OH278322   6.349   5.186  14.429  0.7030  0.1131  0.2161
18944TIP3    H178323   6.298   5.106  14.444  1.8116 -0.6100  0.1959
18944TIP3    H278324   6.284   5.251  14.402 -0.2774 -0.6539  0.6657
18945TIP3   OH278325   4.030   0.550   6.403 -0.4625 -0.0626 -0.0488
18945TIP3    H178326   3.947   0.593   6.387 -0.0590  0.4863 -0.7100
18945TIP3    H278327   4.008   0.457   6.414 -1.0809 -0.0231 -0.8966
18946TIP3   OH278328   4.908   2.542   4.171 -0.4085 -0.0665 -0.6854
18946TIP3    H178329   4.812   2.542   4.167 -0.4144 -1.0147 -0.7397
18946TIP3    H278330   4.936   2.556   4.080 -0.4890  0.6559 -0.6039
18947TIP3   OH278331   6.433   2.217   4.884 -0.1665 -0.4156  0.3910
18947TIP3    H178332   6.391   2.301   4.868  0.9270  0.0206 -0.2532
18947TIP3    H278333   6.521   2.239   4.913  0.2771 -1.3418 -0.2148
18948TIP3   OH278334   2.691   0.305  15.244 -0.2294  0.4406 -0.0236
18948TIP3    H178335   2.631   0.297  15.318  0.8950 -1.1740  0.7549
18948TIP3    H278336   2.710   0.399  15.239 -1.2015  0.7086  1.0027
18949TIP3   OH278337   5.562   1.260  15.238 -0.0917 -0.3817 -0.2189
18949TIP3    H178338   5.495   1.322  15.268 -0.4959 -1.5120  1.3678
18949TIP3    H278339   5.514   1.198  15.183 -0.2773 -0.9319  0.5513
18950TIP3   OH278340   2.582   3.705  12.105  0.4173  0.0667 -0.0267
18950TIP3    H178341   2.531   3.687  12.184  3.2176 -0.5025  1.7897
18950TIP3    H278342   2.638   3.779  12.129  1.5928 -0.3430 -1.3695
18951TIP3   OH278343   3.818   3.458   2.950 -0.1063 -0.2735 -0.0831
18951TIP3    H178344   3.766   3.530   2.915  2.8718  2.4263  0.6027
18951TIP3    H278345   3.844   3.407   2.873  0.1224  1.1102 -0.9503
18952TIP3   OH278346   4.117   0.182  15.201 -0.1656 -0.8866  0.2443
18952TIP3    H178347   4.194   0.220  15.242 -1.2165  1.2611  0.3536
18952TIP3    H278348   4.084   0.250  15.142 -3.8646 -0.2157  2.6849
18953TIP3   OH278349   2.798   2.570   1.504  0.1796  0.5794 -0.1725
18953TIP3    H178350   2.842   2.655   1.502  0.2976  0.5401  0.4348
18953TIP3    H278351   2.852   2.513   1.450  0.2967  0.8003 -0.2902
18954TIP3   OH278352   0.075   1.036   4.039 -0.9512  0.5360  0.6920
18954TIP3    H178353   0.104   1.076   3.956  1.3388 -0.1510  1.0726
18954TIP3    H278354   0.033   1.108   4.087 -0.5714  1.4427 -0.2819
18955TIP3   OH278355   6.624   5.873  13.011  0.5369  0.4115  0.0520
18955TIP3    H178356   6.646   5.941  13.075  0.7075 -0.9733  1.5410
18955TIP3    H278357   6.708   5.833  12.989  0.5198  1.0739 -1.3359
18956TIP3   OH278358   5.132   0.216   1.805  0.0524 -0.6558  0.8406
18956TIP3    H178359   5.217   0.243   1.772 -0.0732  0.6732  1.5087
18956TIP3    H278360   5.150   0.182   1.893 -0.3559  2.3912  2.2416
18957TIP3   OH278361   4.973   2.567   1.297  0.0509 -0.4330  0.0401
18957TIP3    H178362   5.061   2.579   1.261 -0.5318  2.4063 -0.6551
18957TIP3    H278363   4.944   2.482   1.262  2.4642 -1.4347  0.2929
18958TIP3   OH278364   2.007   5.419  11.359  0.1114  0.6742 -0.5543
18958TIP3    H178365   2.062   5.485  11.317  2.7462 -0.2220  1.2374
18958TIP3    H278366   2.035   5.336  11.319  0.6544  0.1219  0.8915
18959TIP3   OH278367   1.125   1.977   4.068  0.1194 -0.2180 -0.0393
18959TIP3    H178368   1.062   2.022   4.124 -1.1046 -0.8175 -0.8798
18959TIP3    H278369   1.145   1.896   4.115 -0.0753 -0.2182  0.0457
18960TIP3   OH278370   1.143   1.127  14.467  0.2032  0.1774  0.5041
18960TIP3    H178371   1.206   1.137  14.396 -0.6185  0.2936 -0.2112
18960TIP3    H278372   1.150   1.034  14.492 -1.5569 -0.6282 -1.7032
18961TIP3   OH278373   0.471   2.889   1.048  0.2071  0.0350  0.1104
18961TIP3    H178374   0.414   2.816   1.021  0.1475  0.3558 -0.6436
18961TIP3    H278375   0.436   2.965   1.001 -0.3914  0.7834  1.7023
18962TIP3   OH278376   0.524   5.480   0.992 -0.4132 -0.4537 -0.6252
18962TIP3    H178377   0.500   5.547   1.056 -2.5381  0.8546 -2.6433
18962TIP3    H278378   0.478   5.402   1.020  0.1761 -0.4383  0.4347
18963TIP3   OH278379   1.344   0.273  10.775  0.4045  0.2149  0.4279
18963TIP3    H178380   1.346   0.177  10.768 -1.8427  0.1637 -0.0667
18963TIP3    H278381   1.418   0.293  10.833 -0.3071 -2.0021  2.3134
18964TIP3   OH278382   2.090   1.233  15.565 -0.3822 -0.2123  0.1930
18964TIP3    H178383   2.095   1.172  15.492  0.6978  1.8642 -1.5972
18964TIP3    H278384   1.999   1.263  15.564 -0.4891 -0.5373 -0.0296
18965TIP3   OH278385   3.418   1.124   1.983 -0.3867 -0.1304  0.1750
18965TIP3    H178386   3.480   1.076   1.928 -0.6732 -0.7983  0.4156
18965TIP3    H278387   3.405   1.207   1.938  0.8325  0.1015  0.2294
18966TIP3   OH278388   0.181   5.175  11.086  0.4892  0.1974  0.4804
18966TIP3    H178389   0.180   5.100  11.146 -1.3988  0.8232  1.2936
18966TIP3    H278390   0.167   5.137  11.000  1.5246 -0.5579  0.6282
18967TIP3   OH278391   3.434   0.350  16.115 -0.0162 -0.0104 -0.1266
18967TIP3    H178392   3.491   0.304  16.177  0.6480 -1.0442 -1.4676
18967TIP3    H278393   3.346   0.316  16.134  0.0906  0.0724  0.5742
18968TIP3   OH278394   2.930   0.168  11.390 -0.3826 -0.1903  0.2969
18968TIP3    H178395   2.859   0.137  11.334 -1.2507  0.8190  0.8092
18968TIP3    H278396   2.887   0.220  11.458  0.9225  1.5131 -0.0894
18969TIP3   OH278397   0.241   4.116   2.465  0.5711  0.1102  0.5945
18969TIP3    H178398   0.203   4.202   2.443 -0.3724 -0.4777 -0.1410
18969TIP3    H278399   0.293   4.092   2.388 -0.0337 -0.4516  0.3547
18970TIP3   OH278400   1.269   2.569  12.065  0.0127  0.0748  0.2062
18970TIP3    H178401   1.186   2.533  12.094  1.1241 -1.9908  1.0612
18970TIP3    H278402   1.284   2.530  11.979 -1.8313  3.8159 -2.0397
18971TIP3   OH278403   4.813   2.318  16.353 -0.4726  0.0596  0.1185
18971TIP3    H178404   4.833   2.372  16.430 -2.6324  2.4659 -0.8428
18971TIP3    H278405   4.720   2.296  16.363 -0.4762 -0.6269 -1.1913
18972TIP3   OH278406   0.168   0.085  15.131  0.5726  0.2039  0.5508
18972TIP3    H178407   0.155   0.095  15.037  1.4988 -0.7668  0.2888
18972TIP3    H278408   0.262   0.099  15.143  0.8145 -1.6018  1.0247
18973TIP3   OH278409   6.175   5.975  12.494 -0.4223 -0.3106  0.1715
18973TIP3    H178410   6.127   5.901  12.457  2.5441 -2.6831  0.6496
18973TIP3    H278411   6.220   6.015  12.419 -1.1624  0.3429  0.0685
18974TIP3   OH278412   1.490   5.053   1.739 -0.4447  0.3555  0.4590
18974TIP3    H178413   1.540   5.090   1.667 -1.9374 -0.9536 -1.3588
18974TIP3    H278414   1.399   5.072   1.717 -1.0881 -1.9896  0.8101
18975TIP3   OH278415   3.564   2.108   3.925  0.6722  0.1987  0.4727
18975TIP3    H178416   3.533   2.080   3.839 -2.4441 -0.2896  1.6295
18975TIP3    H278417   3.640   2.052   3.943  1.3261  0.2309 -1.8293
18976TIP3   OH278418   6.764   5.187   4.945  0.3535  0.0014  0.5123
18976TIP3    H178419   6.721   5.102   4.958  0.0766 -0.0531 -0.6540
18976TIP3    H278420   6.830   5.191   5.014  0.5049 -1.2640  0.4657
18977TIP3   OH278421   6.205   1.765  11.330 -0.1227  0.1257  0.0035
18977TIP3    H178422   6.110   1.763  11.324 -0.0916 -2.6038 -1.5166
18977TIP3    H278423   6.224   1.715  11.410 -0.0226 -1.3585 -0.8937
18978TIP3   OH278424   4.974   3.418   2.180 -0.7857 -0.5795 -0.4183
18978TIP3    H178425   5.058   3.410   2.224 -0.4876 -0.5472 -0.9774
18978TIP3    H278426   4.941   3.328   2.174 -1.8827 -0.4058  1.8613
18979TIP3   OH278427   5.600   3.283  15.390 -0.2254 -0.2860  0.6543
18979TIP3    H178428   5.583   3.195  15.355 -0.0500  0.1718 -0.6299
18979TIP3    H278429   5.652   3.268  15.469  0.4244 -1.3124  0.0523
18980TIP3   OH278430   6.104   4.064   6.154  0.4629 -1.1701  0.0600
18980TIP3    H178431   6.013   4.077   6.127  0.2938 -0.8756  0.7438
18980TIP3    H278432   6.123   3.973   6.132 -0.1367 -1.3612  0.3042
18981TIP3   OH278433   0.340   5.232   1.545  0.4128  0.1588 -0.5262
18981TIP3    H178434   0.430   5.199   1.532  0.7432  1.2566 -1.1443
18981TIP3    H278435   0.307   5.181   1.620  1.8195  0.2541  0.2046
18982TIP3   OH278436   2.624   2.176  13.239 -0.1353  0.1878  0.4899
18982TIP3    H178437   2.577   2.125  13.174  0.5115 -1.5069  1.2837
18982TIP3    H278438   2.607   2.267  13.216 -0.4711 -0.3614 -1.6279
18983TIP3   OH278439   0.892   0.086  11.309  0.1299  0.0850  0.2633
18983TIP3    H178440   0.805   0.086  11.269 -0.2433  2.6701  0.9176
18983TIP3    H278441   0.876   0.062  11.400  0.0282  0.8888  0.4648
18984TIP3   OH278442   4.579   0.444  17.108 -0.6869  1.0634 -0.0281
18984TIP3    H178443   4.532   0.361  17.113  0.4996  0.3605 -0.1849
18984TIP3    H278444   4.565   0.474  17.018  0.4224  0.0617 -0.5700
18985TIP3   OH278445   0.492   6.406  16.632  0.2420  0.0558  0.1757
18985TIP3    H178446   0.566   6.466  16.622  0.3290  0.0688  0.8530
18985TIP3    H278447   0.417   6.463  16.648 -0.2096  0.1268 -1.9764
18986TIP3   OH278448   4.284   2.214   3.605 -1.0219 -0.3342 -0.8466
18986TIP3    H178449   4.290   2.128   3.647  1.8308 -0.3346 -1.0390
18986TIP3    H278450   4.318   2.275   3.671  3.8535 -0.3729 -2.9213
18987TIP3   OH278451   6.699   5.540   0.394  0.0585  0.4196  0.1777
18987TIP3    H178452   6.694   5.495   0.479 -0.1430  0.7460  0.3394
18987TIP3    H278453   6.751   5.481   0.339 -0.8105 -0.3823  0.1664
18988TIP3   OH278454   6.018   6.026  11.045  0.3654 -0.1325  0.2317
18988TIP3    H178455   5.941   6.029  10.988  0.2496 -2.3459  0.1709
18988TIP3    H278456   6.087   6.068  10.994 -0.3930  0.3666 -0.4071
18989TIP3   OH278457   1.715   1.037  15.779 -0.7073  0.2852 -0.2369
18989TIP3    H178458   1.807   1.026  15.802 -0.7827  1.2772  0.6228
18989TIP3    H278459   1.716   1.070  15.689 -0.2835 -0.7799 -0.6401
18990TIP3   OH278460   5.917   5.190  16.336 -0.7078  0.3671  0.3980
18990TIP3    H178461   5.913   5.096  16.320 -2.8235  0.3553  0.6666
18990TIP3    H278462   5.979   5.200  16.408  2.1968 -0.4218 -1.8280
18991TIP3   OH278463   1.389   3.518  11.659 -0.5652  0.0444  0.2767
18991TIP3    H178464   1.443   3.558  11.591  0.9333 -1.2596  0.6590
18991TIP3    H278465   1.446   3.513  11.735 -1.9440  0.6686  1.4083
18992TIP3   OH278466   2.060   6.058  13.771 -0.0087 -0.2803  0.2709
18992TIP3    H178467   2.138   6.092  13.726  1.2474  0.3169  2.7041
18992TIP3    H278468   2.008   6.136  13.789 -1.5254 -0.7247 -1.7688
18993TIP3   OH278469   6.454   0.662  10.442 -0.5487 -0.2614  0.1208
18993TIP3    H178470   6.481   0.615  10.521  1.2114  0.0531 -0.2585
18993TIP3    H278471   6.451   0.595  10.374 -1.4292 -0.4150  0.2991
18994TIP3   OH278472   2.725   5.838  14.020  0.0098 -0.3250 -0.6876
18994TIP3    H178473   2.805   5.887  14.041 -1.0250  1.7521 -1.4203
18994TIP3    H278474   2.690   5.812  14.106 -0.0639  1.2911 -0.2072
18995TIP3   OH278475   0.864   0.965  10.972 -0.1932 -0.4336  0.4932
18995TIP3    H178476   0.948   0.983  10.931  1.0556 -0.8787  2.6675
18995TIP3    H278477   0.842   0.877  10.943 -0.0035 -0.2456 -0.2380
18996TIP3   OH278478   4.902   1.802   0.036  0.1289  0.2630 -0.0522
18996TIP3    H178479   4.941   1.748   0.105 -1.2810 -2.0709 -0.9470
18996TIP3    H278480   4.823   1.838   0.077  0.8859  1.3835  0.4420
18997TIP3   OH278481   4.135   6.567  16.275 -0.0925 -0.1650  0.0139
18997TIP3    H178482   4.045   6.583  16.245  0.1912  1.0536 -0.2226
18997TIP3    H278483   4.181   6.648  16.256  1.4927 -1.3188 -1.3867
18998TIP3   OH278484   6.111   0.646   5.579 -0.8448 -0.3633  0.6194
18998TIP3    H178485   6.153   0.609   5.501 -0.4445  1.0458  0.1311
18998TIP3    H278486   6.056   0.575   5.613  0.8021 -1.7720  0.4431
18999TIP3   OH278487   4.908   2.188   0.379  0.8109  0.1029 -0.1676
18999TIP3    H178488   4.912   2.252   0.450  0.5729  0.2100 -0.2517
18999TIP3    H278489   4.963   2.225   0.310 -0.0691  0.6611 -0.5769
19000TIP3   OH278490   0.391   5.818   1.322  0.1037 -0.0641 -0.3274
19000TIP3    H178491   0.371   5.782   1.235  0.1352 -1.8163  0.3416
19000TIP3    H278492   0.326   5.778   1.380  1.0686 -0.1786  0.7141
19001TIP3   OH278493   2.120   3.973  16.932 -0.0077  0.2606 -0.0273
19001TIP3    H178494   2.048   3.947  16.990 -0.6021  1.5598 -0.1578
19001TIP3    H278495   2.145   4.060  16.961  1.9000 -0.3474  0.3502
19002TIP3   OH278496   0.906   6.438   0.346  0.1076 -0.1731 -0.5069
19002TIP3    H178497   0.819   6.403   0.325  1.2138 -1.7993 -2.7848
19002TIP3    H278498   0.922   6.408   0.436 -1.7726  0.4662  0.1093
19003TIP3   OH278499   0.027   2.074  12.356 -0.5557  0.2632 -0.2013
19003TIP3    H178500   0.082   2.121  12.293 -1.4969  1.8733  0.1120
19003TIP3    H278501   0.003   1.993  12.311  1.2098 -0.0270 -0.7262
19004TIP3   OH278502   2.698   5.377  13.804 -0.5257  0.3759  0.0800
19004TIP3    H178503   2.689   5.363  13.710 -0.5442 -0.1784  0.1624
19004TIP3    H278504   2.659   5.300  13.844  1.7577 -0.6345  0.5021
19005TIP3   OH278505   5.874   2.400   5.729 -0.3807 -0.6665 -0.3547
19005TIP3    H178506   5.932   2.334   5.768  0.4539 -0.1693 -0.7279
19005TIP3    H278507   5.786   2.364   5.740 -0.1739 -0.6297  1.8353
19006TIP3   OH278508   0.825   1.302  14.176 -0.3305 -0.3065  0.2657
19006TIP3    H178509   0.894   1.327  14.114 -0.0076 -1.4308  0.1528
19006TIP3    H278510   0.868   1.307  14.262 -1.2450  2.9588  0.6520
19007TIP3   OH278511   1.448   4.302   2.906 -0.5529  0.2782 -0.1506
19007TIP3    H178512   1.365   4.349   2.895 -0.7769  0.1745  0.9493
19007TIP3    H278513   1.460   4.298   3.001  0.4986 -0.0915 -0.2900
19008TIP3   OH278514   2.277   4.973   2.914  0.3426 -0.0140 -0.5379
19008TIP3    H178515   2.257   4.913   2.986 -0.0143  0.9104  0.1452
19008TIP3    H278516   2.256   5.060   2.947 -1.8182  0.2898 -2.4406
19009TIP3   OH278517   6.824   0.357   1.523  0.0432  0.0316  0.2937
19009TIP3    H178518   6.825   0.426   1.455  0.8797 -0.1352  0.1373
19009TIP3    H278519   6.780   0.399   1.597 -0.4792  0.3658 -0.1841
19010TIP3   OH278520   0.579   5.051   0.052  0.9148 -0.3090 -0.1218
19010TIP3    H178521   0.519   5.098  -0.006 -0.4897 -1.4940  0.3061
19010TIP3    H278522   0.607   4.975   0.001 -1.2443 -2.0062  1.0180
19011TIP3   OH278523   0.816   5.445   4.307  0.0769 -0.1053  0.1265
19011TIP3    H178524   0.812   5.386   4.382 -0.6014  0.7158  0.7674
19011TIP3    H278525   0.899   5.491   4.316  0.8153 -1.2212 -0.6151
19012TIP3   OH278526   2.029   4.504  14.323 -0.5781 -0.3433 -0.7547
19012TIP3    H178527   1.960   4.476  14.383  0.8649 -0.3217  1.0138
19012TIP3    H278528   1.987   4.510  14.238 -2.3132 -2.1132 -0.0788
19013TIP3   OH278529   1.869   3.422  12.052 -0.0647  0.4550  0.6441
19013TIP3    H178530   1.864   3.347  12.112  1.4700 -0.3844 -0.2065
19013TIP3    H278531   1.844   3.386  11.967  0.0756  1.0596  0.3425
19014TIP3   OH278532   2.614   0.568  14.251 -0.0097 -0.0643 -0.2182
19014TIP3    H178533   2.592   0.619  14.173  2.7948  0.8576 -0.5021
19014TIP3    H278534   2.556   0.603  14.319 -0.9429  0.6572 -1.3427
19015TIP3   OH278535   5.225   5.804   0.292  0.1703 -0.2749  0.1967
19015TIP3    H178536   5.280   5.882   0.284  0.7918 -0.8522 -1.4521
19015TIP3    H278537   5.247   5.751   0.216  0.2682 -2.3980  1.6194
19016TIP3   OH278538   1.043   3.683  16.240  0.6304 -0.5581 -0.2817
19016TIP3    H178539   1.040   3.747  16.311 -1.2060 -0.8933 -0.0277
19016TIP3    H278540   1.022   3.733  16.161 -0.0366 -0.6983 -0.1946
19017TIP3   OH278541   1.886   2.910  14.848 -0.0440  0.0988 -0.3621
19017TIP3    H178542   1.962   2.902  14.906  0.3208  2.7157 -0.3402
19017TIP3    H278543   1.908   2.858  14.771  0.1551 -2.1245  1.1066
19018TIP3   OH278544   4.809   6.395  12.293  0.4459  0.3636  0.1697
19018TIP3    H178545   4.828   6.319  12.348 -0.3697  0.5667  0.7512
19018TIP3    H278546   4.723   6.375  12.255  0.3027  0.9165  0.1934
19019TIP3   OH278547   1.899   4.252   3.063  0.3312  0.0375  0.7760
19019TIP3    H178548   1.960   4.196   3.015 -0.2176 -0.9848  1.2253
19019TIP3    H278549   1.838   4.282   2.997  1.5008  1.3611  0.2569
19020TIP3   OH278550   4.858   1.220   2.444  0.1980 -0.0327 -0.3164
19020TIP3    H178551   4.765   1.197   2.439 -0.4730  2.5448 -1.5088
19020TIP3    H278552   4.904   1.140   2.419 -1.6892 -1.3044  0.0494
19021TIP3   OH278553   1.389   2.206  13.206 -0.3256  0.2012  0.2677
19021TIP3    H178554   1.370   2.300  13.198 -1.1174  0.0299 -0.0033
19021TIP3    H278555   1.351   2.181  13.290  1.3069  0.4379  1.1148
19022TIP3   OH278556   4.763   3.109  11.269 -0.0357 -0.5014  0.1661
19022TIP3    H178557   4.713   3.187  11.293 -0.8232 -0.8835 -0.2150
19022TIP3    H278558   4.800   3.129  11.183 -0.7169 -0.7632 -0.1944
19023TIP3   OH278559   5.875   1.462  13.188 -0.2517 -0.2035 -0.5911
19023TIP3    H178560   5.885   1.401  13.115 -0.1081 -0.0541 -0.6993
19023TIP3    H278561   5.900   1.411  13.265  0.4547 -0.1172 -0.7490
19024TIP3   OH278562   4.621   6.245  11.956 -0.6563 -0.4802 -0.6642
19024TIP3    H178563   4.589   6.279  12.039 -2.5035 -0.6119 -1.2860
19024TIP3    H278564   4.714   6.268  11.955 -0.7650  0.1665  1.0956
19025TIP3   OH278565   5.726   3.772  12.572 -0.9075  0.7667  0.2112
19025TIP3    H178566   5.810   3.817  12.579 -0.5022 -0.2511  2.6013
19025TIP3    H278567   5.666   3.825  12.625 -1.0321 -0.1227  0.9689
19026TIP3   OH278568   0.881   5.678  14.623  0.0352  0.5748  0.1107
19026TIP3    H178569   0.794   5.704  14.590  0.1487  0.9639  0.1200
19026TIP3    H278570   0.891   5.588  14.593 -0.3449  0.5520  0.0469
19027TIP3   OH278571   4.470   1.498  16.690  0.0639  0.0017  0.1111
19027TIP3    H178572   4.501   1.424  16.638  0.2012 -0.4252  0.7873
19027TIP3    H278573   4.518   1.573  16.656  0.0134 -0.2393 -0.4999
19028TIP3   OH278574   5.827   6.539   3.092  0.4318  0.0832 -0.1982
19028TIP3    H178575   5.734   6.527   3.112  0.6090  1.8982  2.1077
19028TIP3    H278576   5.828   6.561   2.999 -1.6783  1.7220  0.0696
19029TIP3   OH278577   0.711   1.552  14.625  0.0424 -0.6406 -0.1859
19029TIP3    H178578   0.781   1.488  14.641  1.4094  0.4065 -1.5895
19029TIP3    H278579   0.636   1.499  14.597  0.2330 -1.7969  1.3596
19030TIP3   OH278580   3.661   5.051  15.715  0.4625 -0.0272 -0.0714
19030TIP3    H178581   3.581   5.103  15.717 -0.2688 -0.9265 -2.3962
19030TIP3    H278582   3.706   5.079  15.635  0.9691 -1.5897 -0.3771
19031TIP3   OH278583   4.020   4.250  14.189  0.0030 -0.2100  0.2457
19031TIP3    H178584   4.002   4.271  14.097 -0.9986  1.6695  0.8144
19031TIP3    H278585   3.949   4.292  14.237  0.0350 -1.8725  1.8489
19032TIP3   OH278586   5.239   1.207  16.353 -0.3351  0.1082 -0.0338
19032TIP3    H178587   5.145   1.229  16.350 -0.1630  0.7896 -2.2823
19032TIP3    H278588   5.280   1.275  16.299  1.5057 -0.0533  1.1079
19033TIP3   OH278589   5.234   2.470   1.124 -0.4546 -0.3006 -0.0049
19033TIP3    H178590   5.270   2.531   1.188 -0.0312 -1.4530  0.8944
19033TIP3    H278591   5.255   2.509   1.039 -0.5186  0.9678  0.5480
19034TIP3   OH278592   3.925   0.385   4.549 -0.3698  0.4770  0.8828
19034TIP3    H178593   3.858   0.436   4.503 -0.0363  1.1849  1.1567
19034TIP3    H278594   3.965   0.448   4.609  1.0247  0.2721  0.2185
19035TIP3   OH278595   5.303   4.210  10.603  0.1373 -0.2748  0.1196
19035TIP3    H178596   5.285   4.160  10.683 -0.8395  2.4677  1.7233
19035TIP3    H278597   5.217   4.217  10.560  0.6889 -1.9099 -1.3902
19036TIP3   OH278598   4.198   6.596   0.280  0.1304 -0.4964  0.0266
19036TIP3    H178599   4.129   6.661   0.292  0.6850  0.2112 -0.5800
19036TIP3    H278600   4.255   6.633   0.213  0.5946 -1.4942 -0.1511
19037TIP3   OH278601   1.978   6.349   2.872  0.1883 -0.4607 -0.0495
19037TIP3    H178602   1.994   6.442   2.890  2.4796 -0.2885 -2.3247
19037TIP3    H278603   1.950   6.346   2.781  0.2683 -1.9924 -0.0551
19038TIP3   OH278604   2.430   1.612   4.135 -0.2275  0.6939 -0.1450
19038TIP3    H178605   2.418   1.524   4.100 -1.0710  0.9858 -0.6425
19038TIP3    H278606   2.372   1.667   4.081 -1.1050  1.2617  1.3135
19039TIP3   OH278607   4.979   4.073   0.980 -0.1282  0.2717 -0.1047
19039TIP3    H178608   4.912   4.136   1.006 -0.9217  0.0317 -1.5073
19039TIP3    H278609   5.043   4.125   0.932 -0.8698  0.0180 -1.4126
19040TIP3   OH278610   5.681   5.622  14.411  0.5298  0.4051  0.2361
19040TIP3    H178611   5.693   5.532  14.383 -2.4013 -0.2065  0.6175
19040TIP3    H278612   5.675   5.672  14.329  2.4325  0.3517  0.0310
19041TIP3   OH278613   4.815   0.893  14.797 -0.3642 -0.2389  0.1556
19041TIP3    H178614   4.750   0.867  14.862 -0.5857  0.7025  0.3283
19041TIP3    H278615   4.764   0.911  14.718 -0.2619  0.0473  0.1547
19042TIP3   OH278616   2.825   4.091  16.570  0.1846  0.3518 -0.6757
19042TIP3    H178617   2.816   4.184  16.547 -0.5278  0.5053  0.1530
19042TIP3    H278618   2.907   4.064  16.528 -0.0570  1.1121 -1.6799
19043TIP3   OH278619   0.202   5.662  13.207  0.5424  0.7090  0.0800
19043TIP3    H178620   0.262   5.720  13.252  0.5826  0.0337  0.9200
19043TIP3    H278621   0.257   5.593  13.170  0.3076  0.0731  0.8750
19044TIP3   OH278622   6.605   0.090  16.327 -0.0572  0.1066 -0.4806
19044TIP3    H178623   6.691   0.120  16.297  0.1696  1.0843  1.0795
19044TIP3    H278624   6.618  -0.002  16.348  0.4091  0.0531 -0.9667
19045TIP3   OH278625   1.568   2.754   6.472 -0.1206 -0.1760  0.2104
19045TIP3    H178626   1.580   2.663   6.499 -1.0986 -0.3603  0.0635
19045TIP3    H278627   1.656   2.787   6.459  0.3272 -0.5621  2.0390
19046TIP3   OH278628   1.082   0.200   2.297  0.1143  0.1137 -0.6197
19046TIP3    H178629   1.052   0.141   2.366  0.7075 -0.2740 -0.6866
19046TIP3    H278630   1.074   0.287   2.335  0.2972 -0.0866 -0.1113
19047TIP3   OH278631   3.286   6.353   6.161  0.6609  0.0420  0.3406
19047TIP3    H178632   3.266   6.435   6.115 -2.2603  0.5153  2.1556
19047TIP3    H278633   3.327   6.381   6.243  0.9558 -0.4192  0.3534
19048TIP3   OH278634   1.993   0.710  14.886  0.0095  0.0859 -0.2210
19048TIP3    H178635   1.971   0.638  14.826  0.8612 -1.0973  0.8280
19048TIP3    H278636   1.966   0.679  14.972  1.9908  0.2385  0.5187
19049TIP3   OH278637   6.831   0.483   0.333  0.0734 -0.4501 -0.3952
19049TIP3    H178638   6.750   0.481   0.384 -0.6107  1.2363 -1.3439
19049TIP3    H278639   6.868   0.396   0.344 -1.5869 -1.0913  0.5055
19050TIP3   OH278640   6.083   4.208   3.554 -0.7527 -0.2067 -0.6310
19050TIP3    H178641   6.028   4.280   3.585  0.3666  0.8859 -1.0751
19050TIP3    H278642   6.161   4.212   3.609  0.0155 -0.0410 -1.6796
19051TIP3   OH278643   3.289   2.823   3.112  0.5736  0.3521  0.2156
19051TIP3    H178644   3.253   2.896   3.061 -1.4768 -0.1771  0.8054
19051TIP3    H278645   3.342   2.774   3.049 -0.3976  0.7365 -0.9542
19052TIP3   OH278646   0.255   6.449  10.991  1.3434  0.1527  0.3471
19052TIP3    H178647   0.182   6.442  10.930 -0.0409 -0.6107  2.0056
19052TIP3    H278648   0.322   6.390  10.957  0.7177 -0.0501 -0.5538
19053TIP3   OH278649   1.184   5.415   3.316 -0.2479  0.2258 -0.0617
19053TIP3    H178650   1.207   5.354   3.246 -0.0229 -0.3574  0.5171
19053TIP3    H278651   1.088   5.408   3.323 -0.2328  0.0253 -0.0655
19054TIP3   OH278652   1.984   1.573   1.474  0.4678  0.1249  0.2043
19054TIP3    H178653   1.951   1.657   1.506  1.3891  0.4782  0.2621
19054TIP3    H278654   1.924   1.508   1.511 -0.7528  0.7999 -0.5175
19055TIP3   OH278655   6.518   1.262  16.385  0.2339 -0.2566 -0.6532
19055TIP3    H178656   6.496   1.222  16.301 -0.3193  0.7890 -1.0283
19055TIP3    H278657   6.437   1.306  16.412  0.8508  0.6925 -0.3122
19056TIP3   OH278658   1.125   5.134  16.981 -0.2925 -0.0856  0.1336
19056TIP3    H178659   1.182   5.210  16.989  0.3168 -0.5767  0.5103
19056TIP3    H278660   1.182   5.059  16.997 -1.0074 -0.5915  0.3609
19057TIP3   OH278661   2.178   0.622   1.041  0.3001  0.2551 -0.5619
19057TIP3    H178662   2.175   0.544   0.985  1.2326  0.5939 -1.1015
19057TIP3    H278663   2.091   0.662   1.032 -0.5835 -1.2905  0.5865
19058TIP3   OH278664   5.728   3.481  11.533 -0.0126 -0.0333  0.0187
19058TIP3    H178665   5.752   3.402  11.485  0.7815  0.7032 -0.8218
19058TIP3    H278666   5.794   3.488  11.602 -0.4862 -0.4682  0.5240
19059TIP3   OH278667   6.200   2.368  13.883  0.7393  0.7137 -0.0584
19059TIP3    H178668   6.249   2.295  13.921 -0.5615 -0.7784 -1.1528
19059TIP3    H278669   6.252   2.395  13.808  0.8730  0.4537 -0.0605
19060TIP3   OH278670   5.121   3.072   0.147  0.4031 -0.0960  0.7690
19060TIP3    H178671   5.159   3.017   0.079 -0.9254 -0.3416  0.1929
19060TIP3    H278672   5.040   3.028   0.172  0.5141  0.3540  2.0328
19061TIP3   OH278673   3.755   0.453  15.793  0.0448 -0.0269  0.2639
19061TIP3    H178674   3.781   0.376  15.743  0.5204  1.1282 -1.3490
19061TIP3    H278675   3.836   0.488  15.828 -0.1112  0.0134  0.5888
19062TIP3   OH278676   3.431   1.807  14.469  0.1033 -0.2716  0.0273
19062TIP3    H178677   3.362   1.744  14.447  1.0816 -1.0778 -0.8612
19062TIP3    H278678   3.488   1.758  14.529  0.0763  0.2807  0.5057
19063TIP3   OH278679   5.187   1.462   2.109  0.3478  0.3685 -0.1900
19063TIP3    H178680   5.267   1.467   2.058 -0.4903 -0.0316 -1.5935
19063TIP3    H278681   5.203   1.392   2.173  0.6342 -0.6646 -1.3634
19064TIP3   OH278682   5.180   0.574   1.914 -0.4782 -0.6713  0.3414
19064TIP3    H178683   5.219   0.662   1.916  1.6522 -1.5488  0.3363
19064TIP3    H278684   5.212   0.536   1.832 -2.4399 -1.0384 -0.3005
19065TIP3   OH278685   4.349   2.464  13.354 -0.0736 -0.1105 -0.0472
19065TIP3    H178686   4.401   2.395  13.395  0.9475  1.1544  0.8607
19065TIP3    H278687   4.317   2.517  13.427 -1.0605  0.2460 -0.7083
19066TIP3   OH278688   6.724   5.675   0.080 -0.3549 -0.1349 -0.0549
19066TIP3    H178689   6.754   5.610   0.016  1.7076  2.0503 -1.4694
19066TIP3    H278690   6.803   5.701   0.127 -1.5515 -0.3860  2.2352
19067TIP3   OH278691   4.334   1.314  11.662 -0.4358 -0.4940 -0.7945
19067TIP3    H178692   4.266   1.382  11.656  0.1589  0.1723 -0.1125
19067TIP3    H278693   4.287   1.236  11.691 -1.3242 -0.6967 -2.6338
19068TIP3   OH278694   6.530   2.885   0.964 -0.0342  0.4347 -0.4352
19068TIP3    H178695   6.518   2.851   1.053 -0.8465  1.2325 -0.2254
19068TIP3    H278696   6.444   2.874   0.923 -0.1757  1.7326 -0.5245
19069TIP3   OH278697   5.393   2.244  14.356 -0.1660 -0.1356  0.1019
19069TIP3    H178698   5.359   2.192  14.429 -0.4352  0.1968  0.2091
19069TIP3    H278699   5.481   2.207  14.341 -0.2921 -0.5193  0.2803
19070TIP3   OH278700   1.599   5.275   2.465  0.0407  0.1884  0.1471
19070TIP3    H178701   1.550   5.235   2.393  1.6941 -1.3321 -0.2382
19070TIP3    H278702   1.533   5.300   2.529 -1.4190  0.7876 -1.4973
19071TIP3   OH278703   0.262   4.102  11.230  0.0522  0.2739 -0.0622
19071TIP3    H178704   0.168   4.105  11.243  0.1737 -0.6553  1.3415
19071TIP3    H278705   0.274   4.047  11.153 -0.5148 -2.8705  1.9069
19072TIP3   OH278706   0.630   0.247  15.265  0.0877 -0.4406  0.2299
19072TIP3    H178707   0.694   0.317  15.248 -0.3533  0.0821  0.6824
19072TIP3    H278708   0.679   0.183  15.318  0.6067 -0.6688 -0.5144
19073TIP3   OH278709   4.971   1.434  15.919  0.1052  0.1087  0.2084
19073TIP3    H178710   4.951   1.479  15.837  1.1655  2.1613  1.0061
19073TIP3    H278711   4.886   1.402  15.950 -0.8918  2.4446  0.0671
19074TIP3   OH278712   1.724   4.876  13.328  0.3991  0.4945 -0.3371
19074TIP3    H178713   1.727   4.852  13.236  0.5393 -0.9083  0.0176
19074TIP3    H278714   1.666   4.952  13.331  0.8823  0.9341 -1.6453
19075TIP3   OH278715   4.754   3.532  12.448 -0.5229  0.1333  0.5427
19075TIP3    H178716   4.750   3.566  12.359  2.1344  0.6289  0.5194
19075TIP3    H278717   4.662   3.526  12.476 -1.4221  0.0336 -2.1495
19076TIP3   OH278718   6.675   0.516  14.050  0.3938  0.4726  0.4194
19076TIP3    H178719   6.718   0.515  13.965  1.4624 -0.4472  0.9424
19076TIP3    H278720   6.703   0.597  14.091  0.9416  0.2928  0.4064
19077TIP3   OH278721   0.370   1.727  12.591  0.0431 -0.0776 -0.2875
19077TIP3    H178722   0.413   1.729  12.676 -0.7229  1.3760  0.1047
19077TIP3    H278723   0.392   1.811  12.550 -1.0124 -0.0162 -0.7796
19078TIP3   OH278724   4.967   4.657   6.018  0.1486 -0.3225  0.4075
19078TIP3    H178725   4.966   4.584   6.080  0.3147 -0.2655  0.4797
19078TIP3    H278726   4.966   4.736   6.073  0.4053 -0.2717  0.3433
19079TIP3   OH278727   1.098   0.234  13.841  0.4769  0.0456  0.7353
19079TIP3    H178728   1.005   0.224  13.820  0.3759  0.6775  0.8802
19079TIP3    H278729   1.143   0.180  13.776  0.1427  1.4897 -0.7408
19080TIP3   OH278730   0.019   1.687  15.757 -0.4181 -0.2246 -0.2901
19080TIP3    H178731  -0.043   1.614  15.757 -0.5047 -0.2516  2.6727
19080TIP3    H278732   0.048   1.694  15.847  1.2289  2.0765 -0.9167
19081TIP3   OH278733   0.954   4.966  16.174 -0.3296 -0.2080 -0.2121
19081TIP3    H178734   0.881   5.013  16.214  0.4105  0.3303  0.5434
19081TIP3    H278735   0.926   4.874  16.174 -2.6116  0.3227 -3.4650
19082TIP3   OH278736   2.478   4.800   5.229 -0.2318  0.0105 -0.9432
19082TIP3    H178737   2.566   4.836   5.216 -0.2703  0.0065 -1.2244
19082TIP3    H278738   2.419   4.874   5.214 -0.2894 -0.0525 -1.0290
19083TIP3   OH278739   0.582   3.031   5.986  0.1908 -0.2094  0.3353
19083TIP3    H178740   0.539   2.980   5.916  0.6170  0.3196 -0.3212
19083TIP3    H278741   0.509   3.064   6.039 -0.1683 -0.1959 -0.1537
19084TIP3   OH278742   4.218   3.460  11.867 -0.0442 -0.0089  0.1749
19084TIP3    H178743   4.140   3.510  11.841 -0.5721 -0.4056  0.9863
19084TIP3    H278744   4.184   3.384  11.914  0.6974 -1.6433 -1.7887
19085TIP3   OH278745   0.233   3.619  15.883  0.6660 -0.5149  0.5989
19085TIP3    H178746   0.204   3.660  15.965 -0.9154  0.1046 -0.2195
19085TIP3    H278747   0.328   3.630  15.883  0.3893  3.5421  0.3295
19086TIP3   OH278748   4.778   2.409  11.499  0.2481 -0.4929 -0.5346
19086TIP3    H178749   4.698   2.431  11.451 -0.0017 -1.7437 -0.7324
19086TIP3    H278750   4.794   2.485  11.555 -0.9826 -0.1487 -0.6136
19087TIP3   OH278751   6.076   4.182  12.525 -0.2723  0.0352 -0.3741
19087TIP3    H178752   6.133   4.119  12.480  0.4777  0.1229  0.4232
19087TIP3    H278753   6.137   4.239  12.573 -0.9474  1.2166 -0.8692
19088TIP3   OH278754   3.972   1.062   3.890  0.3632  0.2851  0.0996
19088TIP3    H178755   3.950   1.074   3.982 -0.0652  1.4628 -0.1381
19088TIP3    H278756   4.028   0.984   3.888  0.0707  0.0326  1.3001
19089TIP3   OH278757   2.115   1.107   5.337 -0.2194 -0.3584 -0.2194
19089TIP3    H178758   2.185   1.042   5.336 -2.5807 -3.0822 -0.4146
19089TIP3    H278759   2.138   1.168   5.267  2.4783 -0.4452  0.4769
19090TIP3   OH278760   4.687   0.222  15.082 -0.0899  0.2046  0.1184
19090TIP3    H178761   4.648   0.135  15.069 -0.3089  0.3273 -0.0486
19090TIP3    H278762   4.777   0.204  15.107 -0.4699 -0.0998  1.3339
19091TIP3   OH278763   4.234   2.851   5.431  0.3822 -0.5581 -0.0959
19091TIP3    H178764   4.261   2.887   5.347  1.1443 -1.1673 -0.1211
19091TIP3    H278765   4.178   2.919   5.470  1.3449  0.4163 -0.3692
19092TIP3   OH278766   3.564   0.961   1.844 -0.5527 -1.0471  0.4123
19092TIP3    H178767   3.605   0.874   1.841  3.3484  0.5996  0.5770
19092TIP3    H278768   3.566   0.991   1.753 -0.7730 -0.6373  0.5441
19093TIP3   OH278769   3.417   1.910   4.402 -0.1047  0.0714  0.2530
19093TIP3    H178770   3.406   1.927   4.308 -1.5409 -2.1407 -0.0645
19093TIP3    H278771   3.512   1.901   4.414  0.1581  1.2291 -0.7948
19094TIP3   OH278772   1.277   3.791  11.812  0.7876  0.3685  0.1983
19094TIP3    H178773   1.304   3.800  11.720  0.5875  0.7378  0.1726
19094TIP3    H278774   1.356   3.811  11.862  1.7349 -2.6417  0.1152
19095TIP3   OH278775   4.989   5.097  13.676 -0.6073  0.0275 -0.2063
19095TIP3    H178776   4.965   5.181  13.714 -0.8046  0.1904 -0.6773
19095TIP3    H278777   4.907   5.047  13.675 -0.2714 -0.5906  1.0955
19096TIP3   OH278778   5.700   1.116   4.854  0.1357 -0.0242 -0.8473
19096TIP3    H178779   5.781   1.167   4.853 -0.1489  0.4359 -0.6346
19096TIP3    H278780   5.634   1.176   4.888  0.1156 -1.0061  0.9822
19097TIP3   OH278781   1.946   1.301   2.971  0.3294  0.0249 -0.3951
19097TIP3    H178782   1.900   1.305   3.055  3.0567 -0.7511  1.2632
19097TIP3    H278783   1.877   1.284   2.907 -1.7418 -0.4516  1.8150
19098TIP3   OH278784   0.823   1.198   0.474  0.5688  0.1401 -0.3705
19098TIP3    H178785   0.908   1.190   0.432  0.8691 -0.3229  0.3007
19098TIP3    H278786   0.769   1.130   0.432  0.1857  1.1603 -1.5745
19099TIP3   OH278787   3.601   2.755  14.603  0.2667  0.6090  0.0455
19099TIP3    H178788   3.658   2.678  14.604 -0.6641 -0.1017  0.1635
19099TIP3    H278789   3.612   2.794  14.690  0.7063  0.5815  0.0021
19100TIP3   OH278790   5.465   1.214   4.527  0.1649 -0.3509  0.1113
19100TIP3    H178791   5.413   1.288   4.557 -0.6604 -0.6279 -0.5917
19100TIP3    H278792   5.527   1.252   4.464 -1.2585 -0.4404 -1.4047
19101TIP3   OH278793   4.862   3.299  12.255 -0.3942  0.1038  0.1933
19101TIP3    H178794   4.832   3.378  12.211  0.1195  0.2082  0.0262
19101TIP3    H278795   4.785   3.266  12.302 -0.7151  0.4682 -0.0811
19102TIP3   OH278796   3.358   6.141  16.896  0.3851  0.1299  0.5289
19102TIP3    H178797   3.351   6.210  16.830  2.1873 -1.9521 -2.0493
19102TIP3    H278798   3.288   6.080  16.874  0.8027 -0.4252  0.7123
19103TIP3   OH278799   3.581   1.974   6.444 -0.0469 -0.5417  0.4916
19103TIP3    H178800   3.528   2.054   6.449  1.1119  0.3272 -0.4833
19103TIP3    H278801   3.660   2.001   6.396  1.9890 -1.3877  3.1224
19104TIP3   OH278802   3.719   0.020  11.236  0.1123  0.2368  0.3927
19104TIP3    H178803   3.709  -0.018  11.148  0.7051  0.4419  0.2332
19104TIP3    H278804   3.768   0.101  11.221  0.7682 -0.0459  0.9894
19105TIP3   OH278805   1.200   5.551   1.033 -0.3025  0.6157  0.5135
19105TIP3    H178806   1.154   5.632   1.054  0.1044  0.7681  0.8169
19105TIP3    H278807   1.220   5.558   0.939 -0.9536  0.5169  0.3631
19106TIP3   OH278808   3.534   4.080  14.534  0.2301 -0.0105 -0.1758
19106TIP3    H178809   3.532   3.984  14.529 -0.6653 -0.0429  0.4140
19106TIP3    H278810   3.468   4.109  14.471  0.8988  0.2468 -0.7639
19107TIP3   OH278811   2.303   2.698  14.628 -0.4597  0.0509 -0.1782
19107TIP3    H178812   2.334   2.735  14.545 -0.7560 -1.7990 -1.1767
19107TIP3    H278813   2.376   2.711  14.688  0.4335 -0.0353 -1.1988
19108TIP3   OH278814   6.774   1.262   3.064  0.2384  0.1291 -0.0443
19108TIP3    H178815   6.679   1.255   3.057  0.1173  1.9419 -0.7295
19108TIP3    H278816   6.788   1.333   3.127  1.0878  1.2551 -1.4493
19109TIP3   OH278817   4.144   1.015   4.981  0.1885 -0.4709  0.4787
19109TIP3    H178818   4.218   1.046   5.033 -0.2859  0.8074  0.4241
19109TIP3    H278819   4.143   1.072   4.904  0.8907 -2.3473 -1.0031
19110TIP3   OH278820   3.716   4.516  13.963 -0.3956 -0.3948 -0.4847
19110TIP3    H178821   3.643   4.458  13.985 -0.0351 -0.2877  1.0947
19110TIP3    H278822   3.729   4.569  14.042  1.0577 -0.0678 -0.9271
19111TIP3   OH278823   2.558   0.790  15.200 -0.2630 -0.1388  0.5796
19111TIP3    H178824   2.513   0.705  15.198 -0.0098 -0.2793  0.7836
19111TIP3    H278825   2.533   0.832  15.118 -1.5614  0.2016  1.1346
19112TIP3   OH278826   4.190   2.167  13.683  0.6010  0.0299  0.5694
19112TIP3    H178827   4.116   2.195  13.737 -1.3479 -1.2693 -1.2939
19112TIP3    H278828   4.172   2.203  13.597  0.9939 -2.0883 -0.4551
19113TIP3   OH278829   4.952   2.714  15.563 -0.4022 -0.1846  0.1577
19113TIP3    H178830   4.918   2.786  15.510 -0.2543  0.5552  1.0395
19113TIP3    H278831   4.920   2.732  15.652  0.7227 -0.4797  0.6444
19114TIP3   OH278832   5.275   2.809   2.306  0.4052  0.7497 -0.2986
19114TIP3    H178833   5.364   2.845   2.310  0.1452  1.5035 -1.1052
19114TIP3    H278834   5.267   2.775   2.216  0.0159  0.3092 -0.1031
19115TIP3   OH278835   3.981   4.642  13.985 -0.0787  0.5628 -0.1179
19115TIP3    H178836   4.070   4.660  13.956  0.1740 -2.8343 -1.8868
19115TIP3    H278837   3.931   4.631  13.904 -1.5161 -0.1440  0.8314
19116TIP3   OH278838   4.178   0.258  11.544 -0.4310 -0.6365 -0.5130
19116TIP3    H178839   4.218   0.183  11.499 -0.1251  0.4260 -2.1313
19116TIP3    H278840   4.248   0.323  11.546 -1.9563  1.3429 -3.5638
19117TIP3   OH278841   4.177   2.664  14.338  0.2904 -0.4977  0.4671
19117TIP3    H178842   4.249   2.716  14.373  1.2981 -1.3115 -0.3386
19117TIP3    H278843   4.151   2.709  14.258  2.3358 -2.0745 -1.1981
19118TIP3   OH278844   5.387   1.596  16.287 -0.2177 -0.0456 -0.4198
19118TIP3    H178845   5.317   1.564  16.230 -0.8403 -0.1743  0.4077
19118TIP3    H278846   5.393   1.690  16.267 -1.1322  0.1145  0.0207
19119TIP3   OH278847   1.007   5.120  10.849 -0.3083  0.2082  0.3393
19119TIP3    H178848   0.944   5.047  10.851  0.7805 -0.7645  0.0152
19119TIP3    H278849   1.086   5.085  10.888  0.5148  0.9567 -0.5925
19120TIP3   OH278850   5.514   3.733   6.578 -0.8206  0.2049 -0.3690
19120TIP3    H178851   5.504   3.647   6.617 -0.9968 -0.0570 -0.9847
19120TIP3    H278852   5.456   3.790   6.629 -0.4329  0.0417  0.2650
19121TIP3   OH278853   3.801   0.333   5.447 -0.5599 -0.3678 -0.2714
19121TIP3    H178854   3.757   0.404   5.495  1.2720  0.4434  0.3094
19121TIP3    H278855   3.848   0.378   5.377 -0.3531 -1.1664 -0.6526
19122TIP3   OH278856   4.384   1.670  11.325 -0.1555 -0.3973  0.4442
19122TIP3    H178857   4.463   1.723  11.313  0.2474 -0.9412  0.6547
19122TIP3    H278858   4.364   1.636  11.237  0.4797 -1.1399  0.5796
19123TIP3   OH278859   3.936   1.060  11.432 -0.2826  0.1538 -0.5221
19123TIP3    H178860   3.989   1.021  11.362 -0.6431 -0.6659 -0.3564
19123TIP3    H278861   3.953   1.154  11.426  1.9938 -0.1496  0.1870
19124TIP3   OH278862   5.865   6.545  11.070  0.4942  0.6435  0.1812
19124TIP3    H178863   5.933   6.582  11.013  0.3911  0.4803 -0.0489
19124TIP3    H278864   5.796   6.611  11.071 -0.7767 -0.5037 -2.1760
19125TIP3   OH278865   0.060   2.009   1.736  0.5425 -0.1333  0.2532
19125TIP3    H178866   0.143   2.056   1.742  1.0634 -1.1189  0.9247
19125TIP3    H278867   0.083   1.917   1.748 -0.6003 -0.4646  0.0428
19126TIP3   OH278868   6.617   6.191  16.959  0.4946 -0.1176 -0.0788
19126TIP3    H178869   6.687   6.209  16.896 -1.3499 -0.9326 -2.5103
19126TIP3    H278870   6.636   6.103  16.991  1.8911  0.6064  1.2237
19127TIP3   OH278871   4.858   3.924  16.514  0.1749  0.3627  0.1070
19127TIP3    H178872   4.933   3.868  16.495  0.5871  1.1088 -0.5562
19127TIP3    H278873   4.871   4.000  16.458 -0.9411  0.6282  0.1934
19128TIP3   OH278874   0.317   4.713   0.183 -0.2807  0.9440 -0.1927
19128TIP3    H178875   0.330   4.686   0.274 -0.3242  1.0550 -0.1527
19128TIP3    H278876   0.354   4.642   0.131  1.2579  1.6236 -0.0842
19129TIP3   OH278877   6.460   0.054   1.455  0.7054 -0.1565 -0.0403
19129TIP3    H178878   6.520  -0.019   1.441 -0.8910 -1.2905 -1.2536
19129TIP3    H278879   6.469   0.108   1.376 -0.6562 -0.9547 -0.7810
19130TIP3   OH278880   4.310   0.925   0.147  0.0743 -0.0462  0.0075
19130TIP3    H178881   4.381   0.929   0.083 -0.9891  1.0408 -1.1735
19130TIP3    H278882   4.241   0.874   0.104 -0.1400 -0.4960  0.8511
19131TIP3   OH278883   3.017   4.143  12.728  0.3442  0.8823 -0.2372
19131TIP3    H178884   3.057   4.193  12.799 -1.2413  0.6955  0.8403
19131TIP3    H278885   2.988   4.209  12.665  4.2269  0.9741 -2.2508
19132TIP3   OH278886   6.493   0.277  13.536  0.2731  0.5766  0.1297
19132TIP3    H178887   6.513   0.228  13.615 -0.1948  0.9696  0.5004
19132TIP3    H278888   6.452   0.357  13.568 -1.8948 -0.1952 -0.5892
19133TIP3   OH278889   4.238   3.185  13.110  0.1277  0.3185 -0.3069
19133TIP3    H178890   4.186   3.180  13.030  1.0699  0.0104 -0.9220
19133TIP3    H278891   4.217   3.105  13.158 -0.1086  0.2937 -0.4522
19134TIP3   OH278892   5.042   5.643   2.042  0.1593  0.1352  0.0486
19134TIP3    H178893   4.976   5.697   2.000 -0.5273  0.4549  1.4795
19134TIP3    H278894   5.107   5.627   1.974 -1.5492 -0.4975 -1.5223
19135TIP3   OH278895   0.882   2.015  13.277  0.0845 -0.1689 -0.4055
19135TIP3    H178896   0.918   1.935  13.316  0.9824 -0.1937 -1.2645
19135TIP3    H278897   0.959   2.063  13.247 -0.2369  2.0103  1.8905
19136TIP3   OH278898   3.066   0.807  16.098 -0.1031  0.1140  0.0699
19136TIP3    H178899   3.097   0.768  16.180 -1.0370 -0.6321  0.0885
19136TIP3    H278900   3.105   0.753  16.030  1.2986  1.2022 -0.0223
19137TIP3   OH278901   1.874   1.625  11.747 -0.4442  0.9780  0.0494
19137TIP3    H178902   1.868   1.634  11.652  1.8287  0.9042 -0.1777
19137TIP3    H278903   1.919   1.705  11.775 -0.5372  0.7116  0.9800
19138TIP3   OH278904   4.532   3.635   1.740  0.2809  0.4860  0.2255
19138TIP3    H178905   4.463   3.624   1.805 -0.2817  0.3015 -0.3827
19138TIP3    H278906   4.545   3.729   1.733 -0.6874  0.5868 -0.4290
19139TIP3   OH278907   1.364   6.818  15.694 -0.2021 -0.3241 -0.1730
19139TIP3    H178908   1.446   6.780  15.727  0.3298  1.5557  0.8324
19139TIP3    H278909   1.365   6.798  15.600  1.3567 -0.4433 -0.1623
19140TIP3   OH278910   1.379   1.345  10.460 -0.1934 -0.1340  0.4160
19140TIP3    H178911   1.398   1.435  10.486  1.9755 -0.0844 -1.0506
19140TIP3    H278912   1.296   1.351  10.411 -0.1902  1.0256  0.5275
19141TIP3   OH278913   4.115   1.108  16.948 -0.3256 -0.0065  0.5031
19141TIP3    H178914   4.200   1.146  16.969  0.2082  0.3261 -1.9733
19141TIP3    H278915   4.134   1.033  16.891 -1.6626 -0.2710  0.3482
19142TIP3   OH278916   5.057   3.331   1.178  0.5443  0.1209  0.6509
19142TIP3    H178917   5.030   3.325   1.269  1.0536  1.1175  0.8811
19142TIP3    H278918   4.986   3.288   1.129  0.2063 -0.3060  1.4953
19143TIP3   OH278919   2.310   6.494  17.132 -0.2091 -0.2355 -0.3378
19143TIP3    H178920   2.302   6.590  17.126  1.0319 -0.1011 -0.1332
19143TIP3    H278921   2.247   6.469  17.199 -0.2042  0.5084 -0.0478
19144TIP3   OH278922   2.902   2.562   1.221 -0.0394 -0.5221 -0.1534
19144TIP3    H178923   2.951   2.524   1.149  0.1452  0.4317 -0.5373
19144TIP3    H278924   2.839   2.620   1.180  1.0113  1.1328  0.4913
19145TIP3   OH278925   0.748   4.956  15.242  0.7784  0.0029 -0.3068
19145TIP3    H178926   0.715   4.866  15.244 -1.4231  0.6387 -2.4940
19145TIP3    H278927   0.671   5.011  15.257  2.1655  1.5711  1.5199
19146TIP3   OH278928   6.123   5.697   3.001 -0.0999 -0.5883 -0.1713
19146TIP3    H178929   6.129   5.765   2.934 -2.3657 -0.1388  0.0171
19146TIP3    H278930   6.066   5.735   3.069  1.6168 -1.2575  1.7635
19147TIP3   OH278931   4.690   4.829   0.680  0.1870  0.0165 -0.3391
19147TIP3    H178932   4.619   4.886   0.709  0.4510  0.6162 -0.8259
19147TIP3    H278933   4.678   4.748   0.730  0.6251  0.9816  1.4228
19148TIP3   OH278934   5.992   3.443   0.232 -0.0856  0.1245  0.0332
19148TIP3    H178935   5.967   3.516   0.288 -0.5596  0.2164 -0.3001
19148TIP3    H278936   6.001   3.369   0.293 -1.5153  0.0022  0.1202
19149TIP3   OH278937   4.932   1.482   3.420 -0.3644  0.3682  0.7024
19149TIP3    H178938   4.962   1.559   3.371 -0.3699  1.5956  2.5134
19149TIP3    H278939   4.867   1.442   3.364  0.3479  1.1234 -0.7219
19150TIP3   OH278940   2.636   5.775  13.791  0.3316  0.4842  0.1644
19150TIP3    H178941   2.659   5.787  13.883 -0.3711  1.0209  0.2752
19150TIP3    H278942   2.559   5.831  13.778 -0.5891 -0.8535 -0.3266
19151TIP3   OH278943   2.817   4.855  13.404 -0.1745  0.2715 -0.8234
19151TIP3    H178944   2.875   4.914  13.356  1.2981 -0.0354  0.5062
19151TIP3    H278945   2.830   4.878  13.496 -1.5892 -0.3464 -0.4405
19152TIP3   OH278946   4.903   2.333  15.231  0.2179 -0.4740  0.1254
19152TIP3    H178947   4.875   2.292  15.313 -0.5862 -0.8247 -0.3089
19152TIP3    H278948   4.998   2.320  15.229  0.1957 -0.8126  0.8056
19153TIP3   OH278949   5.545   5.243  14.197  0.1642 -0.2741  0.1644
19153TIP3    H178950   5.608   5.305  14.235 -0.2623 -0.4807  1.2628
19153TIP3    H278951   5.597   5.164  14.178  0.4278 -0.0919  0.1277
19154TIP3   OH278952   5.137   0.738   3.638  0.3298 -0.1051 -0.1966
19154TIP3    H178953   5.115   0.665   3.581  0.3761 -0.0436 -0.2942
19154TIP3    H278954   5.211   0.707   3.690  2.7571  1.0540 -2.7191
19155TIP3   OH278955   0.414   5.997   4.317 -0.6628 -0.2790 -0.0082
19155TIP3    H178956   0.334   6.005   4.265 -0.1515  0.5466 -0.6917
19155TIP3    H278957   0.469   5.937   4.267 -0.8494 -0.8629  0.4714
19156TIP3   OH278958   3.310   2.586   5.246  0.2987 -0.3452  0.3789
19156TIP3    H178959   3.338   2.536   5.322 -2.0000 -1.0616  0.7984
19156TIP3    H278960   3.259   2.525   5.193 -0.3907  0.8537 -0.3962
19157TIP3   OH278961   5.261   2.941   2.729  0.1631  0.4757  0.2509
19157TIP3    H178962   5.295   2.853   2.710  0.8519  1.0481 -1.3059
19157TIP3    H278963   5.316   2.973   2.801 -0.1474 -0.3786  0.8868
19158TIP3   OH278964   1.726   2.830  17.015  0.4076 -0.2007  0.4406
19158TIP3    H178965   1.658   2.764  17.024 -0.2222  0.6183  2.1896
19158TIP3    H278966   1.774   2.827  17.098  2.5544 -0.7508 -0.7421
19159TIP3   OH278967   5.124   0.067   3.260 -0.2617  0.6022  0.4756
19159TIP3    H178968   5.061   0.054   3.189  0.6970  0.1442 -0.3122
19159TIP3    H278969   5.071   0.063   3.340 -1.1422 -0.4787 -0.1308
19160TIP3   OH278970   5.323   5.360   3.728 -0.0674  0.6441 -0.1197
19160TIP3    H178971   5.335   5.306   3.650 -1.2029  0.4704 -0.1903
19160TIP3    H278972   5.407   5.356   3.773  0.3718  0.1475 -0.9593
19161TIP3   OH278973   1.667   4.695  15.393 -0.8346 -0.1495  0.0056
19161TIP3    H178974   1.643   4.658  15.478 -0.6943  1.6481  0.8692
19161TIP3    H278975   1.614   4.774  15.386 -0.9765 -0.3708 -1.6871
19162TIP3   OH278976   2.371   5.806  12.376  0.0494 -0.0309 -0.2978
19162TIP3    H178977   2.428   5.822  12.301 -0.4096 -1.2276 -0.9144
19162TIP3    H278978   2.284   5.833  12.347  0.1921  1.3974  0.5037
19163TIP3   OH278979   5.942   4.164  14.499 -0.7670  0.2085  0.7062
19163TIP3    H178980   5.974   4.083  14.540 -0.6136  0.8314  1.8619
19163TIP3    H278981   5.898   4.134  14.420  0.9504 -0.8386  0.0897
19164TIP3   OH278982   4.320   5.701  15.297  0.3615  0.0039  0.3811
19164TIP3    H178983   4.334   5.614  15.336 -0.3044 -0.8868 -1.2502
19164TIP3    H278984   4.259   5.744  15.357  0.6907 -0.6510  1.2095
19165TIP3   OH278985   0.535   5.457   4.029 -0.0082  0.8793  0.2864
19165TIP3    H178986   0.612   5.507   4.056  2.0822 -1.4715 -0.7723
19165TIP3    H278987   0.541   5.455   3.933 -1.0096  0.1226  0.2218
19166TIP3   OH278988   1.770   5.598   4.347 -0.1119  0.2225 -0.0407
19166TIP3    H178989   1.713   5.521   4.355  0.6369 -0.2701  0.5784
19166TIP3    H278990   1.850   5.565   4.307 -0.7999  1.2044 -2.4378
19167TIP3   OH278991   2.329   5.780  13.067 -0.1185  0.5416  0.2921
19167TIP3    H178992   2.334   5.691  13.101  0.6787  0.0429 -1.0377
19167TIP3    H278993   2.394   5.829  13.117 -1.4815  0.7359  1.9505
19168TIP3   OH278994   3.347   6.151   3.684  0.1905  0.0677  0.2595
19168TIP3    H178995   3.437   6.128   3.708 -0.4848 -2.0616  0.9577
19168TIP3    H278996   3.332   6.236   3.726  1.0952 -0.6975  2.2515
19169TIP3   OH278997   5.176   4.142  14.138 -0.7607  0.1673  0.7569
19169TIP3    H178998   5.177   4.048  14.121 -1.0925  0.0861  1.1649
19169TIP3    H278999   5.164   4.182  14.052  1.5607 -0.0638  0.2689
19170TIP3   OH279000   4.296   3.865  12.442  0.4196 -0.1859  0.5935
19170TIP3    H179001   4.349   3.915  12.379  1.3279 -0.0333  1.4511
19170TIP3    H279002   4.297   3.775  12.409 -0.8670  0.2359 -0.7317
19171TIP3   OH279003   1.723   6.698   5.843 -0.0317 -0.0723 -0.5808
19171TIP3    H179004   1.656   6.712   5.776 -0.7436  0.9831  0.3047
19171TIP3    H279005   1.743   6.786   5.875  2.4252 -0.2702 -1.3840
19172TIP3   OH279006   4.304   3.442   3.851  0.2174 -0.2970  0.5112
19172TIP3    H179007   4.215   3.446   3.886 -0.0518 -0.3460 -0.1633
19172TIP3    H279008   4.296   3.474   3.761  0.5582 -2.0783 -0.1873
19173TIP3   OH279009   3.587   5.987   1.881 -0.0315 -0.5102  0.2523
19173TIP3    H179010   3.596   6.079   1.907  2.0547 -0.7719  0.6529
19173TIP3    H279011   3.616   5.986   1.789 -0.5930 -0.6907  0.0751
19174TIP3   OH279012   0.940   2.625  16.872 -0.3079 -0.1439  0.1529
19174TIP3    H179013   0.931   2.569  16.796  1.5635 -1.2143  0.6700
19174TIP3    H279014   0.850   2.646  16.898 -1.0871 -2.9869 -0.0135
19175TIP3   OH279015   6.580   5.994  12.124  0.2143  0.6447  0.3578
19175TIP3    H179016   6.517   5.954  12.184 -0.9266  2.1375  0.2145
19175TIP3    H279017   6.664   5.983  12.168 -0.4989  1.1056  1.9393
19176TIP3   OH279018   1.386   5.657   1.358  0.1373 -0.4953  0.0440
19176TIP3    H179019   1.410   5.620   1.273  1.6324  1.4701 -0.4821
19176TIP3    H279020   1.295   5.630   1.371 -0.0926 -0.9836 -2.1289
19177TIP3   OH279021   2.684   1.048  14.045  0.5724 -0.2010  0.3946
19177TIP3    H179022   2.759   1.105  14.061  0.4889 -0.5103  2.0125
19177TIP3    H279023   2.713   0.961  14.070  0.3840 -0.7395 -1.1499
19178TIP3   OH279024   3.985   5.687  11.682  0.4449 -0.1160  0.1464
19178TIP3    H179025   3.963   5.603  11.641 -1.0946 -0.0472  0.7803
19178TIP3    H279026   4.030   5.663  11.763  0.0090 -0.3377  0.3257
19179TIP3   OH279027   6.197   6.590  12.350  0.0380 -0.1948  0.1831
19179TIP3    H179028   6.160   6.517  12.400  0.1220 -0.5272 -0.2359
19179TIP3    H279029   6.264   6.626  12.408 -1.2784  0.7506  1.1724
19180TIP3   OH279030   3.415   0.682   0.120 -0.2897  0.1303 -0.0089
19180TIP3    H179031   3.390   0.769   0.090 -1.0104 -0.6178 -1.6846
19180TIP3    H279032   3.460   0.643   0.046 -0.3990 -1.0964  0.5439
19181TIP3   OH279033   5.724   1.380   0.148  0.0444  0.0070  0.1145
19181TIP3    H179034   5.768   1.312   0.097 -1.8638  0.1720 -1.9277
19181TIP3    H279035   5.684   1.333   0.222  0.3632 -0.7718 -0.1991
19182TIP3   OH279036   1.483   2.601   3.846 -0.1128 -0.1965  0.0911
19182TIP3    H179037   1.507   2.684   3.805 -0.8046  0.2298  0.5336
19182TIP3    H279038   1.551   2.540   3.818  0.0763  0.3698 -0.7265
19183TIP3   OH279039   6.547   1.983  13.416 -0.3200  0.3199  0.2314
19183TIP3    H179040   6.585   1.963  13.502 -3.6646 -2.8424  1.2433
19183TIP3    H279041   6.549   2.079  13.410  0.7787  0.6162  3.4736
19184TIP3   OH279042   6.119   5.605   6.179  0.4979 -0.5494  0.0852
19184TIP3    H179043   6.109   5.695   6.210  0.5203 -0.0133 -1.3812
19184TIP3    H279044   6.205   5.577   6.211 -0.1960 -0.6544  1.9420
19185TIP3   OH279045   2.159   6.469  13.130  0.2261  0.3434  0.1997
19185TIP3    H179046   2.144   6.500  13.220 -1.4596  2.1962 -0.6582
19185TIP3    H279047   2.126   6.539  13.074  0.6489 -1.0393 -1.8970
19186TIP3   OH279048   6.364   6.150   1.254  0.0467  0.6417 -0.1527
19186TIP3    H179049   6.269   6.151   1.246 -0.0347  1.5833  0.7970
19186TIP3    H279050   6.382   6.088   1.325  0.1079  0.8482  0.0138
19187TIP3   OH279051   3.938   2.896  11.837 -0.0104  0.1071 -0.7306
19187TIP3    H179052   3.930   2.806  11.806 -0.1910 -0.5591  1.1008
19187TIP3    H279053   4.031   2.906  11.857 -0.3131 -0.5207  1.2697
19188TIP3   OH279054   1.075   0.555   1.115 -0.0673 -0.4201 -0.8478
19188TIP3    H179055   1.068   0.650   1.111  3.1543 -0.0933 -2.0270
19188TIP3    H279056   1.022   0.523   1.042 -0.9297  0.4722 -0.6261
19189TIP3   OH279057   4.399   4.373  12.377  0.5233  0.3853  0.3057
19189TIP3    H179058   4.453   4.294  12.381 -0.4683 -0.3308  0.1061
19189TIP3    H279059   4.454   4.437  12.332  0.8727 -0.6054 -0.7282
19190TIP3   OH279060   0.249   3.474  10.819  0.0900 -0.4713 -0.3572
19190TIP3    H179061   0.160   3.500  10.840  0.5859 -1.0777  3.2855
19190TIP3    H279062   0.241   3.419  10.742 -2.2611  1.6514 -1.7694
19191TIP3   OH279063   5.476   6.090  16.056 -0.2579 -0.0278 -0.2208
19191TIP3    H179064   5.567   6.082  16.085 -0.3699  0.0494  0.1553
19191TIP3    H279065   5.482   6.139  15.974  0.1384 -1.0306 -0.8023
19192TIP3   OH279066   5.812   1.028  12.715  0.5095  0.7828 -0.3152
19192TIP3    H179067   5.745   1.055  12.778  0.2038 -1.6826  0.5402
19192TIP3    H279068   5.765   1.018  12.633 -0.0706 -0.1950  0.1093
19193TIP3   OH279069   1.489   2.869   2.374  0.2513  0.2831  0.4723
19193TIP3    H179070   1.420   2.836   2.317 -0.0980  2.1239 -0.2371
19193TIP3    H279071   1.498   2.802   2.442 -1.6917 -0.3612  0.1614
19194TIP3   OH279072   5.007   4.792   1.912  0.0231 -0.8986  0.1890
19194TIP3    H179073   5.004   4.700   1.883  0.1821 -1.0821  0.7449
19194TIP3    H279074   4.948   4.838   1.853 -0.3826 -1.4351  0.1756
19195TIP3   OH279075   4.000   1.805   1.488 -0.3239  0.3103 -0.4178
19195TIP3    H179076   4.029   1.881   1.539  2.3399 -0.3118 -0.8431
19195TIP3    H279077   3.926   1.837   1.436 -2.1735  1.3558  2.6397
19196TIP3   OH279078   0.741   3.537  14.997 -0.1329 -0.1955  0.5160
19196TIP3    H179079   0.666   3.535  15.055  0.5218  0.7960  1.4355
19196TIP3    H279080   0.816   3.551  15.055  0.6743 -0.3863 -0.4536
19197TIP3   OH279081   5.496   6.411   3.826  0.2295  0.6474  0.2518
19197TIP3    H179082   5.555   6.388   3.898 -1.1593 -1.7302  0.7299
19197TIP3    H279083   5.527   6.358   3.752 -2.4279 -2.4150  1.0981
19198TIP3   OH279084   0.482   3.971   0.873 -0.1859 -0.2475 -0.6632
19198TIP3    H179085   0.531   4.052   0.888  1.0859 -0.8891 -1.2089
19198TIP3    H279086   0.391   4.000   0.864  0.0889  0.9963  0.1852
19199TIP3   OH279087   5.506   4.275  14.096  0.6314  0.1185  0.3088
19199TIP3    H179088   5.445   4.315  14.034  0.9157 -1.6596 -1.2168
19199TIP3    H279089   5.521   4.342  14.162 -1.2888  1.3672 -0.4406
19200TIP3   OH279090   4.254   0.412  16.584  0.8531 -0.6664  0.2568
19200TIP3    H179091   4.294   0.446  16.664  1.0120 -1.0349  0.3372
19200TIP3    H279092   4.212   0.330  16.611 -0.2736 -0.1039  0.2517
19201TIP3   OH279093   2.093   2.733  16.721 -0.0923  0.4464  0.0266
19201TIP3    H179094   2.110   2.766  16.633 -0.1183 -1.5499 -0.8050
19201TIP3    H279095   2.172   2.684  16.744 -0.2403  0.6329  0.9649
19202TIP3   OH279096   4.302   6.727  13.785 -0.7066 -0.2322 -0.4759
19202TIP3    H179097   4.219   6.772  13.801 -0.2140  0.7795 -0.6627
19202TIP3    H279098   4.342   6.720  13.872 -1.4260 -1.6418 -0.2388
19203TIP3   OH279099   2.364   4.679  13.235  0.0351 -0.7414 -0.8466
19203TIP3    H179100   2.451   4.639  13.232 -0.0828 -1.0619 -0.1821
19203TIP3    H279101   2.352   4.703  13.326  0.6295  2.0458 -1.4145
19204TIP3   OH279102   6.151   6.637   4.209 -0.6998  0.2985 -0.3284
19204TIP3    H179103   6.183   6.549   4.229  2.4948  1.2547 -0.5537
19204TIP3    H279104   6.172   6.649   4.116  0.3076  1.7419  0.0471
19205TIP3   OH279105   5.792   5.657   2.492  1.0358 -0.1104 -0.0306
19205TIP3    H179106   5.843   5.705   2.427 -0.0792  0.5630 -0.4395
19205TIP3    H279107   5.841   5.668   2.574  1.6263  0.3813 -0.4411
19206TIP3   OH279108   0.206   2.167   5.305  0.1314 -0.0550 -0.3852
19206TIP3    H179109   0.193   2.232   5.374 -1.4049 -2.4187  1.7307
19206TIP3    H279110   0.289   2.125   5.326 -0.0976 -0.4336 -0.1983
19207TIP3   OH279111   1.594   3.668  16.661 -0.1850 -0.4703 -0.1426
19207TIP3    H179112   1.511   3.625  16.639 -1.6622  0.6954  2.6420
19207TIP3    H279113   1.575   3.762  16.649  1.0258 -0.2384 -0.3047
19208TIP3   OH279114   3.961   5.374   6.248 -0.1849  0.1060 -0.6905
19208TIP3    H179115   3.923   5.375   6.336 -1.1142 -1.4686 -1.0346
19208TIP3    H279116   4.028   5.306   6.251 -1.3996 -1.1979 -1.6127
19209TIP3   OH279117   3.419   4.056   0.717 -0.3251  0.2627 -0.0856
19209TIP3    H179118   3.490   3.992   0.723  0.2948  1.0623  1.7878
19209TIP3    H279119   3.406   4.069   0.623  0.6421 -1.3769 -0.4787
19210TIP3   OH279120   5.544   4.812   3.558  0.4298  0.2985  0.1961
19210TIP3    H179121   5.470   4.835   3.615  0.3377  1.7979 -0.5005
19210TIP3    H279122   5.509   4.744   3.500  0.0352 -0.0376  0.8144
19211TIP3   OH279123   2.353   1.817  14.921 -0.5217 -0.0713  0.4222
19211TIP3    H179124   2.278   1.830  14.862 -2.7549 -2.5915  2.4583
19211TIP3    H279125   2.355   1.898  14.973  0.2541  1.3528 -1.6706
19212TIP3   OH279126   2.592   2.510  13.833  0.3527  0.1012  0.1489
19212TIP3    H179127   2.520   2.488  13.773  1.1642 -1.9778 -0.1666
19212TIP3    H279128   2.565   2.474  13.917  0.2623  0.8941  0.4623
19213TIP3   OH279129   2.260   1.709   3.659  0.0015  0.3141 -0.3003
19213TIP3    H179130   2.186   1.705   3.598 -1.8667  1.4338  1.7422
19213TIP3    H279131   2.230   1.660   3.736  3.4560 -3.8181 -1.2132
19214TIP3   OH279132   2.715   5.945  16.425  0.2363 -0.3659 -0.0051
19214TIP3    H179133   2.713   5.962  16.331  2.4540 -0.0418 -0.0464
19214TIP3    H279134   2.772   6.013  16.461  0.8118 -1.4828  1.3154
19215TIP3   OH279135   4.304   5.520  16.469  0.4157  0.3939 -0.2091
19215TIP3    H179136   4.211   5.502  16.453  0.2870 -1.3867  2.0253
19215TIP3    H279137   4.339   5.545  16.383 -2.0483  0.8947 -1.1558
19216TIP3   OH279138   5.754   4.800  12.515 -0.9610  0.1271 -0.8230
19216TIP3    H179139   5.830   4.838  12.557 -2.2104  0.4901  1.2137
19216TIP3    H279140   5.773   4.807  12.421  0.5395  2.2025 -0.4398
19217TIP3   OH279141   3.384   5.274  11.058 -0.6306 -0.3330 -0.0126
19217TIP3    H179142   3.365   5.354  11.010 -1.5140 -0.8516 -0.5449
19217TIP3    H279143   3.413   5.212  10.992 -0.3801 -0.5921  0.3364
19218TIP3   OH279144   6.304   3.619  10.513  0.9281  0.1370 -0.0351
19218TIP3    H179145   6.223   3.577  10.541  0.7975  0.3181 -0.1369
19218TIP3    H279146   6.359   3.546  10.481  1.4227 -0.1847  1.4574
19219TIP3   OH279147   6.614   4.054  11.530 -0.3084 -0.1760  0.5024
19219TIP3    H179148   6.649   3.967  11.510 -1.0549 -0.4978  0.5801
19219TIP3    H279149   6.524   4.052  11.499  0.3739  1.4110 -1.7792
19220TIP3   OH279150   6.331   0.847   0.822  0.3594 -0.3820  0.1943
19220TIP3    H179151   6.419   0.834   0.860 -0.1154  0.7797  1.7781
19220TIP3    H279152   6.291   0.760   0.827  1.3425 -0.8974 -0.4081
19221TIP3   OH279153   6.556   5.482   1.393 -0.1496 -0.3693  0.2216
19221TIP3    H179154   6.551   5.473   1.297 -0.4525  0.7148  0.1201
19221TIP3    H279155   6.572   5.393   1.424  0.8111 -0.6196 -0.8913
19222TIP3   OH279156   2.097   0.911  13.923  0.0648  0.3593 -0.2446
19222TIP3    H179157   2.182   0.952  13.939 -0.6509  2.2622 -0.9437
19222TIP3    H279158   2.049   0.925  14.005  0.3877 -0.6548  0.1265
19223TIP3   OH279159   5.895   3.584  11.979 -0.4499 -0.6457 -0.1983
19223TIP3    H179160   5.926   3.573  11.890 -1.3190  0.3350 -0.6416
19223TIP3    H279161   5.967   3.552  12.034  0.3288 -0.7032 -1.2290
19224TIP3   OH279162   1.729   1.184  15.024 -0.0104  0.3436  0.3487
19224TIP3    H179163   1.729   1.101  15.073 -0.4320 -0.5566 -1.1115
19224TIP3    H279164   1.658   1.235  15.063 -0.2056 -0.2600  0.8104
19225TIP3   OH279165   0.144   2.867  11.864  0.0432 -0.6224 -0.0355
19225TIP3    H179166   0.197   2.943  11.842 -0.6879 -0.4493 -1.3007
19225TIP3    H279167   0.173   2.842  11.952  1.7986 -0.1992 -0.4569
19226TIP3   OH279168   0.168   5.076   1.713 -0.0516 -0.0176 -1.0818
19226TIP3    H179169   0.089   5.037   1.750 -1.6089  1.1097 -3.0234
19226TIP3    H279170   0.218   5.001   1.679 -0.4626 -0.7054 -0.2026
19227TIP3   OH279171   1.903   5.452  16.230  0.6227  0.0856  0.2435
19227TIP3    H179172   1.954   5.467  16.309  1.2238  0.0412 -0.1276
19227TIP3    H279173   1.961   5.401  16.174 -0.5345 -1.6261  0.5552
19228TIP3   OH279174   1.539   0.225   4.466  0.1935 -0.1382  0.7096
19228TIP3    H179175   1.449   0.238   4.436 -0.0940 -1.5132  0.9123
19228TIP3    H279176   1.530   0.209   4.560  0.7972  1.0995  0.9965
19229TIP3   OH279177   5.498   1.360   2.907  0.0530  0.0137  0.6266
19229TIP3    H179178   5.457   1.309   2.837  0.9073 -0.0489  0.1521
19229TIP3    H279179   5.426   1.402   2.953 -0.4913  0.5170 -0.6534
19230TIP3   OH279180   1.894   3.360   0.610 -0.3892  0.0818 -0.8084
19230TIP3    H179181   1.919   3.292   0.673  0.2323  0.7756 -0.2918
19230TIP3    H279182   1.895   3.316   0.525 -3.7394 -1.5769 -0.1626
19231TIP3   OH279183   6.419   0.779  13.709 -0.1096  0.2184  0.3451
19231TIP3    H179184   6.471   0.827  13.774 -1.0931  1.6013  0.1553
19231TIP3    H279185   6.427   0.688  13.735  1.0024  0.5653  1.3286
19232TIP3   OH279186   3.567   3.532   1.035 -0.5349  0.3440 -0.2544
19232TIP3    H179187   3.583   3.564   0.946 -0.3821  0.7617 -0.0824
19232TIP3    H279188   3.544   3.611   1.084 -1.2064  0.0277 -0.0564
19233TIP3   OH279189   2.406   1.671   0.039  0.3830 -0.1979  0.0539
19233TIP3    H179190   2.461   1.682   0.116 -1.6666  1.6207  1.3911
19233TIP3    H279191   2.352   1.595   0.058  1.4302 -1.1746 -0.6862
19234TIP3   OH279192   1.871   3.905  12.582  0.0880  0.2685 -0.1590
19234TIP3    H179193   1.908   3.866  12.662 -1.1035 -1.3748 -0.3553
19234TIP3    H279194   1.812   3.973  12.614 -1.3637 -1.2179  0.4950
19235TIP3   OH279195   0.772   4.983   2.272 -1.0530 -0.4244  0.0048
19235TIP3    H179196   0.847   5.043   2.277 -0.6618 -0.9502  0.5390
19235TIP3    H279197   0.763   4.964   2.178 -1.5763  0.9438 -0.2533
19236TIP3   OH279198   5.513   0.889   1.287  0.5077 -0.2785 -0.1255
19236TIP3    H179199   5.549   0.974   1.262  0.0819 -0.1843 -0.4218
19236TIP3    H279200   5.584   0.847   1.336  0.4553  0.5485  0.6917
19237TIP3   OH279201   4.890   6.249   2.355 -0.0826 -0.0655 -0.2811
19237TIP3    H179202   4.828   6.314   2.388 -0.8057  0.0791 -1.8551
19237TIP3    H279203   4.953   6.300   2.304  0.8679 -0.3210  0.5961
19238TIP3   OH279204   5.644   6.215  13.677 -0.0726  0.0410 -0.2059
19238TIP3    H179205   5.566   6.192  13.728  0.4642 -2.0667 -0.2176
19238TIP3    H279206   5.717   6.203  13.738  0.3744  0.0452 -0.7316
19239TIP3   OH279207   5.545   5.090  12.888  0.2209 -0.0755 -0.4463
19239TIP3    H179208   5.549   5.068  12.795 -1.9256  0.0569 -0.6200
19239TIP3    H279209   5.522   5.183  12.890 -1.5169 -0.4663  0.1352
19240TIP3   OH279210   4.116   6.732   2.974 -0.2528  0.0711 -0.5597
19240TIP3    H179211   4.033   6.685   2.983  0.3241 -0.6813  1.2890
19240TIP3    H279212   4.158   6.693   2.898 -0.7001 -1.0002 -0.2720
19241TIP3   OH279213   3.191   6.074  14.154  0.1357  0.3908 -0.8828
19241TIP3    H179214   3.207   6.165  14.178 -0.3109  0.6559 -1.5721
19241TIP3    H279215   3.264   6.026  14.194  0.8961  1.1683 -1.2884
19242TIP3   OH279216   3.902   3.453   0.215 -0.9015 -0.4950 -0.0639
19242TIP3    H179217   3.859   3.368   0.223 -1.9873  0.2352  2.7283
19242TIP3    H279218   3.831   3.516   0.207 -0.1147  0.2651 -1.7960
19243TIP3   OH279219   0.074   3.278  15.478 -0.2091 -0.6505 -0.2735
19243TIP3    H179220   0.168   3.295  15.484 -0.6242  1.9630  0.4022
19243TIP3    H279221   0.059   3.203  15.536  1.4765 -1.3452 -0.6810
19244TIP3   OH279222   3.122   2.653   6.211 -0.0067  0.0908 -0.6605
19244TIP3    H179223   3.057   2.583   6.215  2.0624 -1.9247  0.3578
19244TIP3    H279224   3.071   2.733   6.205 -2.5270 -1.4276 -1.1700
19245TIP3   OH279225   3.159   3.058   4.792  0.8679 -0.5027  0.3109
19245TIP3    H179226   3.251   3.043   4.772  0.7689  0.1123 -0.6966
19245TIP3    H279227   3.116   2.977   4.766  1.0394 -0.5358  0.1265
19246TIP3   OH279228   4.091   2.402  11.383  0.9761 -0.2129 -0.1906
19246TIP3    H179229   4.181   2.434  11.394  1.0393 -0.6821  0.8145
19246TIP3    H279230   4.055   2.454  11.312  1.7095  0.7082  0.0938
19247TIP3   OH279231   3.724   4.822  16.062 -0.0231  0.2717 -0.1504
19247TIP3    H179232   3.636   4.825  16.099 -0.0292 -2.5606  0.2895
19247TIP3    H279233   3.710   4.801  15.969  0.1710  2.4023 -0.7197
19248TIP3   OH279234   6.683   6.070  11.688  0.0047  0.1506  0.6058
19248TIP3    H179235   6.716   6.046  11.602  0.9042 -0.2802  1.0585
19248TIP3    H279236   6.596   6.031  11.692  0.1169 -0.1626  0.0397
19249TIP3   OH279237   0.108   2.675   1.143 -0.0504 -0.0233 -0.2730
19249TIP3    H179238   0.069   2.732   1.076  0.5574  0.5528 -0.1450
19249TIP3    H279239   0.187   2.641   1.102  0.1059  0.0069  0.0015
19250TIP3   OH279240   6.583   2.546  13.489  0.1925  0.1736  0.2387
19250TIP3    H179241   6.613   2.543  13.398 -0.4854  0.8595 -0.0190
19250TIP3    H279242   6.569   2.639  13.507 -2.0469 -0.1061  0.2354
19251TIP3   OH279243   2.886   2.828   1.396 -0.4031  0.9902 -0.3841
19251TIP3    H179244   2.836   2.799   1.321  0.0715 -1.7413  0.2664
19251TIP3    H279245   2.974   2.845   1.362 -0.8655  2.5705 -0.9012
19252TIP3   OH279246   6.448   4.727  14.959 -0.0070  0.7307 -0.0172
19252TIP3    H179247   6.510   4.750  15.028 -0.2079  2.0762 -0.2534
19252TIP3    H279248   6.372   4.692  15.005  0.4658  0.1439  0.3379
19253TIP3   OH279249   0.079   1.758  12.326  0.0640  0.1191  0.3528
19253TIP3    H179250   0.092   1.787  12.417 -1.0270  1.1294  0.2105
19253TIP3    H279251  -0.016   1.758  12.315  0.2079  0.5133 -0.9545
19254TIP3   OH279252   4.859   5.760   0.777 -0.2690 -0.1526 -0.3499
19254TIP3    H179253   4.846   5.794   0.689  1.9168  0.4371 -0.4978
19254TIP3    H279254   4.938   5.803   0.808 -0.7663 -0.6504  1.7690
19255TIP3   OH279255   0.437   2.699   0.638 -0.2644 -0.2471 -0.0002
19255TIP3    H179256   0.398   2.768   0.692 -0.2913 -1.3583  1.4955
19255TIP3    H279257   0.364   2.667   0.585 -0.3212  0.6560 -0.4761
19256TIP3   OH279258   4.572   3.704  15.231 -0.7545 -0.4989  0.3254
19256TIP3    H179259   4.648   3.699  15.290 -0.9073  1.3277  0.7390
19256TIP3    H279260   4.607   3.740  15.150 -1.0221 -0.4720  0.2208
19257TIP3   OH279261   3.038   4.389   4.621  0.2740 -0.5312  0.4842
19257TIP3    H179262   3.026   4.469   4.672 -0.8932 -0.3941  0.0107
19257TIP3    H279263   2.999   4.320   4.674  1.4369 -0.8499  0.9746
19258TIP3   OH279264   6.654   0.450  13.381 -0.0554 -0.0428 -0.4258
19258TIP3    H179265   6.583   0.401  13.423 -0.6524 -0.3072 -1.6952
19258TIP3    H279266   6.612   0.501  13.312  0.8159  0.8564 -0.3225
19259TIP3   OH279267   3.905   5.947   4.697  0.7756 -0.5267 -0.0811
19259TIP3    H179268   3.988   5.995   4.698  1.7306 -2.0906  1.3432
19259TIP3    H279269   3.917   5.880   4.630 -0.0565  0.3605 -1.1466
19260TIP3   OH279270   4.620   3.203  13.284  0.6904  0.1362  0.0899
19260TIP3    H179271   4.710   3.217  13.313  0.9920  1.3888 -1.3611
19260TIP3    H279272   4.592   3.287  13.248 -1.9608  0.5503  2.6549
19261TIP3   OH279273   6.117   1.433  11.430 -0.0924  0.4683  0.1562
19261TIP3    H179274   6.205   1.432  11.467  0.0491  0.1795 -0.1872
19261TIP3    H279275   6.072   1.362  11.475  0.0986  0.0756 -0.2668
19262TIP3   OH279276   3.101   3.824  15.006 -0.4540  0.0661 -0.0383
19262TIP3    H179277   3.061   3.911  14.997  0.8115  0.6118 -0.5716
19262TIP3    H279278   3.034   3.764  14.973 -0.4595  1.0387 -1.9594
19263TIP3   OH279279   1.508   4.902  14.060  0.1426 -0.3340 -0.2124
19263TIP3    H179280   1.546   4.819  14.090  1.4082  0.4112  0.3288
19263TIP3    H279281   1.467   4.881  13.976 -0.6242 -1.7566  0.4752
19264TIP3   OH279282   5.692   1.911   0.625  0.6499  0.4646 -0.0500
19264TIP3    H179283   5.724   2.001   0.627  0.0483  0.6793  0.2768
19264TIP3    H279284   5.628   1.906   0.697  1.8073 -0.6550  0.9570
19265TIP3   OH279285   0.839   6.620   4.257 -0.2181  0.2081  0.6689
19265TIP3    H179286   0.831   6.565   4.179  2.6513  0.5838  0.0189
19265TIP3    H279287   0.861   6.558   4.327 -1.6872  0.0145  0.9978
19266TIP3   OH279288   5.385   0.786   0.584 -0.4109  0.0408 -0.2330
19266TIP3    H179289   5.311   0.758   0.531 -2.9116 -1.0524  3.4293
19266TIP3    H279290   5.453   0.721   0.566 -0.7522  0.2497 -2.6405
19267TIP3   OH279291   1.681   4.409   4.312 -0.2961  0.0983  0.1200
19267TIP3    H179292   1.737   4.338   4.342  0.5368  1.4927  2.1074
19267TIP3    H279293   1.595   4.370   4.304  0.1711 -1.1887  1.0007
19268TIP3   OH279294   6.143   4.018   0.006 -0.1853  0.2177 -0.3756
19268TIP3    H179295   6.180   3.931   0.022 -0.3853  0.0121 -1.0178
19268TIP3    H279296   6.049   4.002  -0.004  0.0996  0.0221 -3.7175
19269TIP3   OH279297   1.417   1.350   5.098 -0.2130 -0.4073  0.0688
19269TIP3    H179298   1.448   1.356   5.188 -1.2246 -0.0350  0.4077
19269TIP3    H279299   1.344   1.288   5.101  0.7821 -1.6950 -0.8105
19270TIP3   OH279300   0.361   1.236   4.602  0.3060 -0.3595 -0.3663
19270TIP3    H179301   0.437   1.182   4.626  2.3262  2.1772 -0.6822
19270TIP3    H279302   0.346   1.291   4.679 -0.7601 -0.2797 -0.6158
19271TIP3   OH279303   1.261   0.959   4.752  0.0002 -0.3446 -0.5487
19271TIP3    H179304   1.327   1.026   4.770 -0.0482 -0.0795 -1.3528
19271TIP3    H279305   1.309   0.876   4.753  0.3496 -0.1523 -1.1321
19272TIP3   OH279306   5.178   0.596  14.310 -0.6845 -0.7664  0.0647
19272TIP3    H179307   5.184   0.505  14.341  0.9708 -0.5297  0.5296
19272TIP3    H279308   5.119   0.638  14.372 -1.3561 -1.4809 -0.0687
19273TIP3   OH279309   0.108   4.226  15.805  0.6530  0.3848 -0.5588
19273TIP3    H179310   0.197   4.197  15.825  1.2231  1.5581 -1.2962
19273TIP3    H279311   0.052   4.176  15.864  1.9646  1.1024  1.3605
19274TIP3   OH279312   5.671   1.455  14.494  0.0124  0.3173 -0.3503
19274TIP3    H179313   5.638   1.375  14.452  1.0879 -1.1414  1.4507
19274TIP3    H279314   5.746   1.481  14.441 -0.6581  0.4751 -1.2555
19275TIP3   OH279315   0.036   2.926   4.335  0.6341 -0.4454 -0.2016
19275TIP3    H179316   0.084   2.845   4.316  0.5564 -0.4000 -0.5994
19275TIP3    H279317   0.084   2.966   4.408  0.6401 -0.8759  0.0362
19276TIP3   OH279318   2.500   4.707  14.994  0.1132 -0.6108 -0.2818
19276TIP3    H179319   2.430   4.702  15.060 -0.4679 -0.4278 -0.8745
19276TIP3    H279320   2.508   4.617  14.961  0.1209 -0.6213 -0.2513
19277TIP3   OH279321   2.419   0.502  12.319  0.2616 -0.1239  0.2884
19277TIP3    H179322   2.438   0.427  12.263 -1.9710  0.0375 -0.7832
19277TIP3    H279323   2.489   0.564  12.300  0.3270 -0.6382 -1.2695
19278TIP3   OH279324   1.769   0.253   1.432 -0.1403  0.0838  0.0637
19278TIP3    H179325   1.810   0.225   1.513  0.6700  0.7349 -0.1087
19278TIP3    H279326   1.682   0.283   1.458  0.5504  1.4528  0.8933
19279TIP3   OH279327   3.271   3.230  14.773 -0.0394 -0.1349  0.3534
19279TIP3    H179328   3.341   3.170  14.797  1.5982  0.2384 -2.9668
19279TIP3    H279329   3.199   3.172  14.746  0.7020 -0.5980 -0.6680
19280TIP3   OH279330   1.912   4.240  16.878  0.9173 -0.1931 -0.0485
19280TIP3    H179331   1.875   4.321  16.914 -0.6132  0.4077 -2.7154
19280TIP3    H279332   1.851   4.172  16.906  0.2463  0.1275 -0.6999
19281TIP3   OH279333   3.555   0.225  12.644  0.5401  0.1553 -0.3240
19281TIP3    H179334   3.537   0.310  12.604 -0.1100  0.2212  0.0883
19281TIP3    H279335   3.620   0.245  12.712 -0.8918  0.6467  0.9536
19282TIP3   OH279336   5.061   0.367  13.787 -0.0000  0.5577  0.1242
19282TIP3    H179337   5.017   0.412  13.715 -3.2389 -1.2261  0.7685
19282TIP3    H279338   5.125   0.310  13.743 -0.2769  1.1737 -1.1373
19283TIP3   OH279339   4.369   2.814   2.043 -0.0340 -0.0507 -0.2824
19283TIP3    H179340   4.362   2.723   2.070  0.0692  0.6613  2.3387
19283TIP3    H279341   4.444   2.848   2.091  0.6020  1.1909 -2.0266
19284TIP3   OH279342   1.216   2.332   5.321  0.0818 -0.2390 -0.3389
19284TIP3    H179343   1.290   2.383   5.353 -0.2321  0.6239 -0.9370
19284TIP3    H279344   1.237   2.241   5.343  1.0952  0.0475 -0.0954
19285TIP3   OH279345   2.172   2.067  11.238 -0.6949  0.4992 -0.2960
19285TIP3    H179346   2.083   2.103  11.247  0.1041  2.0298  5.2215
19285TIP3    H279347   2.211   2.118  11.168 -3.7971  0.3608 -2.3395
19286TIP3   OH279348   6.334   1.709   5.275 -0.3454  0.2539 -0.5124
19286TIP3    H179349   6.266   1.649   5.306 -0.7297  1.2342  0.6060
19286TIP3    H279350   6.416   1.667   5.301 -0.5537 -0.3921 -0.8728
19287TIP3   OH279351   6.042   0.552  14.065 -0.3118  0.2364  0.1669
19287TIP3    H179352   6.018   0.608  13.991 -0.7642 -0.8022 -0.4970
19287TIP3    H279353   6.132   0.524  14.046 -0.3759  0.0873  0.0787
19288TIP3   OH279354   4.212   1.607  13.864  0.3549  0.3325  0.1061
19288TIP3    H179355   4.250   1.660  13.794 -1.8863  2.1137  0.1401
19288TIP3    H279356   4.119   1.598  13.840 -0.1997 -0.0676  2.2237
19289TIP3   OH279357   6.047   2.244   2.040 -0.1621 -0.3491  0.0632
19289TIP3    H179358   6.064   2.265   2.132  0.7721  0.1021 -0.2046
19289TIP3    H279359   6.131   2.215   2.006 -1.1867 -3.9695  0.2174
19290TIP3   OH279360   6.269   6.587   1.052 -0.4430 -0.4305  0.2835
19290TIP3    H179361   6.335   6.549   1.111 -0.7276 -1.3465  0.0375
19290TIP3    H279362   6.222   6.511   1.018  0.5374 -0.0392 -2.1215
19291TIP3   OH279363   1.993   1.005  15.793 -0.1973 -0.2143  0.0875
19291TIP3    H179364   2.027   1.069  15.731 -1.7217  0.3432 -0.2347
19291TIP3    H279365   2.007   0.920  15.751 -0.0368  0.0654 -0.4315
19292TIP3   OH279366   1.804   4.464  12.043 -0.2148  0.0282  0.9763
19292TIP3    H179367   1.802   4.543  12.098 -0.3492 -0.6658  1.9919
19292TIP3    H279368   1.713   4.437  12.036 -0.3401  0.7527 -0.5762
19293TIP3   OH279369   0.739   1.286   1.062 -0.3024 -0.0428 -0.4269
19293TIP3    H179370   0.733   1.298   0.967 -0.5713 -1.5992 -0.6440
19293TIP3    H279371   0.833   1.284   1.080 -0.2410 -0.2345 -0.7505
19294TIP3   OH279372   4.213   1.004   6.350 -0.3379  0.4019 -0.3549
19294TIP3    H179373   4.280   1.053   6.397  0.8736 -0.0337 -1.5817
19294TIP3    H279374   4.166   0.956   6.418 -0.1507  1.5565  0.6371
19295TIP3   OH279375   4.097   0.833   3.984 -0.3442 -0.1250 -0.0798
19295TIP3    H179376   4.163   0.768   3.959 -0.2851 -0.5192  1.0429
19295TIP3    H279377   4.138   0.882   4.055 -0.9721  0.1446  0.1009
19296TIP3   OH279378   6.626   5.986   3.914  0.5304 -0.3582 -0.5812
19296TIP3    H179379   6.688   6.057   3.932  0.9768 -1.1255  1.0576
19296TIP3    H279380   6.679   5.907   3.921 -0.7639 -1.0918  1.6989
19297TIP3   OH279381   0.029   2.131   1.080  0.2593 -0.1378 -0.6063
19297TIP3    H179382   0.119   2.141   1.049  0.3740 -1.4145 -0.7234
19297TIP3    H279383  -0.025   2.139   1.001  0.2942  0.2321 -0.5939
19298TIP3   OH279384   6.190   0.620   0.786  0.1700  0.2393  0.4384
19298TIP3    H179385   6.164   0.662   0.704  1.9949  1.0335  0.2226
19298TIP3    H279386   6.107   0.605   0.832 -0.6610  3.6067  0.3205
19299TIP3   OH279387   4.570   1.929  10.325 -0.4183 -0.2770  0.7825
19299TIP3    H179388   4.645   1.916  10.267 -0.0716 -0.0362  1.1768
19299TIP3    H279389   4.495   1.937  10.265  0.2317  2.3351  0.2042
19300TIP3   OH279390   6.421   6.835  15.870 -0.0352  0.3437 -0.6291
19300TIP3    H179391   6.415   6.740  15.869 -0.2989  0.3390  0.7130
19300TIP3    H279392   6.368   6.863  15.795 -0.1824 -0.5507 -0.8659
19301TIP3   OH279393   2.107   4.151  12.047 -0.0506  0.4057 -0.4702
19301TIP3    H179394   2.117   4.225  11.987 -1.0500 -1.1937 -2.7594
19301TIP3    H279395   2.188   4.101  12.036  0.1123  0.5303  0.1540
19302TIP3   OH279396   0.368   2.324  13.126  0.5285  0.1125 -0.5949
19302TIP3    H179397   0.438   2.259  13.124  1.0320  0.6518 -0.8357
19302TIP3    H279398   0.355   2.347  13.034  0.4455  0.4411 -0.5015
19303TIP3   OH279399   5.134   5.333  14.624  0.4980  0.3464  0.2643
19303TIP3    H179400   5.191   5.409  14.631  0.9733 -0.1680  2.8303
19303TIP3    H279401   5.084   5.332  14.705 -3.4883  0.8804 -1.9138
19304TIP3   OH279402   2.598   6.674   5.355  0.2012  0.3879  0.1069
19304TIP3    H179403   2.690   6.658   5.377  0.1941 -0.5690 -0.5339
19304TIP3    H279404   2.565   6.589   5.327 -0.6391  0.9175 -0.5306
19305TIP3   OH279405   2.919   1.737   4.458 -0.1984  0.3104  0.1482
19305TIP3    H179406   2.985   1.703   4.398 -1.0406  1.3503 -1.4279
19305TIP3    H279407   2.964   1.805   4.508 -0.0815  1.0762 -0.9789
19306TIP3   OH279408   0.299   0.775   3.621 -0.1481 -0.7701  0.1151
19306TIP3    H179409   0.245   0.696   3.622 -2.0553  0.4692  0.2853
19306TIP3    H279410   0.237   0.846   3.638  1.7275  0.6370  1.3872
19307TIP3   OH279411   5.679   2.729   2.345 -0.6192  0.7287  0.3167
19307TIP3    H179412   5.661   2.822   2.349 -1.8974  0.4650  1.1873
19307TIP3    H279413   5.668   2.698   2.435 -2.0915 -0.5696 -0.2705
19308TIP3   OH279414   0.369   5.889   5.382 -0.2027 -0.0291 -0.2040
19308TIP3    H179415   0.397   5.861   5.469 -1.9502 -2.0344 -0.2186
19308TIP3    H279416   0.450   5.918   5.339  1.0111 -0.9050  1.3889
19309TIP3   OH279417   1.319   5.193  11.501  0.0629 -0.3116 -0.2666
19309TIP3    H179418   1.370   5.189  11.582 -2.2741  0.6605  1.3710
19309TIP3    H279419   1.384   5.196  11.431  2.2271  0.8491  1.6720
19310TIP3   OH279420   6.721   1.693   4.149 -0.0957 -0.1038 -0.6817
19310TIP3    H179421   6.788   1.756   4.176 -0.5818  0.6346 -1.1924
19310TIP3    H279422   6.733   1.684   4.055 -1.1476  0.5540 -0.8927
19311TIP3   OH279423   3.617   4.547   0.857  0.3189 -0.4996 -0.6526
19311TIP3    H179424   3.578   4.613   0.915 -1.6176 -1.1514 -1.1280
19311TIP3    H279425   3.707   4.576   0.845 -0.1583  1.4480  0.0361
19312TIP3   OH279426   2.492   0.483   2.473  0.0988  0.4600 -0.1605
19312TIP3    H179427   2.416   0.513   2.523 -1.0148  0.5857 -1.8704
19312TIP3    H279428   2.504   0.392   2.499 -0.1808  0.6461  0.6404
19313TIP3   OH279429   6.488   5.518   2.577  0.0787 -0.0320  0.5528
19313TIP3    H179430   6.558   5.491   2.517 -0.7633 -1.2518  0.0678
19313TIP3    H279431   6.407   5.500   2.528 -0.6309  3.3430  0.2120
19314TIP3   OH279432   3.517   6.071   1.380 -0.0986 -0.2870 -0.3740
19314TIP3    H179433   3.452   6.021   1.429  2.2060 -1.3939  1.8076
19314TIP3    H279434   3.537   6.015   1.305 -1.3658 -0.0886 -0.8851
19315TIP3   OH279435   6.142   4.165  15.558  0.3677 -0.1062 -0.1778
19315TIP3    H179436   6.106   4.180  15.646  0.2655  0.2134 -0.2742
19315TIP3    H279437   6.066   4.168  15.500  0.3385 -1.0455 -0.1965
19316TIP3   OH279438   2.082   4.979  13.463 -0.5923  0.2778 -0.7547
19316TIP3    H179439   2.170   5.015  13.452 -0.0083 -1.2484 -1.3248
19316TIP3    H279440   2.062   4.993  13.556  0.5664 -0.0320 -0.4452
19317TIP3   OH279441   4.955   6.472  16.098  0.4060 -0.0006  0.4747
19317TIP3    H179442   4.867   6.508  16.088 -0.0872 -1.4323 -0.6529
19317TIP3    H279443   5.013   6.548  16.101 -0.9715  1.0484  2.7471
19318TIP3   OH279444   5.155   0.050  14.768  0.9947 -0.1572 -0.6209
19318TIP3    H179445   5.184  -0.039  14.787 -0.2727 -0.5285 -0.3142
19318TIP3    H279446   5.063   0.052  14.797  1.4974  1.7863  1.0988
19319TIP3   OH279447   3.650   5.580  16.078 -0.1121  0.3255 -0.4781
19319TIP3    H179448   3.676   5.488  16.069 -1.0445 -0.1306  1.1540
19319TIP3    H279449   3.697   5.611  16.155 -0.8071  0.8294 -0.2480
19320TIP3   OH279450   0.581   5.914   4.666 -0.0274  0.5733 -0.4987
19320TIP3    H179451   0.612   5.825   4.681 -0.2267  0.5849  0.0231
19320TIP3    H279452   0.545   5.941   4.751 -0.2785  1.0248 -0.7445
19321TIP3   OH279453   5.983   3.135  12.569  0.3608 -0.4859 -0.0525
19321TIP3    H179454   5.960   3.126  12.476 -0.0224  0.0432 -0.0124
19321TIP3    H279455   6.063   3.189  12.568  1.7000 -2.3571 -0.1936
19322TIP3   OH279456   5.994   0.551   3.547 -0.8349 -0.3270 -0.0501
19322TIP3    H179457   5.947   0.558   3.630  1.3985 -0.0265  1.2870
19322TIP3    H279458   6.083   0.524   3.572  1.0063  3.2306 -1.9415
19323TIP3   OH279459   4.811   0.805  14.263  0.5725  0.0749  0.1290
19323TIP3    H179460   4.784   0.875  14.203 -0.6157 -0.7801 -0.3914
19323TIP3    H279461   4.879   0.844  14.317 -1.4779  2.3189  1.3002
19324TIP3   OH279462   0.902   2.100   5.140 -0.1798  0.0688  0.0993
19324TIP3    H179463   0.886   2.191   5.166  0.7755  1.2903 -3.1543
19324TIP3    H279464   0.997   2.091   5.143 -0.2860 -1.0692  0.9128
19325TIP3   OH279465   3.754   1.679   1.981 -0.6528  0.1339  0.0824
19325TIP3    H179466   3.764   1.753   1.922 -0.9206 -0.7473 -1.1201
19325TIP3    H279467   3.841   1.665   2.018 -0.0279 -0.3857 -1.4821
19326TIP3   OH279468   3.899   6.220   1.714 -0.3104  0.3618  0.1288
19326TIP3    H179469   3.806   6.242   1.710 -0.4879 -0.3417  0.2734
19326TIP3    H279470   3.941   6.283   1.656 -0.5334  2.3904  2.0322
19327TIP3   OH279471   0.449   0.164  13.850  0.4466  0.4928  0.0762
19327TIP3    H179472   0.370   0.217  13.837 -0.3667 -1.0051 -1.5890
19327TIP3    H279473   0.508   0.191  13.779  1.1773  1.1185  0.9042
19328TIP3   OH279474   0.254   0.141  14.352 -0.5966 -0.1102  0.7820
19328TIP3    H179475   0.190   0.095  14.299  0.9738  0.6996 -2.0413
19328TIP3    H279476   0.202   0.202  14.404 -2.2258 -0.6075 -0.1818
19329TIP3   OH279477   6.023   1.194  12.229  0.3112  0.2646 -0.1055
19329TIP3    H179478   5.983   1.188  12.142  0.8973  2.7902 -0.6304
19329TIP3    H279479   5.950   1.214  12.288 -0.1193 -1.6553  0.0705
19330TIP3   OH279480   1.492   2.579   1.266  0.0017  0.2882  0.1584
19330TIP3    H179481   1.421   2.636   1.295 -0.8315 -1.3549  1.5310
19330TIP3    H279482   1.572   2.628   1.286 -0.6829  1.1882  0.7940
19331TIP3   OH279483   0.465   0.246   1.658  0.4255 -0.0375 -0.2916
19331TIP3    H179484   0.499   0.319   1.606 -1.3325  1.3264  0.3750
19331TIP3    H279485   0.425   0.288   1.734  2.8412 -1.9543  2.2341
19332TIP3   OH279486   0.206   2.031  11.681  0.2844 -0.1418 -0.5722
19332TIP3    H179487   0.119   2.064  11.661  1.2116  0.9754 -3.1504
19332TIP3    H279488   0.215   2.044  11.775 -2.0934  0.2343 -0.3285
19333TIP3   OH279489   5.298   1.901   2.112 -0.3617  0.0880  0.1818
19333TIP3    H179490   5.207   1.878   2.131 -1.3135  1.7543 -1.9132
19333TIP3    H279491   5.292   1.960   2.036  2.3754  1.2614  0.7671
19334TIP3   OH279492   2.773   4.778   2.597 -1.0529  0.0402 -0.6569
19334TIP3    H179493   2.739   4.754   2.510  0.7663 -0.8348 -1.1682
19334TIP3    H279494   2.867   4.786   2.584 -0.8863  1.1544  0.9888
19335TIP3   OH279495   3.458   0.572   6.456 -0.5914  0.1651 -0.0751
19335TIP3    H179496   3.419   0.588   6.542 -0.2184  1.1622 -0.0714
19335TIP3    H279497   3.527   0.638   6.449  0.8912 -1.3436 -0.2185
19336TIP3   OH279498   1.009   1.835  14.054 -0.8770 -0.4606  0.3996
19336TIP3    H179499   0.996   1.763  14.116 -0.0431 -1.1218 -0.1906
19336TIP3    H279500   0.960   1.908  14.093 -0.3816 -0.8588  1.8409
19337TIP3   OH279501   3.766   0.357   2.603  0.4030 -0.4098  0.4906
19337TIP3    H179502   3.806   0.358   2.516 -1.7327  2.1064 -0.5928
19337TIP3    H279503   3.835   0.389   2.661  1.2576 -0.1603 -0.6242
19338TIP3   OH279504   2.596   2.204   2.185  0.4529 -0.3178  0.0293
19338TIP3    H179505   2.589   2.109   2.177  1.0313 -0.2878 -1.0483
19338TIP3    H279506   2.672   2.218   2.241  0.3715 -0.4915  0.1826
19339TIP3   OH279507   0.543   6.356  12.720  0.0567  0.0683  0.2495
19339TIP3    H179508   0.549   6.346  12.625 -2.5313  0.8075 -0.0652
19339TIP3    H279509   0.595   6.434  12.740  1.1435 -0.4567 -0.4392
19340TIP3   OH279510   1.214   3.606   5.692 -0.6358  0.4875  0.0779
19340TIP3    H179511   1.180   3.671   5.754 -1.6077  0.7745 -0.7341
19340TIP3    H279512   1.244   3.657   5.617  0.9469  0.1747  0.4565
19341TIP3   OH279513   2.104   0.756   1.933 -0.1017  0.2945  0.2438
19341TIP3    H179514   2.149   0.674   1.952 -2.1449 -0.4439  2.4475
19341TIP3    H279515   2.173   0.822   1.933  1.4828 -1.2813 -0.7919
19342TIP3   OH279516   4.032   2.097  15.807  0.0237 -0.2277  0.0191
19342TIP3    H179517   4.048   2.107  15.713  0.5657 -1.9973 -0.1093
19342TIP3    H279518   4.117   2.069  15.843 -0.0920  0.7287  1.1059
19343TIP3   OH279519   4.956   0.556   3.862  0.5038  0.2565  0.5617
19343TIP3    H179520   4.872   0.564   3.816  1.0674  1.1899 -0.3460
19343TIP3    H279521   4.938   0.589   3.950 -0.7503 -2.1446  1.2937
19344TIP3   OH279522   1.728   1.242  12.094 -0.1994  0.3261  0.0236
19344TIP3    H179523   1.778   1.238  12.176  0.3369 -0.7057 -0.3435
19344TIP3    H279524   1.688   1.329  12.095  2.3232  1.5731 -0.0921
19345TIP3   OH279525   1.624   2.455  15.677 -0.0753 -0.0265  0.0125
19345TIP3    H179526   1.552   2.516  15.689 -0.3955 -0.5668  1.0037
19345TIP3    H279527   1.615   2.392  15.750  0.3249 -1.1615 -0.8800
19346TIP3   OH279528   0.639   1.821  13.895 -0.7646  0.2860  0.3066
19346TIP3    H179529   0.648   1.856  13.984 -1.9421  0.1463  0.4934
19346TIP3    H279530   0.593   1.890  13.847 -0.1011  0.3765 -0.2246
19347TIP3   OH279531   1.329   5.591   2.192  0.0080 -0.5118 -0.0185
19347TIP3    H179532   1.368   5.583   2.279 -1.0207 -1.5182  0.3836
19347TIP3    H279533   1.305   5.683   2.185  1.2708 -0.1439  0.2253
19348TIP3   OH279534   1.382   0.195   2.283  0.0926  0.1484 -0.1796
19348TIP3    H179535   1.311   0.222   2.342  0.8892  2.3736 -0.1223
19348TIP3    H279536   1.340   0.137   2.220 -1.8567  1.5514 -0.2600
19349TIP3   OH279537   0.668   1.597  11.742  0.3673  0.4565  0.5439
19349TIP3    H179538   0.628   1.683  11.751  0.3829  0.7320 -1.6295
19349TIP3    H279539   0.761   1.616  11.726  0.6482 -0.0354  1.5276
19350TIP3   OH279540   4.511   4.807   5.200  0.3301 -0.2532  0.2301
19350TIP3    H179541   4.445   4.755   5.244  0.8553 -0.9068  0.2586
19350TIP3    H279542   4.559   4.745   5.145  1.1555  0.1411  0.4832
19351TIP3   OH279543   6.169   3.660   2.881  0.7499 -0.1947  0.6404
19351TIP3    H179544   6.123   3.691   2.959 -0.5015  0.9475 -0.4803
19351TIP3    H279545   6.242   3.609   2.914  0.0774  0.0070  2.5438
19352TIP3   OH279546   5.162   0.368  15.978  0.1004  0.4831 -0.1353
19352TIP3    H179547   5.096   0.300  15.988  1.1536 -0.3932  1.1188
19352TIP3    H279548   5.195   0.357  15.888 -0.2013 -0.2192 -0.1642
19353TIP3   OH279549   2.642   0.614   2.939 -0.6601  0.2318  0.1714
19353TIP3    H179550   2.555   0.651   2.930 -0.7713  0.0522  0.4965
19353TIP3    H279551   2.694   0.659   2.873 -0.4704  1.9504  1.4103
19354TIP3   OH279552   0.449   4.060   0.526  0.0825  0.1583 -0.4535
19354TIP3    H179553   0.364   4.058   0.571  0.1998 -0.5788 -0.2457
19354TIP3    H279554   0.510   4.020   0.589  0.5172  0.3658 -0.7375
19355TIP3   OH279555   6.607   4.054   4.384  0.4630  0.0750 -0.1168
19355TIP3    H179556   6.605   3.970   4.429  1.2852  0.2785  0.3213
19355TIP3    H279557   6.634   4.032   4.295 -1.1508 -0.3270 -0.5247
19356TIP3   OH279558   3.944   5.579   0.940 -0.0279 -0.2796  0.0751
19356TIP3    H179559   4.037   5.557   0.946 -0.3078 -2.0361 -1.2513
19356TIP3    H279560   3.942   5.657   0.886  0.6096 -1.1461 -1.2498
19357TIP3   OH279561   3.707   2.213  16.576 -0.2960  0.1569  0.2762
19357TIP3    H179562   3.624   2.257  16.592 -0.6315  0.1076 -1.2233
19357TIP3    H279563   3.765   2.245  16.646 -1.6363 -0.0700  1.5396
19358TIP3   OH279564   3.024   6.541  15.201  0.2901 -0.3336 -0.2283
19358TIP3    H179565   2.973   6.599  15.145 -0.5608 -1.9800 -1.2568
19358TIP3    H279566   2.959   6.483  15.241  1.0908 -0.5422  0.8274
19359TIP3   OH279567   0.137   2.648  17.055 -0.7886  0.0464 -0.0076
19359TIP3    H179568   0.226   2.682  17.046 -0.8643  0.8337  1.8380
19359TIP3    H279569   0.147   2.564  17.100 -0.9011 -0.6617 -1.2306
19360TIP3   OH279570   4.099   5.433  15.501  0.2782 -0.0168  0.2042
19360TIP3    H179571   4.181   5.404  15.462  0.5828  1.3126 -0.2025
19360TIP3    H279572   4.038   5.439  15.428 -0.1013 -0.7074  0.4583
19361TIP3   OH279573   0.414   2.739  17.037 -0.2400 -0.3635  0.3226
19361TIP3    H179574   0.479   2.725  17.106  1.0656 -0.3198 -0.8584
19361TIP3    H279575   0.432   2.827  17.005 -1.4070 -0.0450  0.4862
19362TIP3   OH279576   3.112   6.379  12.303 -0.0530 -0.2405  0.0918
19362TIP3    H179577   3.091   6.423  12.221  0.2858 -2.0948 -1.0313
19362TIP3    H279578   3.154   6.446  12.357  0.8167  0.7057 -1.7016
19363TIP3   OH279579   3.984   2.909  16.823  0.2221 -0.2971 -0.0740
19363TIP3    H179580   3.905   2.961  16.827  1.0999  0.9760  2.4028
19363TIP3    H279581   3.953   2.819  16.813 -1.5329  0.1649  0.8930
19364TIP3   OH279582   1.132   5.980   2.464  0.7025  0.1750  0.0551
19364TIP3    H179583   1.153   5.909   2.525  0.0615  0.0272  0.1083
19364TIP3    H279584   1.166   6.059   2.506 -2.1921  0.5128  1.9915
19365TIP3   OH279585   4.072   1.204   6.215 -0.1999  0.3697 -0.1409
19365TIP3    H179586   4.071   1.167   6.126  1.6869  0.0592 -0.0662
19365TIP3    H279587   4.095   1.130   6.271  0.0170  0.8757  0.4473
19366TIP3   OH279588   3.380   4.014  16.253  0.3833 -0.0653  0.5933
19366TIP3    H179589   3.332   4.086  16.294 -2.8309 -1.1856 -0.9244
19366TIP3    H279590   3.448   4.058  16.202 -1.8608  2.0399 -0.8281
19367TIP3   OH279591   1.105   2.870   4.262 -0.5447 -0.9827 -0.0914
19367TIP3    H179592   1.089   2.960   4.233 -2.2014 -0.9668  0.7373
19367TIP3    H279593   1.196   2.854   4.240  0.2544  1.4288  1.1181
19368TIP3   OH279594   2.228   4.472   3.408 -0.4754 -0.3375 -0.5031
19368TIP3    H179595   2.188   4.415   3.342  1.2757 -0.7893 -1.2377
19368TIP3    H279596   2.295   4.417   3.449 -0.9412  0.2209  1.0662
19369TIP3   OH279597   2.318   2.059  13.343  0.1336 -0.2316  0.1364
19369TIP3    H179598   2.234   2.062  13.389 -0.4463 -0.2213 -0.8918
19369TIP3    H279599   2.365   2.136  13.373  0.0666 -0.5873  1.2305
19370TIP3   OH279600   3.185   0.713   2.131  0.1722  0.4751 -0.4724
19370TIP3    H179601   3.259   0.653   2.120 -0.1948  0.2743 -2.0516
19370TIP3    H279602   3.223   0.800   2.116  0.2161  0.4358 -0.5843
19371TIP3   OH279603   2.872   3.116   2.046  0.5790  0.2230 -0.0286
19371TIP3    H179604   2.909   3.203   2.059 -1.3099  1.2544 -1.0994
19371TIP3    H279605   2.827   3.121   1.961  0.8027 -1.9422 -0.3311
19372TIP3   OH279606   5.610   3.837  10.554 -0.1392  0.8942  0.8881
19372TIP3    H179607   5.687   3.840  10.497 -1.2658 -0.2991 -0.7901
19372TIP3    H279608   5.560   3.915  10.532 -0.0754  0.9639  0.9900
19373TIP3   OH279609   2.277   3.661  17.053  0.0677 -0.3363  0.3456
19373TIP3    H179610   2.185   3.686  17.058 -0.1326  0.0069 -2.8330
19373TIP3    H279611   2.326   3.741  17.070 -0.2121 -0.3334  1.1839
19374TIP3   OH279612   1.043   6.137   0.340 -0.3544 -0.0335  0.2271
19374TIP3    H179613   0.954   6.105   0.323  0.4304 -2.1791 -0.2066
19374TIP3    H279614   1.099   6.060   0.329  1.4997  1.0760  1.2647
19375TIP3   OH279615   3.823   5.768   2.518 -0.1472  0.3396  0.5504
19375TIP3    H179616   3.765   5.747   2.444  1.8756 -0.7249 -0.8281
19375TIP3    H279617   3.843   5.683   2.557 -1.7567  0.9329  2.8930
19376TIP3   OH279618   0.362   0.360   1.889 -0.1715 -0.3031 -0.7721
19376TIP3    H179619   0.389   0.434   1.943 -1.5369 -2.4625  3.2904
19376TIP3    H279620   0.267   0.370   1.880 -0.2745 -1.1676 -0.7345
19377TIP3   OH279621   6.730   6.521  13.767  0.0428 -0.2868 -0.2214
19377TIP3    H179622   6.753   6.610  13.794 -0.1255 -0.3033 -0.0213
19377TIP3    H279623   6.644   6.505  13.806 -0.6622  0.0467 -1.5731
19378TIP3   OH279624   2.457   6.219   1.581 -0.0747  0.3171  0.0887
19378TIP3    H179625   2.492   6.301   1.615  0.7150  0.3759 -0.8168
19378TIP3    H279626   2.400   6.245   1.509  0.1926  0.0794 -0.2140
19379TIP3   OH279627   1.835   2.671   0.745  0.3156  0.3605  0.1199
19379TIP3    H179628   1.814   2.626   0.663  0.0053  1.8938 -0.6858
19379TIP3    H279629   1.909   2.728   0.723  0.4043  0.5928  0.9763
19380TIP3   OH279630   4.880   3.345   0.209 -0.1847 -0.2289 -0.5424
19380TIP3    H179631   4.892   3.296   0.291  1.0257  0.7159 -0.1246
19380TIP3    H279632   4.851   3.431   0.237 -0.5815 -0.1541 -1.1719
19381TIP3   OH279633   2.669   6.262  11.098 -0.1715  0.4181  0.1264
19381TIP3    H179634   2.584   6.303  11.111 -0.8022 -1.0699  0.9380
19381TIP3    H279635   2.651   6.186  11.043  1.1573  1.8279 -2.4522
19382TIP3   OH279636   0.431   5.609   0.772 -0.1266 -0.1035 -0.2927
19382TIP3    H179637   0.508   5.650   0.734  0.9976 -3.0565 -1.5536
19382TIP3    H279638   0.467   5.555   0.844 -1.0454 -1.1890 -0.6249
19383TIP3   OH279639   0.548   6.239   5.298  0.2484 -0.3548  0.4619
19383TIP3    H179640   0.571   6.159   5.251 -0.6860 -0.1363 -0.4082
19383TIP3    H279641   0.587   6.228   5.385  2.5648 -0.5098 -0.5036
19384TIP3   OH279642   0.299   4.063   4.647 -0.2680 -0.1781  0.1717
19384TIP3    H179643   0.210   4.064   4.683 -1.2825  0.2372 -2.1132
19384TIP3    H279644   0.352   4.109   4.711 -1.9954  0.8419  0.9415
19385TIP3   OH279645   1.246   0.756   3.037  0.4403  0.4023  0.5510
19385TIP3    H179646   1.295   0.818   3.090  2.1886 -0.2867 -0.2066
19385TIP3    H279647   1.257   0.672   3.082 -0.4804  0.3087  0.6310
19386TIP3   OH279648   0.760   5.182  11.207 -0.1776  0.4088  0.9106
19386TIP3    H179649   0.856   5.188  11.210  0.0107 -1.0201 -0.6330
19386TIP3    H279650   0.730   5.273  11.215  1.3673  1.0290  0.1305
19387TIP3   OH279651   5.473   3.482  15.700 -0.3234 -0.1350 -0.2823
19387TIP3    H179652   5.551   3.434  15.729 -0.4557  0.6354  1.4884
19387TIP3    H279653   5.400   3.426  15.724 -0.3464 -0.9154 -2.0595
19388TIP3   OH279654   6.514   1.475   1.164  0.1372  0.4397  0.4189
19388TIP3    H179655   6.580   1.537   1.133 -1.2368  1.5310 -0.4313
19388TIP3    H279656   6.499   1.417   1.090  0.6763 -0.3044  0.8746
19389TIP3   OH279657   6.513   1.255  12.029  0.3214 -0.3534 -0.8427
19389TIP3    H179658   6.591   1.272  12.081  1.4250  1.0604 -2.8033
19389TIP3    H279659   6.543   1.259  11.938 -2.2098  1.5216 -1.7452
19390TIP3   OH279660   6.718   6.540  12.758  0.5752  0.6599 -0.4112
19390TIP3    H179661   6.752   6.584  12.837  0.0215 -0.9366  0.7654
19390TIP3    H279662   6.797   6.517  12.709  0.8914  3.8400 -1.6700
19391TIP3   OH279663   1.333   1.391  12.351 -0.0268  0.6898 -0.4251
19391TIP3    H179664   1.239   1.406  12.350  0.1294  1.7665 -1.0294
19391TIP3    H279665   1.344   1.304  12.390 -1.2515  0.6146 -0.2252
19392TIP3   OH279666   4.293   2.282  16.551 -0.0406 -0.1581  0.6859
19392TIP3    H179667   4.342   2.347  16.502  0.9831 -1.8882 -0.7070
19392TIP3    H279668   4.355   2.251  16.618  0.1400 -0.9780  0.1553
19393TIP3   OH279669   6.538   5.184   2.916 -0.0866  0.0022 -0.1375
19393TIP3    H179670   6.454   5.145   2.942  0.4044 -1.7234 -0.9974
19393TIP3    H279671   6.525   5.208   2.825  0.0184  0.7526  0.0427
19394TIP3   OH279672   2.031   5.511  16.473  0.0136  0.3370  0.1436
19394TIP3    H179673   1.980   5.590  16.486 -3.0482 -1.5839  0.9243
19394TIP3    H279674   2.025   5.464  16.557  2.8266 -0.2341  0.1481
19395TIP3   OH279675   4.365   1.570   0.817 -0.0506  0.2258 -0.0911
19395TIP3    H179676   4.289   1.531   0.859  0.2079  0.3114  0.4701
19395TIP3    H279677   4.435   1.506   0.827  0.0031  0.2246 -0.4405
19396TIP3   OH279678   3.841   4.399   2.474  0.3568 -0.2612 -0.1613
19396TIP3    H179679   3.766   4.376   2.420 -0.8379  0.5556  1.0723
19396TIP3    H279680   3.807   4.463   2.536  2.3789  1.0697 -0.3423
19397TIP3   OH279681   2.292   6.063  15.922  0.3830  0.0001 -0.3897
19397TIP3    H179682   2.336   6.000  15.864  1.2053  0.0363  0.1825
19397TIP3    H279683   2.363   6.118  15.954 -0.0065 -0.2692  0.9674
19398TIP3   OH279684   0.261   5.855  13.602 -0.0002  0.3038 -0.7415
19398TIP3    H179685   0.171   5.887  13.605 -0.2129 -0.1332 -1.9207
19398TIP3    H279686   0.265   5.789  13.671  0.1699  2.0770  1.0510
19399TIP3   OH279687   5.119   3.606   4.924  0.2364 -0.6887 -0.0471
19399TIP3    H179688   5.057   3.633   4.856 -1.2646 -0.4095  1.3733
19399TIP3    H279689   5.170   3.685   4.941  0.1621 -0.5670 -0.3755
19400TIP3   OH279690   1.790   5.747   1.802 -0.2448 -0.0532 -0.0611
19400TIP3    H179691   1.843   5.701   1.736 -0.5050 -1.2350  0.5160
19400TIP3    H279692   1.835   5.831   1.815  1.2660 -0.8470  0.1065
19401TIP3   OH279693   2.676   0.624   0.623  0.2045  0.6537  0.0747
19401TIP3    H179694   2.647   0.696   0.679  0.3568  0.6367  0.1757
19401TIP3    H279695   2.646   0.648   0.536  0.5407  0.9935  0.0527
19402TIP3   OH279696   3.772   3.544   6.658  0.3978 -0.7381 -0.0463
19402TIP3    H179697   3.812   3.630   6.668 -2.1671  0.3804  1.5660
19402TIP3    H279698   3.745   3.520   6.746 -2.0976 -1.5395 -0.9556
19403TIP3   OH279699   3.662   6.290   5.803 -0.4070  0.0179 -0.7493
19403TIP3    H179700   3.617   6.240   5.872  0.7141 -1.0916 -0.7809
19403TIP3    H279701   3.662   6.380   5.835 -0.8181 -0.3088  0.2189
19404TIP3   OH279702   0.872   3.958   5.445  0.4112  0.3559 -0.0619
19404TIP3    H179703   0.797   3.919   5.490  0.9014  0.8923  1.2667
19404TIP3    H279704   0.931   3.884   5.430  0.4953  0.2518  0.7179
19405TIP3   OH279705   0.342   3.014  13.594 -0.4556  0.5299 -0.1361
19405TIP3    H179706   0.399   3.062  13.534 -1.8130 -0.2481 -2.1746
19405TIP3    H279707   0.343   3.065  13.675  1.1920  1.8198 -0.9227
19406TIP3   OH279708   5.030   2.227  15.499 -0.1396  0.2958  0.3383
19406TIP3    H179709   5.055   2.173  15.574 -0.2274 -0.0706  0.1050
19406TIP3    H279710   5.058   2.176  15.423 -1.6039 -0.1283  0.0604
19407TIP3   OH279711   0.243   2.973  12.274 -0.0804 -0.2648  0.3586
19407TIP3    H179712   0.309   3.027  12.317 -0.1049 -0.2680  0.4004
19407TIP3    H279713   0.200   2.926  12.346 -0.1935 -0.1903  0.3400
19408TIP3   OH279714   1.219   3.818   5.490  0.0210  0.4601  0.0098
19408TIP3    H179715   1.311   3.800   5.473 -0.4276  0.2182 -2.6093
19408TIP3    H279716   1.216   3.911   5.512  0.9273  0.3487  0.6538
19409TIP3   OH279717   5.269   2.168   3.063  0.1770 -0.3207  0.3653
19409TIP3    H179718   5.175   2.158   3.052  0.1839 -0.6741  0.5919
19409TIP3    H279719   5.292   2.246   3.013 -0.1107 -0.7106 -0.3816
19410TIP3   OH279720   5.109   6.227  16.787  0.0838  0.0015 -0.1946
19410TIP3    H179721   5.022   6.205  16.753  0.3733  0.1236 -1.0396
19410TIP3    H279722   5.132   6.153  16.843  1.3023 -2.3118 -3.4744
19411TIP3   OH279723   6.272   6.733  15.217  0.3772  0.8997 -0.0609
19411TIP3    H179724   6.328   6.694  15.149  0.3128  1.0504 -0.1985
19411TIP3    H279725   6.279   6.827  15.204  0.1956  0.9231  0.0083
19412TIP3   OH279726   6.806   4.548  13.089  0.1634 -0.6022 -0.2203
19412TIP3    H179727   6.868   4.482  13.119  1.0266 -0.0639 -0.7770
19412TIP3    H279728   6.798   4.533  12.995  1.1501  0.7025 -0.5390
19413TIP3   OH279729   4.536   2.639   1.247  0.1744  0.8454 -0.4133
19413TIP3    H179730   4.458   2.669   1.199  0.8693  2.7257 -0.4538
19413TIP3    H279731   4.592   2.601   1.180 -0.7206 -0.6080 -0.3698
19414TIP3   OH279732   1.051   3.645   0.712 -0.3961  0.2719  0.1850
19414TIP3    H179733   0.995   3.665   0.637  0.7427 -0.3728 -0.8788
19414TIP3    H279734   1.132   3.693   0.696  0.3974 -0.9964  0.2467
19415TIP3   OH279735   5.469   1.409  15.848 -0.0879  0.0341  0.6304
19415TIP3    H179736   5.439   1.359  15.772 -1.7681  0.4414  0.9875
19415TIP3    H279737   5.552   1.368  15.871  0.2671 -0.3685 -1.1597
19416TIP3   OH279738   3.899   0.518   2.422 -0.5008 -0.1288  0.2372
19416TIP3    H179739   3.819   0.545   2.377 -1.4181 -2.2563  0.4447
19416TIP3    H279740   3.964   0.584   2.399 -1.5500  0.1173 -2.2829
19417TIP3   OH279741   5.566   1.662   0.684 -0.2092 -0.1831 -0.1357
19417TIP3    H179742   5.531   1.650   0.595 -1.7078  1.7936  0.0969
19417TIP3    H279743   5.633   1.730   0.674 -0.2693 -0.0704  0.2218
19418TIP3   OH279744   0.065   3.745  12.856  0.5763  0.4096  0.2533
19418TIP3    H179745   0.105   3.801  12.922  0.1124  0.4173  0.5283
19418TIP3    H279746   0.080   3.656  12.887  1.2192  0.3752 -0.1296
19419TIP3   OH279747   1.628   0.175  11.141 -0.3734 -0.1063  0.6880
19419TIP3    H179748   1.683   0.113  11.187  0.3338  1.1796  1.6622
19419TIP3    H279749   1.595   0.234  11.210 -1.2042  0.4623 -0.1546
19420TIP3   OH279750   0.273   5.854  12.563  0.4126 -0.1337  0.5440
19420TIP3    H179751   0.324   5.803  12.500 -0.9671 -1.1124  0.1626
19420TIP3    H279752   0.305   5.943  12.555  1.2302 -0.5109 -0.5267
19421TIP3   OH279753   3.980   3.891  14.969 -0.0259  0.4841  0.2762
19421TIP3    H179754   3.917   3.949  15.013  1.1631 -0.8937  4.1520
19421TIP3    H279755   4.054   3.948  14.948 -0.1073  0.9983  1.2979
19422TIP3   OH279756   2.535   1.688  12.674  0.6054  0.1943 -0.1709
19422TIP3    H179757   2.482   1.613  12.701  1.0574  0.2195  0.8030
19422TIP3    H279758   2.591   1.654  12.605 -1.0105  0.2900 -1.6190
19423TIP3   OH279759   2.860   4.993  12.124  0.3024 -0.3011 -0.6889
19423TIP3    H179760   2.900   5.080  12.135  0.1711 -0.1467 -1.3525
19423TIP3    H279761   2.818   4.998  12.038 -0.7895 -0.6032 -0.1774
19424TIP3   OH279762   6.350   2.169  14.010  0.4112 -0.4384 -0.2175
19424TIP3    H179763   6.442   2.190  13.996  0.6874 -1.0959  0.4812
19424TIP3    H279764   6.340   2.170  14.106 -0.1948 -0.7995 -0.2714
19425TIP3   OH279765   3.848   4.305   3.477 -0.2108 -0.4311 -0.1940
19425TIP3    H179766   3.914   4.353   3.528  2.6952 -0.8667 -3.1849
19425TIP3    H279767   3.805   4.373   3.425  1.4381 -0.5474 -1.8250
19426TIP3   OH279768   6.802   2.301   2.774 -0.1362  0.4512  0.5345
19426TIP3    H179769   6.805   2.265   2.686 -0.5747  0.1640  0.6329
19426TIP3    H279770   6.829   2.392   2.764  0.3082  0.2842  0.1811
19427TIP3   OH279771   3.462   4.799  14.045 -0.5574 -0.6333  0.3795
19427TIP3    H179772   3.407   4.722  14.027  0.9798 -1.9824  1.1603
19427TIP3    H279773   3.516   4.808  13.966 -1.6428  0.5107 -0.2658
19428TIP3   OH279774   1.590   5.518  14.401  0.3734  0.2649 -0.4630
19428TIP3    H179775   1.584   5.565  14.485 -2.9951 -0.0692 -0.3675
19428TIP3    H279776   1.568   5.585  14.335 -2.3536 -0.5620 -0.5096
19429TIP3   OH279777   2.061   5.039   0.642  0.3711 -0.4668  0.2590
19429TIP3    H179778   2.097   5.128   0.639  0.7878 -0.5830  1.5805
19429TIP3    H279779   2.016   5.029   0.558  3.0334 -0.1517 -1.3239
19430TIP3   OH279780   5.695   6.259  16.901 -0.0828  0.0868  0.4969
19430TIP3    H179781   5.728   6.209  16.827 -3.4757  0.3288 -1.3638
19430TIP3    H279782   5.747   6.339  16.901  1.9391 -1.1554  0.2940
19431TIP3   OH279783   4.130   5.499   0.604 -0.1195 -0.7374  0.5247
19431TIP3    H179784   4.167   5.468   0.686  0.2123 -0.8281  0.3409
19431TIP3    H279785   4.125   5.420   0.549  2.0616 -0.2686 -0.4626
19432TIP3   OH279786   1.845   3.423   3.100  0.5428  0.4569  0.3434
19432TIP3    H179787   1.794   3.374   3.164  0.4159  1.4245  1.0026
19432TIP3    H279788   1.798   3.506   3.090  0.5758  0.3434 -0.9896
19433TIP3   OH279789   3.634   0.012  17.078  0.0859  0.2797 -0.1805
19433TIP3    H179790   3.624  -0.064  17.020 -1.2239  1.3029 -1.3657
19433TIP3    H279791   3.545   0.046  17.088  0.3803  0.5647  1.8966
19434TIP3   OH279792   3.465   2.280   4.248 -0.9000 -0.5402  0.6806
19434TIP3    H179793   3.525   2.227   4.301 -0.0694  0.9732  1.3272
19434TIP3    H279794   3.522   2.335   4.195 -1.7308 -0.1526  0.1646
19435TIP3   OH279795   6.732   0.703   2.120 -0.0665  0.2848  0.0493
19435TIP3    H179796   6.749   0.611   2.099  0.8160  0.3203  0.6033
19435TIP3    H279797   6.661   0.700   2.184 -0.7215  0.0492 -0.6569
19436TIP3   OH279798   4.023   1.938  16.370 -1.0480 -0.3208  0.2722
19436TIP3    H179799   4.033   2.030  16.395  0.2124 -0.3054 -0.2176
19436TIP3    H279800   4.037   1.937  16.275  0.5337 -1.1891  0.4677
19437TIP3   OH279801   0.096   1.914  16.224  0.5545 -0.3819  0.8451
19437TIP3    H179802   0.164   1.848  16.232 -0.2099 -1.5376 -1.3132
19437TIP3    H279803   0.014   1.867  16.242 -0.0274 -0.1824 -1.0510
19438TIP3   OH279804   0.577   3.899  15.623 -0.6926  0.6154 -0.0148
19438TIP3    H179805   0.640   3.887  15.694  0.2239 -1.1648 -1.0287
19438TIP3    H279806   0.630   3.930  15.549 -0.5538 -2.5015 -1.3798
19439TIP3   OH279807   1.952   6.444  11.331  0.1657 -0.1456  0.3112
19439TIP3    H179808   1.971   6.505  11.259 -0.1795  0.5406  0.7969
19439TIP3    H279809   1.878   6.392  11.300 -0.3419  0.5283  0.3970
19440TIP3   OH279810   5.890   5.654  13.738 -0.2351 -0.4728  0.7477
19440TIP3    H179811   5.815   5.661  13.679 -0.3334 -0.4126  0.8790
19440TIP3    H279812   5.904   5.742  13.771  0.0630 -0.4331  0.5173
19441TIP3   OH279813   2.151   4.899  14.535  0.4371  0.2700  0.7343
19441TIP3    H179814   2.188   4.834  14.476  0.2755  0.1373  0.7779
19441TIP3    H279815   2.132   4.851  14.616  1.0745  0.5488  1.0526
19442TIP3   OH279816   5.298   2.737   5.892  0.4223  0.2280 -0.4400
19442TIP3    H179817   5.209   2.772   5.903  0.4979  1.0056 -2.0348
19442TIP3    H279818   5.290   2.644   5.914 -0.1639  0.7920  2.1457
19443TIP3   OH279819   4.418   6.577  12.755 -0.1910 -0.5859 -0.2997
19443TIP3    H179820   4.447   6.573  12.846 -0.3143 -0.5615 -0.2592
19443TIP3    H279821   4.326   6.603  12.760 -0.1858 -0.5405 -0.4327
19444TIP3   OH279822   1.087   0.415  12.467 -0.3798  0.2641 -0.2787
19444TIP3    H179823   1.079   0.370  12.382  0.6699  1.7850 -1.2255
19444TIP3    H279824   1.165   0.469  12.458 -1.2263  1.7930  1.0328
19445TIP3   OH279825   0.931   6.426  12.602  0.1428  0.7079  0.5737
19445TIP3    H179826   0.855   6.482  12.588  0.0018  1.0684  2.5008
19445TIP3    H279827   1.006   6.486  12.597  0.2049  0.5951  0.0672
19446TIP3   OH279828   1.142   2.920  15.588 -0.6005 -0.0247 -0.0852
19446TIP3    H179829   1.125   3.013  15.570 -3.0444 -0.1417  1.1461
19446TIP3    H279830   1.230   2.919  15.626 -0.2525  1.6801 -0.7294
19447TIP3   OH279831   1.325   4.764  13.868 -0.1645  0.0573  0.3974
19447TIP3    H179832   1.272   4.733  13.795 -1.4049 -1.3951  1.8442
19447TIP3    H279833   1.365   4.685  13.904 -0.2037  0.6219  1.7452
19448TIP3   OH279834   1.844   6.142  13.084 -1.1636 -0.1953  0.2238
19448TIP3    H179835   1.935   6.129  13.057 -1.7941 -2.4049 -1.1366
19448TIP3    H279836   1.850   6.186  13.169  1.1727 -0.2605  0.1549
19449TIP3   OH279837   6.381   0.036   5.732 -0.6762 -0.4637  0.1802
19449TIP3    H179838   6.461  -0.012   5.754 -0.1896  1.2954  2.6153
19449TIP3    H279839   6.393   0.060   5.640  2.7769  1.6442  0.9721
19450TIP3   OH279840   2.403   4.952   0.610 -0.7401  0.7074  0.1866
19450TIP3    H179841   2.322   4.930   0.565  0.0502 -0.7035 -0.6059
19450TIP3    H279842   2.459   4.876   0.597 -0.3776  0.2792  3.3800
19451TIP3   OH279843   2.802   6.356   0.135  0.7319  0.4081 -0.2825
19451TIP3    H179844   2.839   6.413   0.068  0.5964 -1.2438 -1.8631
19451TIP3    H279845   2.708   6.372   0.131  0.8936  2.2443  1.4667
19452TIP3   OH279846   3.444   4.159   0.463  0.3528  0.3510  0.2620
19452TIP3    H179847   3.526   4.117   0.436  0.8194  1.5838 -0.3120
19452TIP3    H279848   3.397   4.177   0.381  0.7891  2.1447  0.3544
19453TIP3   OH279849   1.695   6.042  16.635  0.3099  0.0505 -0.0209
19453TIP3    H179850   1.704   6.056  16.729  0.9228  4.1404 -0.4760
19453TIP3    H279851   1.611   6.082  16.613  0.4784 -0.2453 -1.2856
19454TIP3   OH279852   0.497   3.898  12.552  0.1406 -0.3206 -0.3839
19454TIP3    H179853   0.430   3.960  12.580  0.5500 -0.0726  0.0567
19454TIP3    H279854   0.541   3.872  12.633  0.3708 -0.7201 -0.6345
19455TIP3   OH279855   3.910   1.619   4.588 -0.4854  0.7386 -0.7293
19455TIP3    H179856   3.886   1.535   4.548  0.2442  0.7130 -1.1342
19455TIP3    H279857   3.870   1.685   4.530 -1.8708  0.6793  0.1157
19456TIP3   OH279858   5.790   5.303   5.974  0.6056  0.3096 -0.2016
19456TIP3    H179859   5.758   5.212   5.971  0.8757  0.1134  1.9129
19456TIP3    H279860   5.758   5.341   5.892  0.5224 -1.6867 -1.1706
19457TIP3   OH279861   5.540   5.361  16.774 -0.3650 -0.5402 -0.6487
19457TIP3    H179862   5.476   5.352  16.845 -0.6871 -1.8748 -1.0814
19457TIP3    H279863   5.619   5.392  16.817 -0.7699 -0.6313  0.1882
19458TIP3   OH279864   6.206   2.640   1.392 -0.1216 -0.6825 -0.1381
19458TIP3    H179865   6.161   2.683   1.319 -1.4158  0.6926  1.3993
19458TIP3    H279866   6.292   2.683   1.395 -0.3062 -0.2878 -0.4433
19459TIP3   OH279867   1.605   4.089   0.040 -0.6918  0.5007  0.2667
19459TIP3    H179868   1.519   4.106   0.080 -0.4724  0.6959  0.6569
19459TIP3    H279869   1.642   4.018   0.094 -0.1888  1.0979  0.7172
19460TIP3   OH279870   4.559   6.773  17.125 -0.4826 -0.7673  0.1475
19460TIP3    H179871   4.595   6.697  17.079  1.7750 -0.0939  0.6599
19460TIP3    H279872   4.611   6.847  17.093 -3.6361  0.9117 -1.5341
19461TIP3   OH279873   4.120   6.551   0.832  0.3842 -0.5781  0.1468
19461TIP3    H179874   4.122   6.629   0.778 -1.3923 -0.6829 -0.1058
19461TIP3    H279875   4.130   6.478   0.771  0.4776 -0.6127  0.2023
19462TIP3   OH279876   2.638   2.120  14.815  0.6122 -0.7237 -0.2422
19462TIP3    H179877   2.697   2.047  14.797 -0.0844 -1.2393 -0.4784
19462TIP3    H279878   2.572   2.083  14.873 -0.5788 -0.6757 -1.5339
19463TIP3   OH279879   0.416   3.687   4.084 -0.3804 -0.4795 -0.3966
19463TIP3    H179880   0.426   3.595   4.110 -0.5938  0.2094  2.4362
19463TIP3    H279881   0.342   3.719   4.135 -1.0521  1.0172 -2.2015
19464TIP3   OH279882   6.292   5.033  10.465  0.2960  0.2795  0.1704
19464TIP3    H179883   6.355   4.983  10.517 -1.2756 -1.7978  0.1848
19464TIP3    H279884   6.260   5.100  10.526 -0.5815 -1.3257  1.5774
19465TIP3   OH279885   4.437   2.739  13.678 -0.3456 -0.1714  0.2782
19465TIP3    H179886   4.502   2.785  13.624 -2.5223  0.8424 -1.6721
19465TIP3    H279887   4.404   2.806  13.737  0.4641 -0.7395  1.4139
19466TIP3   OH279888   6.272   5.294  12.800 -0.0032  0.1373  0.0065
19466TIP3    H179889   6.339   5.281  12.867  2.6783 -1.7603 -2.7701
19466TIP3    H279890   6.320   5.322  12.722 -2.2521 -2.1457 -2.4193
19467TIP3   OH279891   5.632   1.283   6.529 -0.0161 -0.7871  0.1654
19467TIP3    H179892   5.542   1.253   6.519  0.2389 -1.2210 -0.8965
19467TIP3    H279893   5.680   1.242   6.457  0.1754  2.7999 -1.9927
19468TIP3   OH279894   6.471   3.515  13.713 -0.0810  0.1361  0.4844
19468TIP3    H179895   6.413   3.515  13.789 -0.4339 -1.1977  0.2362
19468TIP3    H279896   6.418   3.555  13.643 -1.5467 -2.8807 -0.2926
19469TIP3   OH279897   3.613   5.999  14.913  0.0693 -0.3864  0.4941
19469TIP3    H179898   3.599   6.074  14.971  0.2364  1.0352 -1.2250
19469TIP3    H279899   3.673   5.942  14.961 -0.9075  0.0188  2.2968
19470TIP3   OH279900   0.317   3.947  12.040  0.0472 -0.1111  0.3861
19470TIP3    H179901   0.286   3.874  11.987  0.1556  1.0619 -1.3787
19470TIP3    H279902   0.372   3.907  12.107 -0.0685 -1.6491 -0.3998
19471TIP3   OH279903   3.536   5.192   6.547  0.3441  0.4350  0.2400
19471TIP3    H179904   3.489   5.184   6.630  2.0363  0.2389  1.2325
19471TIP3    H279905   3.500   5.272   6.507  0.8188  1.6405  2.0794
19472TIP3   OH279906   3.535   3.669   5.863  0.0020 -0.2412  0.0697
19472TIP3    H179907   3.459   3.629   5.821  0.8928 -2.3982  0.3806
19472TIP3    H279908   3.586   3.706   5.791 -0.0090 -1.1933 -0.4481
19473TIP3   OH279909   0.748   2.378  14.196  0.2292  0.4890 -0.0777
19473TIP3    H179910   0.686   2.367  14.268  0.6257 -2.3063 -0.0383
19473TIP3    H279911   0.703   2.344  14.119  0.4672  1.7778 -0.8178
19474TIP3   OH279912   4.591   5.064   2.365 -0.4524 -0.6823  0.2904
19474TIP3    H179913   4.613   5.081   2.457 -0.7011  5.3575 -0.3754
19474TIP3    H279914   4.496   5.056   2.364 -0.5021 -0.1046  0.4759
19475TIP3   OH279915   2.593   6.655  11.975 -0.1998 -0.1044  0.6103
19475TIP3    H179916   2.555   6.602  12.046  0.0803 -1.2776 -0.0895
19475TIP3    H279917   2.624   6.734  12.019 -3.8016  1.2040  1.2043
19476TIP3   OH279918   6.078   0.434  12.013 -0.6334  0.5212 -0.1153
19476TIP3    H179919   6.086   0.341  11.994 -1.2224  0.5830 -0.6969
19476TIP3    H279920   6.166   0.462  12.039 -0.8801 -0.6642  2.2124
19477TIP3   OH279921   4.205   0.263  11.839  0.3321 -0.2110 -0.1342
19477TIP3    H179922   4.293   0.297  11.856  0.9279 -1.7547 -0.0102
19477TIP3    H279923   4.198   0.262  11.744  0.6553 -0.5833 -0.1558
19478TIP3   OH279924   0.593   1.645  13.157 -0.6407 -0.3052  0.4145
19478TIP3    H179925   0.566   1.678  13.243  0.9163  1.1759  0.3876
19478TIP3    H279926   0.668   1.699  13.133  0.8205 -2.5995 -0.5654
19479TIP3   OH279927   0.690   6.744  14.623  0.2822 -0.4890  0.0561
19479TIP3    H179928   0.696   6.652  14.648 -1.9075 -0.7107 -0.0599
19479TIP3    H279929   0.738   6.750  14.540 -2.4780 -2.3740 -1.8673
19480TIP3   OH279930   4.433   5.355   5.432 -0.2118 -0.1529 -0.1720
19480TIP3    H179931   4.410   5.395   5.516 -1.6817  1.7225 -1.3847
19480TIP3    H279932   4.522   5.385   5.414 -0.7288  1.4041 -0.3201
19481TIP3   OH279933   5.045   6.734  15.243 -0.6278 -0.2547 -0.4380
19481TIP3    H179934   5.077   6.683  15.169  0.5808 -0.0564 -0.0770
19481TIP3    H279935   4.990   6.673  15.292 -0.2465 -0.8214 -0.7014
19482TIP3   OH279936   4.910   3.454   3.155 -0.5023 -0.5194 -0.1596
19482TIP3    H179937   4.870   3.406   3.227  2.0033 -2.2259  0.2232
19482TIP3    H279938   4.939   3.537   3.193 -3.6440  0.8691 -0.5033
19483TIP3   OH279939   0.807   5.078  13.855  0.6769  0.4203 -0.4533
19483TIP3    H179940   0.805   5.168  13.823 -0.7305 -0.4056 -2.9383
19483TIP3    H279941   0.815   5.025  13.776 -1.6605 -1.7457  0.6532
19484TIP3   OH279942   5.121   5.121  13.401  0.5903  0.0729 -0.3530
19484TIP3    H179943   5.116   5.151  13.491  0.3233 -0.2715 -0.2485
19484TIP3    H279944   5.161   5.034  13.406  0.1806 -0.1288 -0.5192
19485TIP3   OH279945   1.282   3.809   0.672 -0.5172 -0.1114 -0.4724
19485TIP3    H179946   1.261   3.834   0.762 -0.5027 -0.9294 -0.2403
19485TIP3    H279947   1.378   3.802   0.671 -0.2905  2.1828 -1.1605
19486TIP3   OH279948   1.342   5.652   4.900  0.2224 -0.2088  0.5084
19486TIP3    H179949   1.264   5.599   4.885  0.2351 -0.1346  0.1824
19486TIP3    H279950   1.416   5.595   4.877  0.1758  0.7632 -2.4586
19487TIP3   OH279951   4.585   6.645  11.964 -0.0880 -0.1686  0.5122
19487TIP3    H179952   4.539   6.583  11.908  1.3977 -0.5017 -0.3835
19487TIP3    H279953   4.667   6.664  11.917  0.5780  0.5882  1.9227
19488TIP3   OH279954   5.235   4.465  10.666  0.0247  0.0997  0.1076
19488TIP3    H179955   5.248   4.381  10.624 -1.5576 -0.5211  0.7798
19488TIP3    H279956   5.235   4.445  10.760 -0.9076  0.7438  0.2578
19489TIP3   OH279957   5.353   3.892  14.426 -0.1612 -0.3104  0.5961
19489TIP3    H179958   5.429   3.853  14.469  1.1431 -0.6895 -1.8875
19489TIP3    H279959   5.370   3.986  14.426  0.8695 -0.4662 -0.8490
19490TIP3   OH279960   0.483   2.331  15.063  0.5498 -0.1181  0.5967
19490TIP3    H179961   0.499   2.310  14.971 -1.7802  0.4070  0.0028
19490TIP3    H279962   0.442   2.417  15.061  2.5361  0.9547  2.3534
19491TIP3   OH279963   2.120   3.477  10.357  0.0967  0.1843  0.3206
19491TIP3    H179964   2.118   3.572  10.350 -0.7264  0.1160 -0.6460
19491TIP3    H279965   2.208   3.456  10.387  0.5879  1.2046 -0.3743
19492TIP3   OH279966   6.684   4.928   4.948  0.0595  0.3937 -0.2264
19492TIP3    H179967   6.640   4.859   4.998 -0.4730  1.5413  0.9327
19492TIP3    H279968   6.692   4.892   4.860 -0.2506 -1.1268  0.3374
19493TIP3   OH279969   4.203   2.448  15.170 -0.6854  0.7829 -0.3916
19493TIP3    H179970   4.177   2.356  15.180  0.0516  0.5441 -0.6480
19493TIP3    H279971   4.297   2.445  15.157 -0.7061  1.5621 -0.7378
19494TIP3   OH279972   2.223   1.514   2.947  0.2813 -0.6034  0.1078
19494TIP3    H179973   2.158   1.522   3.018 -0.9201 -0.3093 -0.9818
19494TIP3    H279974   2.231   1.603   2.912  0.7579 -0.7693 -0.2098
19495TIP3   OH279975   0.736   6.599   3.733  0.1131  0.1901  0.1150
19495TIP3    H179976   0.756   6.679   3.684  0.5587 -0.0681 -0.1327
19495TIP3    H279977   0.645   6.580   3.711 -0.3982  1.3206  1.1766
19496TIP3   OH279978   4.514   4.333  15.662  0.0274 -0.0089 -0.4177
19496TIP3    H179979   4.561   4.358  15.741  0.7028 -0.5962 -0.6209
19496TIP3    H279980   4.550   4.388  15.593  0.5699 -0.5827 -0.6079
19497TIP3   OH279981   4.334   5.666   4.060  0.7348  0.2051  0.0794
19497TIP3    H179982   4.304   5.618   3.983 -1.4967 -0.2825  1.1769
19497TIP3    H279983   4.364   5.598   4.121  0.3063  0.3974  0.5131
19498TIP3   OH279984   2.556   5.592   6.099  0.0489 -0.0520  0.0031
19498TIP3    H179985   2.545   5.544   6.181 -0.0947  0.2260  0.1470
19498TIP3    H279986   2.543   5.683   6.122 -1.5573 -0.0883 -0.6149
19499TIP3   OH279987   5.225   4.464  11.889  0.1203 -0.0218 -0.0309
19499TIP3    H179988   5.130   4.458  11.877  0.3116 -0.1317 -1.7152
19499TIP3    H279989   5.237   4.542  11.943 -0.8636  0.9186 -1.1216
19500TIP3   OH279990   4.509   4.342   1.341 -0.3057 -0.0638 -0.6548
19500TIP3    H179991   4.573   4.275   1.314 -0.2650  0.1370 -1.0674
19500TIP3    H279992   4.557   4.425   1.334 -0.3027 -0.0012  0.0217
19501TIP3   OH279993   1.980   3.504   3.690  0.2616 -0.0895 -0.0342
19501TIP3    H179994   2.013   3.421   3.726 -0.2485 -1.0096 -1.6225
19501TIP3    H279995   2.042   3.525   3.620  1.3714  1.8041  1.4005
19502TIP3   OH279996   0.237   4.612  14.350  0.4854  0.2619 -0.1553
19502TIP3    H179997   0.239   4.681  14.284 -0.9974 -1.5550 -2.2445
19502TIP3    H279998   0.307   4.552  14.324 -0.5795 -0.8432 -0.5594
19503TIP3   OH279999   0.019   3.477  11.803 -0.7650  0.4102  0.3530
19503TIP3    H180000  -0.000   3.550  11.743 -1.3557  2.6110  3.0131
19503TIP3    H280001  -0.043   3.409  11.778  0.5847  0.2095 -3.0034
19504TIP3   OH280002   6.549   5.063  16.984 -0.1410 -0.2343 -0.0290
19504TIP3    H180003   6.536   5.085  17.077 -2.3251 -1.3750 -0.0004
19504TIP3    H280004   6.630   5.107  16.961  1.6122 -1.5447  2.9670
19505TIP3   OH280005   2.254   5.237  13.014  0.7427  0.4875 -0.6050
19505TIP3    H180006   2.342   5.199  13.016  0.8874  0.6150 -2.3591
19505TIP3    H280007   2.222   5.217  12.926 -1.0194  0.3883  0.0187
19506TIP3   OH280008   3.142   1.887   4.094  0.1522  0.0589 -0.0077
19506TIP3    H180009   3.225   1.933   4.104  0.1880 -0.0609  0.2502
19506TIP3    H280010   3.154   1.832   4.016  0.6022 -0.5750  0.5010
19507TIP3   OH280011   1.561   1.702  16.967  0.0426  0.6452  0.3422
19507TIP3    H180012   1.490   1.638  16.967  1.5693 -1.1462  0.5930
19507TIP3    H280013   1.591   1.705  16.877  0.6936  0.1434  0.5361
19508TIP3   OH280014   2.536   4.661  11.562  0.3167 -0.2818  0.4440
19508TIP3    H180015   2.475   4.726  11.597  0.3755 -0.9668  1.8809
19508TIP3    H280016   2.590   4.636  11.637  1.7893 -0.3571 -0.5923
19509TIP3   OH280017   1.075   1.302   4.161  0.2834  0.2080 -0.3885
19509TIP3    H180018   1.154   1.256   4.190  0.7410  0.8366 -0.6254
19509TIP3    H280019   1.016   1.300   4.237  0.8564  0.4740  0.0680
19510TIP3   OH280020   3.516   5.849   5.393 -0.3809 -0.1419  0.1152
19510TIP3    H180021   3.465   5.921   5.430 -0.6571  0.2230 -0.9249
19510TIP3    H280022   3.466   5.823   5.315 -0.7489 -2.0409  0.9297
19511TIP3   OH280023   4.770   0.336   5.740 -0.2176 -0.4274  0.8183
19511TIP3    H180024   4.743   0.244   5.740 -0.6997 -0.2871  0.4918
19511TIP3    H280025   4.865   0.333   5.738 -0.2289 -0.9254 -1.6076
19512TIP3   OH280026   0.194   4.482  14.005  0.0417  0.2641 -0.0817
19512TIP3    H180027   0.133   4.534  14.057 -0.4883 -2.5780  2.4457
19512TIP3    H280028   0.142   4.410  13.971  1.7339 -1.8401  1.5388
19513TIP3   OH280029   0.532   0.138   6.067 -0.0594  0.1638  0.9976
19513TIP3    H180030   0.507   0.046   6.060  0.7170  0.0478 -0.5664
19513TIP3    H280031   0.477   0.172   6.138  0.6466 -1.8119  2.5625
19514TIP3   OH280032   3.694   3.754   1.786  0.4694  0.1321 -0.1398
19514TIP3    H180033   3.767   3.731   1.729  0.7292 -0.5755  0.4688
19514TIP3    H280034   3.732   3.810   1.854 -0.0569  1.9896 -1.2982
19515TIP3   OH280035   6.519   4.151  15.096  0.3841 -0.3626  0.1569
19515TIP3    H180036   6.442   4.120  15.049  1.1164 -0.4212 -1.0505
19515TIP3    H280037   6.525   4.094  15.173  0.4591 -1.7718 -0.8738
19516TIP3   OH280038   2.837   0.030   6.011  0.0474 -0.2241 -0.3780
19516TIP3    H180039   2.814   0.058   6.100 -0.1895  0.1537 -0.5584
19516TIP3    H280040   2.913  -0.026   6.023 -2.8342 -4.4247  0.6784
19517TIP3   OH280041   3.699   4.847   4.233  0.0879  0.3738  0.2056
19517TIP3    H180042   3.622   4.816   4.281 -0.5727  1.0901 -0.3680
19517TIP3    H280043   3.669   4.856   4.143  1.1959 -0.5494 -0.2835
19518TIP3   OH280044   1.917   0.940  16.425 -0.1244  0.2628  0.4694
19518TIP3    H180045   1.995   0.920  16.372 -0.3036 -1.5057  0.8111
19518TIP3    H280046   1.950   0.994  16.497  0.8045 -0.5344  0.6545
19519TIP3   OH280047   5.470   3.500   1.503  0.0509  0.5171 -0.5663
19519TIP3    H180048   5.563   3.490   1.486  0.8853  1.3711  2.7089
19519TIP3    H280049   5.441   3.413   1.530  0.2154  0.5035 -0.4298
19520TIP3   OH280050   4.041   1.716   3.622  0.4495  0.2147 -0.6419
19520TIP3    H180051   4.000   1.665   3.693  0.3991 -2.1834 -2.2843
19520TIP3    H280052   4.127   1.676   3.611  1.0917  1.6172 -0.9196
19521TIP3   OH280053   4.765   5.098  14.333  0.3362 -0.0031 -0.4132
19521TIP3    H180054   4.802   5.169  14.281  0.8098  0.0708  0.0173
19521TIP3    H280055   4.670   5.107  14.322  0.2662  1.9329  1.2155
19522TIP3   OH280056   1.038   2.438   3.440  0.1882  0.3906  0.0032
19522TIP3    H180057   0.988   2.358   3.458 -0.1438  0.0098 -2.2652
19522TIP3    H280058   0.971   2.505   3.424  0.4185  0.4297 -0.8253
19523TIP3   OH280059   3.286   6.328  14.283 -0.3204 -0.2214  0.1759
19523TIP3    H180060   3.366   6.370  14.251  1.0011 -2.9138 -0.3342
19523TIP3    H280061   3.310   6.291  14.368 -1.3216 -0.2094  0.4764
19524TIP3   OH280062   6.294   2.586  12.856  0.1151  0.0594  0.5051
19524TIP3    H180063   6.314   2.498  12.824  0.1502  0.6633 -1.2545
19524TIP3    H280064   6.203   2.601  12.833  0.2506  0.6703  0.3261
19525TIP3   OH280065   6.549   4.385   1.620 -0.2467  0.1505  0.6374
19525TIP3    H180066   6.599   4.446   1.565 -0.6851 -0.9148 -1.0094
19525TIP3    H280067   6.590   4.300   1.603 -0.3673 -0.2047  2.0367
19526TIP3   OH280068   4.491   0.144   5.443  0.3463  0.4059  0.3023
19526TIP3    H180069   4.545   0.192   5.506  1.1375 -1.3334  1.0379
19526TIP3    H280070   4.554   0.109   5.380  0.1259 -1.3728  0.9837
19527TIP3   OH280071   6.281   1.070   1.899  0.4377 -0.4041 -0.7519
19527TIP3    H180072   6.272   1.001   1.833  0.1495 -1.1514  0.0540
19527TIP3    H280073   6.295   1.150   1.848  1.1781 -1.1081 -1.6891
19528TIP3   OH280074   6.207   0.718   2.489 -0.4339  0.1645 -0.2743
19528TIP3    H180075   6.228   0.740   2.580  1.4877  2.7558 -1.2137
19528TIP3    H280076   6.114   0.735   2.481 -0.5224  0.4384  1.0616
19529TIP3   OH280077   4.911   4.954  12.696  0.0947 -0.4347  0.7952
19529TIP3    H180078   4.850   4.899  12.647 -0.4183 -1.7002  2.7404
19529TIP3    H280079   4.859   5.031  12.720  0.4195  0.3144 -0.7734
19530TIP3   OH280080   2.509   4.908   5.536  0.2808 -0.6813 -0.5971
19530TIP3    H180081   2.509   4.949   5.450  1.3457 -0.9102 -0.7138
19530TIP3    H280082   2.601   4.896   5.558  0.0269 -0.8072  0.4936
19531TIP3   OH280083   3.101   3.229  15.747  0.0207 -0.3667  0.3982
19531TIP3    H180084   3.153   3.308  15.762 -0.2397 -0.0452 -0.3416
19531TIP3    H280085   3.130   3.168  15.815 -0.0217  0.4802  1.1956
19532TIP3   OH280086   2.704   6.007   0.841  0.4430  0.3651  0.3280
19532TIP3    H180087   2.675   6.005   0.750 -0.4187 -0.9665  0.6009
19532TIP3    H280088   2.792   6.045   0.837  0.7869 -0.4795 -1.1669
19533TIP3   OH280089   5.546   1.301  13.274 -0.0717 -0.5537  0.1728
19533TIP3    H180090   5.495   1.381  13.267 -0.6964 -0.9249  0.4875
19533TIP3    H280091   5.502   1.239  13.216 -1.2026 -1.5057  1.9664
19534TIP3   OH280092   0.762   0.666  14.779  0.4416  0.5419 -0.2993
19534TIP3    H180093   0.735   0.653  14.688 -0.6315 -0.2720  0.1083
19534TIP3    H280094   0.682   0.655  14.829  1.2762 -0.5646  0.8615
19535TIP3   OH280095   1.462   3.030  16.334  0.7015  0.2882  0.0710
19535TIP3    H180096   1.429   2.968  16.398  1.0074 -0.2676 -0.3002
19535TIP3    H280097   1.542   3.066  16.373  1.0009 -0.2037 -0.0826
19536TIP3   OH280098   4.817   3.414  17.060 -0.6383  0.1866  0.1992
19536TIP3    H180099   4.765   3.370  17.126 -0.4313 -0.2222  0.0892
19536TIP3    H280100   4.867   3.344  17.017  0.8520  0.6925  1.0434
19537TIP3   OH280101   1.456   6.256   1.269  0.1876 -0.9128  0.1238
19537TIP3    H180102   1.431   6.172   1.231  1.7656 -1.3443 -0.0436
19537TIP3    H280103   1.540   6.238   1.312  0.9433  0.7454 -0.5864
19538TIP3   OH280104   6.563   0.517  12.302  0.0692 -0.7211 -0.2121
19538TIP3    H180105   6.614   0.525  12.382 -0.2943  1.1129 -0.1160
19538TIP3    H280106   6.521   0.431  12.308  1.0152 -1.1230  0.9637
19539TIP3   OH280107   1.081   3.538  12.787 -0.5905  0.2690  0.0728
19539TIP3    H180108   1.032   3.549  12.705 -0.2910  0.2018 -0.1154
19539TIP3    H280109   1.064   3.618  12.836 -1.7186 -0.1855  0.4500
19540TIP3   OH280110   0.447   1.562  16.585  0.4070 -0.3725  0.2369
19540TIP3    H180111   0.367   1.570  16.638  0.0331  1.0879 -0.4859
19540TIP3    H280112   0.518   1.576  16.647  0.0078  0.4377  0.5307
19541TIP3   OH280113   6.675   6.728   2.721 -0.1951 -0.4701  0.0832
19541TIP3    H180114   6.660   6.802   2.779  2.1320  1.5820 -1.6926
19541TIP3    H280115   6.686   6.653   2.780 -0.8590  0.9048  2.0678
19542TIP3   OH280116   1.128   3.933  15.002 -0.0464 -0.2699 -0.0311
19542TIP3    H180117   1.134   3.968  15.091  1.6542 -1.1399  0.2400
19542TIP3    H280118   1.203   3.972  14.956 -1.3784  0.8358 -1.3673
19543TIP3   OH280119   4.140   0.269   0.858 -0.5143 -0.0223 -0.8994
19543TIP3    H180120   4.118   0.177   0.844  1.4034 -1.2083  2.4582
19543TIP3    H280121   4.196   0.292   0.784  0.0942 -2.0473 -1.1364
19544TIP3   OH280122   3.342   6.538   5.138 -0.2045 -0.6305 -0.5081
19544TIP3    H180123   3.405   6.604   5.168 -0.8387 -0.2064 -0.0798
19544TIP3    H280124   3.365   6.458   5.185 -0.8190 -0.1240  0.6950
19545TIP3   OH280125   0.483   4.849  16.603  0.1492  0.0165  0.2034
19545TIP3    H180126   0.517   4.899  16.678  1.5041  0.8969 -0.9444
19545TIP3    H280127   0.399   4.890  16.584 -1.2053 -1.5081  2.4375
19546TIP3   OH280128   5.706   4.441  12.541  0.1442 -0.0285 -0.1655
19546TIP3    H180129   5.756   4.378  12.488  1.0913 -0.1396  0.8371
19546TIP3    H280130   5.744   4.434  12.628 -1.6083 -0.0671  0.6247
19547TIP3   OH280131   1.973   5.591  10.560 -0.0799  0.0133  0.2590
19547TIP3    H180132   1.894   5.538  10.546 -0.6103  0.3150  1.9605
19547TIP3    H280133   1.966   5.661  10.495 -0.5853 -0.6319 -0.4096
19548TIP3   OH280134   5.014   4.506   1.468 -0.0834 -0.0699 -0.3101
19548TIP3    H180135   5.022   4.448   1.393  0.4755  1.8609 -1.8168
19548TIP3    H280136   4.992   4.591   1.431 -0.2489  0.8463  1.7578
19549TIP3   OH280137   0.241   2.876  14.433  0.5403  0.4646 -0.4855
19549TIP3    H180138   0.185   2.856  14.358 -1.4183  0.3432  0.9306
19549TIP3    H280139   0.206   2.958  14.467  0.4497 -0.2066  1.1118
19550TIP3   OH280140   5.423   4.877  14.724 -0.5212 -0.1585 -0.1544
19550TIP3    H180141   5.412   4.785  14.746  0.6090 -0.5850 -1.2721
19550TIP3    H280142   5.447   4.918  14.808  1.3569 -1.3263 -0.0531
19551TIP3   OH280143   0.101   1.512   2.238 -0.7639 -0.3347  0.0751
19551TIP3    H180144   0.091   1.419   2.217  0.3275 -0.2154 -1.0594
19551TIP3    H280145   0.027   1.531   2.296 -0.7744 -2.0028  0.6745
19552TIP3   OH280146   1.013   2.365   4.548 -0.2503 -0.5276 -0.1360
19552TIP3    H180147   0.966   2.345   4.629  0.0381 -1.2081 -0.1317
19552TIP3    H280148   1.066   2.287   4.531  1.9789  0.7331  0.6017
19553TIP3   OH280149   2.601   1.388  15.177 -0.1254 -0.0073 -0.0503
19553TIP3    H180150   2.617   1.297  15.204  0.5384  0.4938  1.3506
19553TIP3    H280151   2.532   1.419  15.235  0.8651  0.8942  0.7028
19554TIP3   OH280152   5.441   2.349  16.772  0.2839  0.0234 -0.1426
19554TIP3    H180153   5.351   2.365  16.801  0.2385  2.6350 -1.4219
19554TIP3    H280154   5.495   2.382  16.844  0.2545 -1.1305  0.4312
19555TIP3   OH280155   3.211   0.779   0.664  0.2281  0.0661 -0.3594
19555TIP3    H180156   3.198   0.690   0.630  0.9839  0.2625 -1.2047
19555TIP3    H280157   3.153   0.833   0.611 -0.9954 -0.0434  0.8362
19556TIP3   OH280158   3.920   6.810   0.027 -0.3666 -0.2147  0.2815
19556TIP3    H180159   3.856   6.840  -0.038 -0.4035  1.3556  1.0248
19556TIP3    H280160   3.918   6.714   0.018 -3.2315 -0.2940  0.6509
19557TIP3   OH280161   5.457   0.746  13.846  0.4316  0.2545 -0.2257
19557TIP3    H180162   5.549   0.750  13.872 -0.0780  0.8082  1.5880
19557TIP3    H280163   5.454   0.791  13.761  1.9001 -0.2410 -0.5717
19558TIP3   OH280164   3.139   0.670   0.162 -0.4084  0.5852  0.5324
19558TIP3    H180165   3.234   0.674   0.153 -0.5085  0.4817 -0.8579
19558TIP3    H280166   3.114   0.585   0.125 -1.1227  1.0590 -0.1203
19559TIP3   OH280167   0.379   6.724  16.796  0.2403  0.2136 -0.3283
19559TIP3    H180168   0.355   6.679  16.715 -1.4809 -3.1014  1.8144
19559TIP3    H280169   0.296   6.759  16.829  0.9352  1.6171  0.0351
19560TIP3   OH280170   3.989   6.113  12.779  0.2443  0.2233 -0.4719
19560TIP3    H180171   4.008   6.039  12.837  1.0850  0.9664  0.2233
19560TIP3    H280172   4.009   6.080  12.692  0.1463 -0.5255 -0.2170
19561TIP3   OH280173   5.728   2.149   5.485 -0.0934 -0.4699 -0.0112
19561TIP3    H180174   5.795   2.088   5.514  1.1139  0.9260  0.2434
19561TIP3    H280175   5.682   2.174   5.566 -0.5372 -0.9610 -0.1055
19562TIP3   OH280176   5.892   4.874   4.787  0.2097  0.4916  0.4533
19562TIP3    H180177   5.826   4.805   4.795 -0.6697  1.0533 -1.3228
19562TIP3    H280178   5.883   4.924   4.869 -0.4470 -0.3872  0.9421
19563TIP3   OH280179   1.491   4.636  16.883 -0.6974  0.3761  0.2347
19563TIP3    H180180   1.400   4.664  16.897 -1.1336 -0.0551 -1.4482
19563TIP3    H280181   1.530   4.707  16.832 -0.6806 -0.2733 -0.6985
19564TIP3   OH280182   2.531   1.793  14.694 -0.2321 -0.3062  0.0070
19564TIP3    H180183   2.593   1.801  14.767 -0.8051 -1.0486  0.5936
19564TIP3    H280184   2.448   1.771  14.735 -0.6715 -0.2883 -0.8460
19565TIP3   OH280185   1.585   4.715   0.628 -0.0788 -0.0251  0.6119
19565TIP3    H180186   1.520   4.715   0.699 -1.8418 -1.6575 -0.8931
19565TIP3    H280187   1.534   4.731   0.549  0.8615 -3.6532 -0.9278
19566TIP3   OH280188   4.791   2.366   4.888  0.3404  0.3139  0.4151
19566TIP3    H180189   4.752   2.356   4.801  0.5923  3.0937 -0.1162
19566TIP3    H280190   4.733   2.426   4.934  0.9914  0.0297  1.6459
19567TIP3   OH280191   5.961   6.317   5.666 -0.4187 -0.3379  0.5419
19567TIP3    H180192   5.914   6.262   5.728 -0.0196 -1.2432  0.0736
19567TIP3    H280193   5.981   6.258   5.593  0.4884  0.2959  0.2610
19568TIP3   OH280194   2.726   0.956  16.088  0.0348 -0.2951 -0.2740
19568TIP3    H180195   2.808   0.959  16.138  0.5077 -0.3234 -1.0282
19568TIP3    H280196   2.686   0.873  16.114 -0.1373  0.0678  0.6706
19569TIP3   OH280197   4.521   4.223   0.916  0.2550  0.3208  0.0815
19569TIP3    H180198   4.590   4.260   0.971  1.2875  1.5345 -1.9033
19569TIP3    H280199   4.568   4.173   0.850 -0.8558  0.0391 -0.5061
19570TIP3   OH280200   0.151   2.761  16.449 -0.2019 -0.1236  0.0797
19570TIP3    H180201   0.085   2.762  16.517  0.6102  0.2196  0.8844
19570TIP3    H280202   0.139   2.676  16.405 -0.3809 -0.5849  0.9996
19571TIP3   OH280203   2.288   1.821  14.409 -0.3337  1.5185 -0.3690
19571TIP3    H180204   2.222   1.808  14.341  0.3396 -1.0871 -0.6384
19571TIP3    H280205   2.238   1.843  14.487 -1.5364 -0.1843 -0.6196
19572TIP3   OH280206   5.168   0.855   0.403 -0.5633  0.0442  0.5267
19572TIP3    H180207   5.178   0.860   0.308 -0.3985  0.9299  0.5836
19572TIP3    H280208   5.090   0.908   0.421  2.2378  4.4228  1.3478
19573TIP3   OH280209   6.647   5.110  16.302  0.0768  0.5727  1.0854
19573TIP3    H180210   6.566   5.068  16.276 -0.7362  1.2431  2.4237
19573TIP3    H280211   6.630   5.204  16.293  0.6821  0.7272  1.4441
19574TIP3   OH280212   5.011   2.735   5.816 -0.3369  0.1181  0.3348
19574TIP3    H180213   4.976   2.759   5.902  0.6263  2.3590  0.1729
19574TIP3    H280214   4.942   2.683   5.775 -0.5949 -1.4663  2.6374
19575TIP3   OH280215   5.110   4.046   3.990  0.1430 -0.2600  0.6899
19575TIP3    H180216   5.151   3.971   4.032  0.6638 -0.3903 -0.0259
19575TIP3    H280217   5.183   4.103   3.965 -0.2462  0.4825  1.2104
19576TIP3   OH280218   3.843   4.439  16.101  0.3091  0.1200  0.6441
19576TIP3    H180219   3.878   4.526  16.117  0.8521  0.1246 -0.4453
19576TIP3    H280220   3.862   4.389  16.180  2.0571  0.3573  0.4066
19577TIP3   OH280221   5.034   4.749   3.493  0.2641 -0.2870 -0.1166
19577TIP3    H180222   4.967   4.813   3.519  0.1455 -1.2817  2.3411
19577TIP3    H280223   5.066   4.780   3.408 -2.4299  0.9072 -0.7966
19578TIP3   OH280224   5.683   2.310  14.029  0.3742 -0.5942 -0.6555
19578TIP3    H180225   5.611   2.303  14.091 -0.4624 -1.4327 -1.6743
19578TIP3    H280226   5.655   2.376  13.967  0.4380 -0.9767 -1.0985
19579TIP3   OH280227   6.563   3.155   1.566  0.3876 -0.0908 -0.0244
19579TIP3    H180228   6.510   3.206   1.504 -0.5132 -2.4321 -1.3270
19579TIP3    H280229   6.652   3.162   1.533  0.5725  1.8566  0.7470
19580TIP3   OH280230   6.404   2.409   4.023 -0.1925  0.2540  0.0828
19580TIP3    H180231   6.416   2.417   4.118 -1.9596  0.2336  0.3465
19580TIP3    H280232   6.457   2.480   3.986  2.5513 -1.2489  0.8648
19581TIP3   OH280233   2.563   3.816   3.912  0.0743  0.0818 -0.0645
19581TIP3    H180234   2.566   3.740   3.855  0.5550 -0.0045  0.0676
19581TIP3    H280235   2.640   3.807   3.968  2.5270  2.7246 -2.6834
19582TIP3   OH280236   2.671   2.346   0.791  0.5149 -0.1920 -0.0755
19582TIP3    H180237   2.719   2.429   0.785 -0.0015 -0.0291 -3.1407
19582TIP3    H280238   2.581   2.372   0.811  0.5169 -0.0873 -0.2035
19583TIP3   OH280239   0.231   3.574  12.505  0.3804  0.2957 -0.5434
19583TIP3    H180240   0.281   3.521  12.443 -0.8323  0.5334 -1.7734
19583TIP3    H280241   0.165   3.515  12.540  0.9113  0.2263  0.3535
19584TIP3   OH280242   0.360   2.728   0.275  0.7386  0.0131  0.1474
19584TIP3    H180243   0.425   2.771   0.330  1.0322  0.5942 -0.6379
19584TIP3    H280244   0.358   2.780   0.195 -3.0881  2.1157  1.3695
19585TIP3   OH280245   4.349   1.734   2.032 -0.5115 -0.1693 -0.2879
19585TIP3    H180246   4.354   1.707   2.124 -0.5679  0.8559  0.0246
19585TIP3    H280247   4.291   1.810   2.032 -0.0539  0.1916 -1.0880
19586TIP3   OH280248   4.783   4.400  15.361  0.4733 -0.1757  0.1600
19586TIP3    H180249   4.721   4.330  15.341  1.1966 -0.7043 -0.2747
19586TIP3    H280250   4.815   4.429  15.276  1.4604 -0.4976  0.4066
19587TIP3   OH280251   3.305   4.967  13.544 -0.0608 -0.2080  0.2210
19587TIP3    H180252   3.319   4.888  13.597  2.6948 -1.1549 -1.6727
19587TIP3    H280253   3.211   4.971  13.530 -0.2172 -3.9776 -0.7085
19588TIP3   OH280254   1.288   6.423   1.692  0.0268 -0.9249  0.2846
19588TIP3    H180255   1.241   6.433   1.609 -0.6124  2.6076  0.9133
19588TIP3    H280256   1.380   6.438   1.669 -0.1470  0.0381  0.1978
19589TIP3   OH280257   4.523   2.434   1.000  0.2494  0.3255 -0.2295
19589TIP3    H180258   4.430   2.433   1.022  0.3023 -1.2920  0.0888
19589TIP3    H280259   4.566   2.410   1.082  0.7432 -1.5705 -0.9864
19590TIP3   OH280260   4.994   6.719  15.795 -0.0162 -0.3079  0.3049
19590TIP3    H180261   5.023   6.697  15.884 -0.2459 -0.7583  0.2701
19590TIP3    H280262   4.977   6.813  15.799  1.5021 -0.0052  0.3073
19591TIP3   OH280263   5.580   2.424  17.036  0.2695  0.2057 -0.6335
19591TIP3    H180264   5.593   2.346  17.090  2.3899  0.5333 -0.5720
19591TIP3    H280265   5.552   2.492  17.097 -1.0471 -0.3543 -0.5978
19592TIP3   OH280266   3.289   2.570  13.068  0.4932  0.4865 -0.1217
19592TIP3    H180267   3.210   2.532  13.030  2.0023 -0.4118 -2.5401
19592TIP3    H280268   3.258   2.616  13.146 -2.6205  1.3820 -1.7322
19593TIP3   OH280269   4.980   0.084  13.726 -0.0948  0.7290  0.1515
19593TIP3    H180270   4.996   0.141  13.651 -0.1309 -0.8466 -1.1096
19593TIP3    H280271   5.059   0.091  13.780 -0.4616  2.6098  0.5031
19594TIP3   OH280272   6.663   1.919  11.638  0.7551 -0.0502 -0.1211
19594TIP3    H180273   6.694   2.003  11.671 -0.6982  0.6000 -0.3496
19594TIP3    H280274   6.588   1.940  11.583 -1.0119 -1.6423  1.5465
19595TIP3   OH280275   5.790   4.083  15.992 -0.0778 -0.3442 -0.2199
19595TIP3    H180276   5.826   4.124  16.071 -0.1627  0.6114 -0.6643
19595TIP3    H280277   5.739   4.008  16.025 -1.6799  1.1181  0.8070
19596TIP3   OH280278   6.289   2.597   0.892 -0.6375 -0.5933 -0.2253
19596TIP3    H180279   6.199   2.566   0.897 -1.3104  1.0075 -1.2479
19596TIP3    H280280   6.324   2.556   0.813  0.0665 -2.3967  0.9754
19597TIP3   OH280281   2.886   0.006   1.767 -0.2501  0.8470 -0.1538
19597TIP3    H180282   2.943  -0.071   1.771 -1.4617 -0.1693 -1.4064
19597TIP3    H280283   2.862   0.022   1.858 -1.0073 -1.0915  0.0443
19598TIP3   OH280284   3.556   2.339  15.075 -0.0394  0.4191 -0.1409
19598TIP3    H180285   3.624   2.278  15.103  0.7926 -0.1193 -3.0539
19598TIP3    H280286   3.474   2.290  15.083  0.2976 -0.0888  0.2035
19599TIP3   OH280287   0.758   0.713   2.511 -0.2868 -0.1110 -0.2527
19599TIP3    H180288   0.819   0.748   2.446 -0.8300 -1.3908 -1.5185
19599TIP3    H280289   0.703   0.652   2.462 -1.6856 -0.0347  1.1353
19600TIP3   OH280290   5.464   0.090  14.182 -0.1103 -0.3380 -0.1692
19600TIP3    H180291   5.512   0.172  14.167  0.8492 -1.2168 -2.2860
19600TIP3    H280292   5.373   0.118  14.192 -0.0864  0.9536 -2.5488
19601TIP3   OH280293   0.632   3.614  15.371  0.1081  0.3342  0.1015
19601TIP3    H180294   0.627   3.520  15.350  2.7927 -0.0341  0.7415
19601TIP3    H280295   0.593   3.621  15.458  1.0617 -0.4575  0.6163
19602TIP3   OH280296   0.795   6.505  10.624  0.1984  0.0390 -0.9140
19602TIP3    H180297   0.747   6.423  10.635  0.1055  0.1069 -0.8037
19602TIP3    H280298   0.736   6.572  10.658  0.8932 -0.0210  0.5129
19603TIP3   OH280299   6.696   5.540   2.977 -0.2970 -0.3055 -0.0937
19603TIP3    H180300   6.737   5.467   2.932  0.3231  1.0108 -1.7975
19603TIP3    H280301   6.767   5.604   2.988 -0.3324 -0.6557  3.1237
19604TIP3   OH280302   0.044   2.662  15.720 -0.3504 -0.2916 -0.1601
19604TIP3    H180303  -0.000   2.704  15.647  1.0044  0.2491 -0.7001
19604TIP3    H280304  -0.027   2.632  15.778 -1.3756  2.5170  0.1598
19605TIP3   OH280305   3.119   6.743   4.782  0.2606 -0.1004 -0.0403
19605TIP3    H180306   3.029   6.747   4.816  0.0307  1.1311 -0.7074
19605TIP3    H280307   3.116   6.677   4.713 -0.3275  0.4474 -0.5554
19606TIP3   OH280308   1.978   2.498  16.487  0.1149  0.3705 -0.7988
19606TIP3    H180309   2.073   2.494  16.493  0.1320 -0.6225 -1.5495
19606TIP3    H280310   1.959   2.583  16.448  0.6792  0.6215 -0.5303
19607TIP3   OH280311   4.272   5.418   2.809  0.0715 -0.0263 -0.4874
19607TIP3    H180312   4.276   5.354   2.738  2.3212  0.2157 -0.6557
19607TIP3    H280313   4.257   5.366   2.888 -2.2283 -0.3205 -1.0645
19608TIP3   OH280314   0.644   2.532  15.540 -0.1482 -0.0481  0.3873
19608TIP3    H180315   0.696   2.551  15.462 -0.2546 -0.7007  0.1519
19608TIP3    H280316   0.558   2.569  15.522 -0.5421 -1.2573 -0.3319
19609TIP3   OH280317   4.804   2.043  13.804  0.1365  0.3258 -0.1992
19609TIP3    H180318   4.821   2.099  13.729  0.2326  0.2102 -0.2651
19609TIP3    H280319   4.723   1.998  13.782  0.3227  0.0704 -0.3652
19610TIP3   OH280320   3.437   2.992  12.527 -0.3145  0.5317  0.0604
19610TIP3    H180321   3.532   2.976  12.531 -0.3237  0.3310 -0.4241
19610TIP3    H280322   3.403   2.956  12.608 -0.0966 -0.2836 -0.2019
19611TIP3   OH280323   2.019   2.227   2.581 -0.2513 -0.1093  0.1347
19611TIP3    H180324   1.937   2.266   2.611  0.0008  0.2711  0.3571
19611TIP3    H280325   2.085   2.294   2.601  0.5852 -1.5642  2.7711
19612TIP3   OH280326   1.713   6.682   6.477 -0.0143  0.3177 -0.0694
19612TIP3    H180327   1.762   6.602   6.494  0.7504  0.6645 -0.5530
19612TIP3    H280328   1.646   6.658   6.414 -0.5748 -0.1959  0.7025
19613TIP3   OH280329   3.840   2.392   3.354  0.0403  0.4875  0.2696
19613TIP3    H180330   3.871   2.391   3.264  0.6842 -0.2812  0.4805
19613TIP3    H280331   3.902   2.335   3.401 -1.8490 -1.3876  0.6561
19614TIP3   OH280332   1.404   6.317   2.150  0.5009 -0.2865 -0.1964
19614TIP3    H180333   1.349   6.393   2.130 -0.3177 -1.0709 -1.0079
19614TIP3    H280334   1.389   6.256   2.077  3.1974 -0.1508 -0.9661
19615TIP3   OH280335   6.497   6.342  11.260  0.2533  0.3950  0.8319
19615TIP3    H180336   6.580   6.376  11.294 -0.5563  0.0565  3.4124
19615TIP3    H280337   6.439   6.342  11.336 -1.4199 -1.5772 -0.3433
19616TIP3   OH280338   5.853   0.774   3.673  0.1092 -0.5950 -0.1950
19616TIP3    H180339   5.916   0.845   3.660  1.2611 -1.6428 -0.5618
19616TIP3    H280340   5.792   0.807   3.738  0.9336  0.5368  0.0225
19617TIP3   OH280341   2.621   4.085   4.578 -0.7398 -0.3319 -0.2271
19617TIP3    H180342   2.600   4.061   4.668 -0.4199 -0.0930 -0.0880
19617TIP3    H280343   2.716   4.094   4.576 -0.8399  1.0490 -0.2284
19618TIP3   OH280344   0.945   3.389  16.590 -0.2311  0.2089  0.6355
19618TIP3    H180345   0.862   3.437  16.583  0.1713  0.7991 -0.2577
19618TIP3    H280346   0.965   3.390  16.684 -0.1074  2.0436  0.6259
19619TIP3   OH280347   6.504   6.526   2.255  0.0358  0.1055 -0.2996
19619TIP3    H180348   6.434   6.560   2.198  1.1283  1.4899 -0.8615
19619TIP3    H280349   6.459   6.502   2.336 -1.5540 -1.8348 -1.6513
19620TIP3   OH280350   6.458   4.758  13.026  0.9504  0.3169  0.5853
19620TIP3    H180351   6.479   4.692  13.092  0.6612  0.9936  1.3721
19620TIP3    H280352   6.486   4.841  13.065  2.1911  0.5813 -0.7778
19621TIP3   OH280353   1.827   5.242   0.311  0.3102  0.2308 -0.1307
19621TIP3    H180354   1.786   5.316   0.357 -0.3248  1.4074 -2.4204
19621TIP3    H280355   1.754   5.183   0.290  0.7532 -0.8657  1.2861
19622TIP3   OH280356   4.454   3.856  13.930  0.1326  0.0950 -0.0200
19622TIP3    H180357   4.537   3.809  13.922 -0.8177 -1.5338 -0.9812
19622TIP3    H280358   4.455   3.918  13.857  0.3762 -0.1546 -0.2330
19623TIP3   OH280359   3.439   3.977  13.846 -0.1983 -0.0595 -0.3204
19623TIP3    H180360   3.469   4.046  13.788 -0.0489 -0.8623 -1.2247
19623TIP3    H280361   3.379   3.924  13.793 -0.2771 -0.6474  0.3329
19624TIP3   OH280362   5.856   4.369   3.236 -0.8605 -0.1412  0.6739
19624TIP3    H180363   5.827   4.387   3.325  1.1672 -2.1573  1.8725
19624TIP3    H280364   5.781   4.327   3.194 -1.8006  0.7159  1.4638
19625TIP3   OH280365   5.229   1.137   0.947  0.1616  0.0567 -0.1313
19625TIP3    H180366   5.299   1.099   0.894  0.5373  1.0859 -0.4082
19625TIP3    H280367   5.206   1.218   0.901 -2.5541 -1.1710 -1.1330
19626TIP3   OH280368   2.586   5.821  13.123 -0.1219  0.1980 -0.1310
19626TIP3    H180369   2.601   5.912  13.097  1.8937 -0.4905 -1.6203
19626TIP3    H280370   2.653   5.805  13.190  0.9839 -0.7712 -1.4263
19627TIP3   OH280371   2.665   5.374  16.259  0.5569 -0.1648 -0.0656
19627TIP3    H180372   2.663   5.296  16.314 -0.4106 -0.0824  0.0304
19627TIP3    H280373   2.701   5.443  16.315 -0.7206 -0.0018  0.5814
19628TIP3   OH280374   3.403   2.028  10.881 -0.1519 -0.2409 -0.1032
19628TIP3    H180375   3.343   1.955  10.894 -1.1721  0.5272 -0.3212
19628TIP3    H280376   3.470   2.016  10.948 -0.4263 -1.2429  0.0097
19629TIP3   OH280377   0.389   5.724  15.540 -0.0819 -0.5422  0.0653
19629TIP3    H180378   0.442   5.783  15.593 -0.1444 -2.0313  1.8703
19629TIP3    H280379   0.441   5.644  15.533  0.4369 -0.0555 -3.1504
19630TIP3   OH280380   0.506   4.322   0.911  0.2978 -0.7432  0.6333
19630TIP3    H180381   0.539   4.378   0.841  0.1430 -1.7476 -0.2706
19630TIP3    H280382   0.411   4.334   0.908  0.3746  0.3009  1.6390
19631TIP3   OH280383   4.610   1.079   4.812  0.4279 -0.3173  0.1689
19631TIP3    H180384   4.685   1.097   4.869  1.7298  0.2318 -1.6143
19631TIP3    H280385   4.591   1.163   4.770 -0.2988 -0.7583 -0.4067
19632TIP3   OH280386   4.852   1.220  13.647 -0.2528 -0.2670  0.0939
19632TIP3    H180387   4.929   1.266  13.681 -0.0456  0.7931 -1.6704
19632TIP3    H280388   4.789   1.289  13.628 -0.7380 -0.8998 -0.6733
19633TIP3   OH280389   6.742   0.053  11.596 -0.6799 -0.4738 -0.0814
19633TIP3    H180390   6.724   0.027  11.686  0.8005 -1.0581  0.0705
19633TIP3    H280391   6.832   0.086  11.598 -1.1345  0.9220 -1.0604
19634TIP3   OH280392   2.309   5.368   5.287  0.3548 -0.0939 -0.0121
19634TIP3    H180393   2.313   5.371   5.383 -1.9252  0.4376  0.1334
19634TIP3    H280394   2.376   5.430   5.259 -1.5377  2.8966  1.4271
19635TIP3   OH280395   0.376   1.269  13.040 -0.5337  0.0007 -0.0285
19635TIP3    H180396   0.460   1.314  13.049  0.3098 -0.9830 -2.2312
19635TIP3    H280397   0.310   1.339  13.046  0.5057  0.9733  0.3475
19636TIP3   OH280398   4.822   0.976  11.341 -0.1763 -0.3030  0.0383
19636TIP3    H180399   4.787   1.006  11.425 -1.5430 -0.6733 -0.3764
19636TIP3    H280400   4.829   1.055  11.288  0.2254 -0.1385  0.3346
19637TIP3   OH280401   0.212   3.602   5.242 -0.3194  0.4163  0.4458
19637TIP3    H180402   0.231   3.524   5.294 -0.7539  1.9725  3.1378
19637TIP3    H280403   0.130   3.636   5.278  0.0334  2.3064 -0.3872
19638TIP3   OH280404   3.097   1.808  11.419 -0.5971 -0.3003  0.0364
19638TIP3    H180405   3.074   1.878  11.358  0.4188 -1.2421 -1.4781
19638TIP3    H280406   3.040   1.735  11.394 -2.8500  0.3756  2.6559
19639TIP3   OH280407   2.620   0.030   3.093  0.0066 -0.5979  0.0541
19639TIP3    H180408   2.681   0.007   3.163  0.1977  0.5722  0.2832
19639TIP3    H280409   2.667   0.010   3.012  0.5292 -0.1167  0.2376
19640TIP3   OH280410   4.585   1.124  16.944  0.3067 -0.6720 -0.9200
19640TIP3    H180411   4.659   1.119  16.883  0.9783 -0.2913 -0.1435
19640TIP3    H280412   4.605   1.058  17.011  0.6453  0.3807  0.0414
19641TIP3   OH280413   4.423   2.681   3.146  0.4014 -0.0921  0.1340
19641TIP3    H180414   4.484   2.680   3.073  1.3564 -0.2518  0.9174
19641TIP3    H280415   4.382   2.594   3.144 -0.5464  0.3584 -0.9863
19642TIP3   OH280416   0.105   6.305   0.132 -0.0394 -0.0022 -0.1579
19642TIP3    H180417   0.011   6.315   0.121  0.0965 -0.4520 -2.1890
19642TIP3    H280418   0.131   6.244   0.063  1.8976  1.0122 -0.4106
19643TIP3   OH280419   3.961   2.070  14.950 -0.0779  0.2688  0.0477
19643TIP3    H180420   3.952   2.155  14.907 -0.4171  1.0471  1.5741
19643TIP3    H280421   3.877   2.026  14.936 -0.3808  0.7423  0.3676
19644TIP3   OH280422   5.060   5.422   3.744 -0.5911  0.1949 -0.4403
19644TIP3    H180423   5.146   5.388   3.720  0.6999  3.5574 -1.2336
19644TIP3    H280424   5.004   5.404   3.669  0.1513  0.1931 -0.9987
19645TIP3   OH280425   1.089   6.113  12.886  0.1698  0.1821 -0.1347
19645TIP3    H180426   1.155   6.182  12.882  1.9903 -1.5217 -2.2235
19645TIP3    H280427   1.048   6.115  12.799 -0.7430 -0.4721  0.2654
19646TIP3   OH280428   0.842   5.104  15.962  0.2817  0.0429 -0.0326
19646TIP3    H180429   0.777   5.136  16.025  0.9791  0.8349  0.2974
19646TIP3    H280430   0.886   5.033  16.008  0.9079  0.7347  0.4562
19647TIP3   OH280431   2.265   1.509   0.679 -0.3781 -0.2051 -0.4688
19647TIP3    H180432   2.171   1.527   0.677 -0.5249 -0.9677 -0.8881
19647TIP3    H280433   2.306   1.596   0.679 -1.0842  0.1407  0.2796
19648TIP3   OH280434   0.564   1.359  14.454 -0.0215 -0.6958  0.0757
19648TIP3    H180435   0.579   1.278  14.404  0.5794 -0.2974 -0.4064
19648TIP3    H280436   0.474   1.351  14.486 -0.0697 -1.4200 -0.2154
19649TIP3   OH280437   4.939   3.157   3.032  0.4551  0.2623  0.0544
19649TIP3    H180438   4.861   3.212   3.048  0.2978 -0.5535  2.6601
19649TIP3    H280439   4.905   3.068   3.026  1.1460 -0.1191  1.3632
19650TIP3   OH280440   2.296   6.200  16.983  0.3976  0.0887  0.2345
19650TIP3    H180441   2.306   6.235  17.072  1.6728  0.1004  0.0977
19650TIP3    H280442   2.301   6.277  16.926 -1.6815  0.2466  0.1890
19651TIP3   OH280443   6.648   2.705  16.211 -0.4878  0.0036  0.0608
19651TIP3    H180444   6.736   2.695  16.175  0.5208  1.6909  1.8991
19651TIP3    H280445   6.609   2.775  16.159 -0.1353  0.4045  0.3418
19652TIP3   OH280446   2.360   4.550  12.735 -0.1599 -0.3882  0.5529
19652TIP3    H180447   2.334   4.590  12.818 -1.3637 -0.0340  0.0123
19652TIP3    H280448   2.317   4.602  12.668  0.2160 -1.1188 -0.2725
19653TIP3   OH280449   4.306   4.610  14.611  0.1749 -0.9616 -0.2048
19653TIP3    H180450   4.363   4.550  14.562 -1.2250 -2.4267 -0.1218
19653TIP3    H280451   4.231   4.556  14.636 -1.5262  1.0273 -0.7954
19654TIP3   OH280452   2.251   4.868   6.020  0.3091  0.0039 -0.3350
19654TIP3    H180453   2.239   4.856   5.925 -2.0843 -0.2791 -0.0362
19654TIP3    H280454   2.346   4.878   6.030  0.5555  1.2300 -2.8968
19655TIP3   OH280455   2.569   2.152   2.537 -0.2859  0.8815 -0.0327
19655TIP3    H180456   2.617   2.124   2.459 -1.1543  3.8681 -1.8176
19655TIP3    H280457   2.629   2.211   2.583 -0.9763  1.8903 -0.3900
19656TIP3   OH280458   5.783   5.627   0.440  0.3887 -0.7646  0.7775
19656TIP3    H180459   5.720   5.625   0.368  2.9908 -2.0552 -1.6569
19656TIP3    H280460   5.821   5.714   0.437  0.9034 -1.0076  0.1907
19657TIP3   OH280461   4.699   1.293   5.026  0.2593 -0.2935  0.4400
19657TIP3    H180462   4.718   1.386   5.040 -0.0820 -0.3752  1.6228
19657TIP3    H280463   4.603   1.288   5.027  0.2731 -0.6171  0.1042
19658TIP3   OH280464   5.271   1.470   3.047  0.0130 -0.1262 -0.4775
19658TIP3    H180465   5.181   1.436   3.052  0.5679 -1.6725 -0.2416
19658TIP3    H280466   5.307   1.455   3.134  0.7967 -0.4288 -0.8457
19659TIP3   OH280467   1.414   0.095  15.177 -0.2037  0.3460  0.2569
19659TIP3    H180468   1.434   0.015  15.128 -1.7468  1.2115 -1.9552
19659TIP3    H280469   1.475   0.160  15.142  1.6468  0.0334  2.6617
19660TIP3   OH280470   5.504   6.543  11.494  0.4627 -1.1538 -0.3066
19660TIP3    H180471   5.445   6.481  11.452  0.6518 -1.6716  0.1785
19660TIP3    H280472   5.591   6.504  11.483  0.9724  0.3692 -2.4430
19661TIP3   OH280473   2.664   0.952   3.062  0.6035  0.3958 -0.7707
19661TIP3    H180474   2.729   0.983   3.000  2.7517  1.9088  2.0074
19661TIP3    H280475   2.582   0.950   3.012  2.0803  1.9563 -3.4785
19662TIP3   OH280476   3.456   5.167  16.606 -0.2685  0.3769  0.0048
19662TIP3    H180477   3.369   5.140  16.577 -0.0178  0.3002 -0.6946
19662TIP3    H280478   3.515   5.138  16.536  0.3838 -0.0320  0.7112
19663TIP3   OH280479   4.372   0.135  15.876 -0.2081 -0.0501 -0.1047
19663TIP3    H180480   4.388   0.179  15.959  1.3763  0.0928 -0.4544
19663TIP3    H280481   4.376   0.042  15.897 -0.3988 -0.0155  0.0864
19664TIP3   OH280482   5.426   1.916  15.185 -0.0408  0.3136 -0.6767
19664TIP3    H180483   5.471   1.976  15.245 -1.7395  0.9709  0.0151
19664TIP3    H280484   5.354   1.880  15.237 -0.3798 -0.6408 -1.7579
19665TIP3   OH280485   1.395   6.463   4.135  0.4000  0.5246 -0.2794
19665TIP3    H180486   1.364   6.464   4.045 -0.0237  0.6007 -0.1344
19665TIP3    H280487   1.366   6.546   4.172 -0.6920 -0.1217  0.3440
19666TIP3   OH280488   5.069   1.395  13.744  0.1259  0.4568  0.1154
19666TIP3    H180489   5.149   1.377  13.794 -1.1981 -0.3188  2.0590
19666TIP3    H280490   5.099   1.404  13.654  2.5377  1.2036  0.9024
19667TIP3   OH280491   3.752   6.761  12.132 -0.3101 -0.0820  0.4345
19667TIP3    H180492   3.762   6.776  12.038 -1.2441  1.4868  0.5471
19667TIP3    H280493   3.741   6.666  12.141  3.1168 -0.7336 -0.6745
19668TIP3   OH280494   1.486   5.428   2.087  0.6522  0.3288  0.8895
19668TIP3    H180495   1.428   5.504   2.081  1.8993  1.2395 -0.0863
19668TIP3    H280496   1.533   5.427   2.004  2.3879 -0.0816  1.8193
19669TIP3   OH280497   0.277   2.834   6.253 -0.8687 -0.7906 -0.0178
19669TIP3    H180498   0.226   2.870   6.180 -0.6053  0.0004  0.1756
19669TIP3    H280499   0.358   2.804   6.212 -0.4398  0.2597  0.0301
19670TIP3   OH280500   6.180   1.309  13.923 -0.1410  0.1323  0.6933
19670TIP3    H180501   6.247   1.378  13.919 -0.0214  0.1389  2.1698
19670TIP3    H280502   6.157   1.304  14.016 -1.1870 -0.8443  0.4011
19671TIP3   OH280503   1.808   2.885   2.667  0.1285  0.0129 -0.3273
19671TIP3    H180504   1.883   2.925   2.711  1.8636  0.0539 -3.1033
19671TIP3    H280505   1.739   2.952   2.671  0.6653  0.5316  1.0192
19672TIP3   OH280506   1.713   1.315  16.752  0.1801  0.3000  0.2055
19672TIP3    H180507   1.715   1.362  16.835 -0.5572 -0.3745  0.6239
19672TIP3    H280508   1.719   1.384  16.685  0.2436  0.8921  0.8091
19673TIP3   OH280509   0.471   6.554   3.270  0.3062  0.3989  0.5383
19673TIP3    H180510   0.445   6.632   3.320  1.3891 -0.0239  1.8319
19673TIP3    H280511   0.402   6.543   3.204 -0.2375  2.0238  0.7971
19674TIP3   OH280512   5.312   1.793   2.456 -0.4794 -0.0770 -0.1236
19674TIP3    H180513   5.338   1.763   2.543  0.9935 -1.3257 -0.9482
19674TIP3    H280514   5.351   1.730   2.396 -1.1965  0.9313 -1.7236
19675TIP3   OH280515   2.630   1.901   6.097  0.4966 -0.0469 -0.0234
19675TIP3    H180516   2.578   1.932   6.023  0.6330 -0.1107 -0.1450
19675TIP3    H280517   2.670   1.980   6.134 -1.9905  0.4605  1.8754
19676TIP3   OH280518   6.407   0.631   2.145 -0.1098  0.3126  0.0456
19676TIP3    H180519   6.450   0.601   2.064  0.1139  0.4897  0.0984
19676TIP3    H280520   6.351   0.703   2.117  0.8211  1.1203  0.2196
19677TIP3   OH280521   5.993   2.829   3.492  0.7553 -0.0531 -1.2554
19677TIP3    H180522   5.917   2.880   3.520  0.1118 -1.3724 -0.5093
19677TIP3    H280523   5.995   2.755   3.552  0.8313 -1.6350 -3.1281
19678TIP3   OH280524   4.924   0.369   0.252 -0.7655 -0.3330  0.2484
19678TIP3    H180525   4.971   0.441   0.294 -0.7808 -0.7405  0.9760
19678TIP3    H280526   4.860   0.340   0.318 -1.2695 -0.5241 -0.3135
19679TIP3   OH280527   1.801   5.782  12.156  0.5074 -0.4888  0.1701
19679TIP3    H180528   1.822   5.787  12.249  0.7269 -0.3919  0.1155
19679TIP3    H280529   1.791   5.688  12.138 -1.2901 -0.4363  0.6783
19680TIP3   OH280530   6.076   4.654   3.325  0.2387  0.1833 -0.3865
19680TIP3    H180531   6.065   4.560   3.310  0.1701  0.5114 -2.9435
19680TIP3    H280532   6.152   4.661   3.383  0.5782 -1.4305 -0.5993
19681TIP3   OH280533   3.618   4.837  12.976  0.2674 -0.2406 -0.5827
19681TIP3    H180534   3.713   4.842  12.982  0.1898  0.8048 -0.0616
19681TIP3    H280535   3.602   4.779  12.901  1.3073 -0.1882 -0.8602
19682TIP3   OH280536   0.132   1.044   3.172  0.4701 -0.1647 -0.2517
19682TIP3    H180537   0.130   1.072   3.264  0.6535  0.6332 -0.4856
19682TIP3    H280538   0.066   1.098   3.129 -0.4498 -1.3488 -0.3829
19683TIP3   OH280539   4.321   1.570  13.551  0.0263 -0.4030  0.0005
19683TIP3    H180540   4.337   1.477  13.566 -1.3085 -0.7970 -0.8141
19683TIP3    H280541   4.381   1.593  13.480  0.7561 -0.4895  0.5782
19684TIP3   OH280542   5.706   4.681  11.659 -0.2258  0.5079 -0.2960
19684TIP3    H180543   5.627   4.636  11.688  1.5080 -2.2373  0.6038
19684TIP3    H280544   5.741   4.722  11.738  0.4812 -0.4100 -0.1069
19685TIP3   OH280545   5.217   0.334   0.961 -0.3495  0.3387  0.0709
19685TIP3    H180546   5.144   0.370   1.012 -0.4755  0.8218 -0.4476
19685TIP3    H280547   5.211   0.377   0.876 -0.6682 -1.1123 -0.6704
19686TIP3   OH280548   5.894   4.346   0.082 -0.2056 -0.4066  0.3598
19686TIP3    H180549   5.879   4.273   0.142 -0.6586 -0.6500 -0.0392
19686TIP3    H280550   5.809   4.389   0.076  0.3425  0.9388  1.5875
19687TIP3   OH280551   3.165   5.598   1.443 -0.0665 -0.1241 -0.1493
19687TIP3    H180552   3.225   5.639   1.505 -0.3617  1.1417 -0.6511
19687TIP3    H280553   3.222   5.558   1.377  0.2377  0.4375 -0.2333
19688TIP3   OH280554   6.194   2.079  16.192 -0.4466 -0.3835  0.3016
19688TIP3    H180555   6.115   2.133  16.188 -0.2895 -0.1047  0.9080
19688TIP3    H280556   6.254   2.128  16.248  0.1677 -0.5843 -0.1744
19689TIP3   OH280557   0.224   1.801  13.424  0.1244 -0.3551 -0.3241
19689TIP3    H180558   0.219   1.798  13.520  3.2065 -0.0434 -0.0777
19689TIP3    H280559   0.158   1.866  13.400 -2.2764 -1.9766  1.3264
19690TIP3   OH280560   6.639   2.338  14.965  0.0605 -0.8898 -0.2720
19690TIP3    H180561   6.611   2.429  14.949 -2.8100 -1.8118 -1.1211
19690TIP3    H280562   6.717   2.346  15.019 -1.7000  2.0675  2.1226
19691TIP3   OH280563   0.914   3.865  11.637  0.1858 -0.0084 -0.0276
19691TIP3    H180564   0.834   3.852  11.688  0.6692 -0.4454  0.6278
19691TIP3    H280565   0.965   3.785  11.651  0.7293  0.2584 -0.4569
19692TIP3   OH280566   4.582   5.328  12.084  0.4727 -0.3754 -0.3650
19692TIP3    H180567   4.552   5.252  12.035  1.1332  0.0605 -1.4807
19692TIP3    H280568   4.568   5.305  12.176 -1.3942 -0.9662 -0.7499
19693TIP3   OH280569   6.518   1.449   5.504  0.0427  0.2368 -0.1205
19693TIP3    H180570   6.559   1.448   5.418 -0.3331 -0.7993 -0.3006
19693TIP3    H280571   6.436   1.401   5.493  0.0297  0.0122  0.8282
19694TIP3   OH280572   3.565   3.481  16.872 -0.0332  0.0520  0.4447
19694TIP3    H180573   3.496   3.543  16.898 -0.6547 -0.3103 -0.3003
19694TIP3    H280574   3.641   3.507  16.924 -1.1042 -0.3851  2.2948
19695TIP3   OH280575   4.471   0.738   5.885  0.2863  0.0304  0.1656
19695TIP3    H180576   4.510   0.701   5.964 -1.9175 -1.1672  0.7716
19695TIP3    H280577   4.492   0.675   5.816  1.4261  0.6168 -0.0499
19696TIP3   OH280578   5.388   0.556   3.202  0.7036 -0.2902 -0.1906
19696TIP3    H180579   5.358   0.644   3.227  0.1424  0.3234 -2.7921
19696TIP3    H280580   5.455   0.572   3.135  3.2283 -1.8116  1.7919
19697TIP3   OH280581   6.245   5.032  15.958 -0.0670  0.7538  0.1978
19697TIP3    H180582   6.207   4.974  15.892  0.9433 -0.1933  0.4206
19697TIP3    H280583   6.222   4.991  16.042  1.5302  0.0575  0.3366
19698TIP3   OH280584   2.020   3.698  15.476  0.4009  0.5939 -0.1811
19698TIP3    H180585   2.031   3.611  15.513  0.2609  0.5487 -0.2414
19698TIP3    H280586   1.969   3.683  15.396  0.9259  0.6605 -0.5293
19699TIP3   OH280587   3.477   4.210  12.387  0.0456  0.0426  0.1033
19699TIP3    H180588   3.443   4.300  12.387 -2.1812 -0.6714  3.1551
19699TIP3    H280589   3.562   4.217  12.431 -0.0600  0.6293  0.2284
19700TIP3   OH280590   0.407   3.793  12.811 -0.3013 -0.0854  0.2174
19700TIP3    H180591   0.343   3.860  12.788  1.2581  0.6492 -2.3633
19700TIP3    H280592   0.359   3.733  12.869 -2.3662  2.0631  0.8767
19701TIP3   OH280593   2.397   5.695  11.313 -0.5505 -0.2504  0.3650
19701TIP3    H180594   2.482   5.687  11.271  0.8647  0.7579  2.8463
19701TIP3    H280595   2.384   5.790  11.321 -2.1874 -0.3658 -0.4009
19702TIP3   OH280596   0.425   6.369  14.570 -0.7208  0.5345 -0.1898
19702TIP3    H180597   0.440   6.463  14.574  0.6475  0.3397 -0.1124
19702TIP3    H280598   0.359   6.358  14.502  1.3810  1.3499 -2.5359
19703TIP3   OH280599   0.185   3.965   5.488  0.0112  0.5779 -0.2821
19703TIP3    H180600   0.164   3.876   5.459  1.3863 -0.0413  0.5233
19703TIP3    H280601   0.279   3.963   5.503  0.4520  2.8038 -2.3414
19704TIP3   OH280602   1.643   3.240  15.290 -0.2683  0.3451  0.6458
19704TIP3    H180603   1.732   3.207  15.305 -0.1423  0.7090  0.7202
19704TIP3    H280604   1.637   3.250  15.195 -0.1441  0.5479  0.6583
19705TIP3   OH280605   3.666   6.590   3.101 -0.9041  0.0985  0.2919
19705TIP3    H180606   3.658   6.673   3.147 -0.4227 -0.1848  0.9144
19705TIP3    H280607   3.670   6.525   3.171 -0.5071 -0.3796 -0.1698
19706TIP3   OH280608   3.059   1.360   4.023  0.4171 -0.4798 -0.3796
19706TIP3    H180609   3.026   1.365   4.112 -1.5173  0.5812 -1.1081
19706TIP3    H280610   2.982   1.341   3.969  1.5501 -1.1993 -1.8314
19707TIP3   OH280611   0.431   4.373   4.469  0.1782 -0.1461  0.7776
19707TIP3    H180612   0.510   4.425   4.456 -0.1102  0.4962  1.5160
19707TIP3    H280613   0.382   4.420   4.537 -0.8257 -0.5507  0.3555
19708TIP3   OH280614   5.148   4.224   6.226  0.8184  0.2481  0.2325
19708TIP3    H180615   5.164   4.154   6.163 -0.1226  0.4700 -0.2660
19708TIP3    H280616   5.166   4.185   6.312 -0.1966 -0.7452 -0.0032
19709TIP3   OH280617   2.979   4.719   3.506  0.0194  0.3132  0.2426
19709TIP3    H180618   3.039   4.786   3.538  0.3216  0.8889 -1.4381
19709TIP3    H280619   3.031   4.639   3.503 -0.5233 -0.2423  2.9075
19710TIP3   OH280620   0.253   6.657   5.330 -0.0733  0.2935  0.0288
19710TIP3    H180621   0.281   6.567   5.315 -0.3972 -0.1114  1.6438
19710TIP3    H280622   0.276   6.704   5.249  1.9079 -0.7947 -0.0913
19711TIP3   OH280623   6.373   5.072  15.638 -0.1112 -0.0300 -0.1898
19711TIP3    H180624   6.431   5.044  15.709 -0.3398  0.1819  0.0824
19711TIP3    H280625   6.432   5.093  15.566  0.2639  1.3840  0.4799
19712TIP3   OH280626   3.763   2.239   2.098 -0.0584  0.1540  0.3177
19712TIP3    H180627   3.830   2.299   2.065 -0.4901  0.4769  0.0108
19712TIP3    H280628   3.740   2.274   2.184  0.3560 -0.1155  0.5436
19713TIP3   OH280629   2.623   0.415   5.218  0.0490 -0.5717 -0.2438
19713TIP3    H180630   2.637   0.347   5.152 -0.1915  1.1701 -2.2091
19713TIP3    H280631   2.531   0.405   5.243 -0.0554 -0.8252 -0.7130
19714TIP3   OH280632   6.074   4.509   5.444  0.1684  0.0146 -0.4505
19714TIP3    H180633   6.167   4.529   5.436  0.1372 -0.0508 -1.0092
19714TIP3    H280634   6.030   4.575   5.390  0.0927 -1.7277 -2.6545
19715TIP3   OH280635   0.395   5.790  10.371 -0.2529 -0.0379  0.1482
19715TIP3    H180636   0.471   5.849  10.372 -0.2531 -0.0411  0.8327
19715TIP3    H280637   0.319   5.848  10.366 -0.3496  0.1632  2.6678
19716TIP3   OH280638   0.237   1.694   0.167 -0.5934 -0.0693  0.0980
19716TIP3    H180639   0.173   1.761   0.193 -1.3139 -1.4137  2.0711
19716TIP3    H280640   0.197   1.612   0.196  0.0128 -1.4714 -2.7002
19717TIP3   OH280641   4.539   6.056   3.427  0.0399  0.0327 -0.3339
19717TIP3    H180642   4.538   6.115   3.502  0.3328 -0.1066 -0.2201
19717TIP3    H280643   4.621   6.008   3.435 -0.5229 -0.9021 -0.0331
19718TIP3   OH280644   4.754   2.667   2.641  0.1454 -0.2167 -0.6083
19718TIP3    H180645   4.690   2.737   2.640  0.9451  0.5831 -2.5553
19718TIP3    H280646   4.839   2.711   2.644  0.6503 -1.1052 -1.0722
19719TIP3   OH280647   4.987   4.471  16.578 -0.0512 -0.0890 -0.4500
19719TIP3    H180648   5.082   4.458  16.577  0.0085  0.1050  0.7057
19719TIP3    H280649   4.958   4.427  16.658 -1.3368 -2.4968 -2.1076
19720TIP3   OH280650   2.562   0.204   4.370  0.4269  0.4977 -0.7945
19720TIP3    H180651   2.532   0.280   4.421  2.1142  0.4624  0.3237
19720TIP3    H280652   2.605   0.242   4.293  0.2358  0.6265 -0.8393
19721TIP3   OH280653   6.013   4.261  15.786  0.1165 -0.2413  0.4187
19721TIP3    H180654   6.081   4.204  15.823  0.3218 -0.8290 -0.8041
19721TIP3    H280655   5.934   4.209  15.787  0.7203 -1.4786 -2.6546
19722TIP3   OH280656   3.224   6.667  14.859 -0.6950 -0.3898 -0.4115
19722TIP3    H180657   3.191   6.577  14.864 -1.4777 -0.1180 -0.6377
19722TIP3    H280658   3.279   6.668  14.781  1.8251 -1.4674  1.2094
19723TIP3   OH280659   1.817   5.146  12.172 -0.3747 -0.0299  0.0053
19723TIP3    H180660   1.897   5.198  12.158 -1.1409  1.1930  0.0064
19723TIP3    H280661   1.757   5.206  12.216 -0.3998 -1.7064  2.4511
19724TIP3   OH280662   0.228   0.880   0.175  0.1212 -0.2152  0.1958
19724TIP3    H180663   0.201   0.918   0.259  0.0350 -1.3351  0.6997
19724TIP3    H280664   0.220   0.952   0.112  1.7956  1.1299  1.4177
19725TIP3   OH280665   1.337   1.080   0.780 -0.2284  0.5591  0.3075
19725TIP3    H180666   1.378   0.996   0.797  0.0979  0.6316 -0.1047
19725TIP3    H280667   1.397   1.144   0.817  0.0688  0.6688 -0.3481
19726TIP3   OH280668   4.727   3.802  16.042 -0.2551  0.0785 -0.3215
19726TIP3    H180669   4.678   3.726  16.011 -3.5578  1.2014  1.6566
19726TIP3    H280670   4.713   3.803  16.137  2.6159  1.2912  0.2157
19727TIP3   OH280671   2.911   6.201  16.121  0.2529 -0.3218  0.0036
19727TIP3    H180672   2.950   6.235  16.041  2.3942 -1.8106  0.3615
19727TIP3    H280673   2.981   6.205  16.186 -1.0062 -0.5174  1.4354
19728TIP3   OH280674   2.290   0.636   5.714 -0.4485  0.1628  0.0395
19728TIP3    H180675   2.238   0.624   5.634  0.5789  0.0196 -0.6204
19728TIP3    H280676   2.320   0.547   5.735  2.6376  0.6491 -1.7475
19729TIP3   OH280677   6.543   0.438  16.132  0.1424 -0.1051  0.4732
19729TIP3    H180678   6.525   0.344  16.122  1.5272 -0.4329  0.9059
19729TIP3    H280679   6.518   0.476  16.047  1.2805 -1.1505 -0.3629
19730TIP3   OH280680   0.773   5.237   5.431 -0.1089  0.0049  0.0199
19730TIP3    H180681   0.746   5.242   5.523  1.1838 -2.2132  0.6126
19730TIP3    H280682   0.692   5.217   5.384 -0.5789 -0.1087  0.8560
19731TIP3   OH280683   6.174   1.203   2.508 -0.0032  0.1247  0.1655
19731TIP3    H180684   6.193   1.110   2.493  0.6431  0.6500 -2.6927
19731TIP3    H280685   6.259   1.243   2.523 -0.0112  0.6305 -1.0741
19732TIP3   OH280686   0.754   2.203  12.460 -0.1412 -0.5317 -0.3950
19732TIP3    H180687   0.818   2.239  12.399 -0.7183  0.8283 -0.2279
19732TIP3    H280688   0.801   2.195  12.543 -0.5658  2.0753  0.1855
19733TIP3   OH280689   4.166   4.752   5.026  0.2477 -0.3684 -0.4093
19733TIP3    H180690   4.214   4.800   4.959 -1.9887  1.0748 -1.1112
19733TIP3    H280691   4.182   4.801   5.107  0.4331 -0.2606 -0.5101
19734TIP3   OH280692   3.258   0.388   1.138  0.2554  0.2639 -0.0632
19734TIP3    H180693   3.345   0.426   1.151  0.8573 -0.8057 -0.8186
19734TIP3    H280694   3.215   0.448   1.078  1.9972 -1.2230 -3.0796
19735TIP3   OH280695   5.764   4.039  14.729 -0.2809 -0.4892 -0.1194
19735TIP3    H180696   5.755   4.090  14.810 -2.6344 -0.3643 -0.3933
19735TIP3    H280697   5.791   3.953  14.759 -2.3396 -0.8206  1.0064
19736TIP3   OH280698   1.727   3.250   3.271 -0.6046 -0.4407  0.0188
19736TIP3    H180699   1.705   3.159   3.290 -0.4835 -0.3196  0.7692
19736TIP3    H280700   1.656   3.301   3.309 -1.3367 -0.2661 -1.5072
19737TIP3   OH280701   1.001   6.155  14.667  0.8397  0.0327  0.7253
19737TIP3    H180702   0.922   6.149  14.722 -2.2121 -1.4842 -3.3217
19737TIP3    H280703   1.023   6.064  14.647 -2.2086  0.1269 -5.2231
19738TIP3   OH280704   4.160   2.001   1.610 -0.3390 -0.6018 -0.0825
19738TIP3    H180705   4.223   2.046   1.666 -1.1661 -0.8135  1.0502
19738TIP3    H280706   4.159   2.053   1.529  0.7279 -0.1805  0.1561
19739TIP3   OH280707   5.192   5.025  12.659  0.1513  0.1505  0.0391
19739TIP3    H180708   5.109   5.023  12.708  0.4916  0.3551  0.6290
19739TIP3    H280709   5.194   5.112  12.619  0.4574  0.4527  0.6941
19740TIP3   OH280710   4.508   5.977  13.264 -0.0475 -0.3775 -0.6581
19740TIP3    H180711   4.514   5.941  13.352 -0.9393  0.3967 -0.2728
19740TIP3    H280712   4.415   5.973  13.242  0.1395 -0.3787 -1.4907
19741TIP3   OH280713   0.920   1.246   5.495  0.4009  0.3356 -0.7192
19741TIP3    H180714   0.892   1.194   5.419  1.1865  1.6714 -1.9857
19741TIP3    H280715   0.884   1.200   5.570 -2.9038  0.4844 -2.0395
19742TIP3   OH280716   5.762   0.891   5.452 -0.4108 -0.6979 -0.3432
19742TIP3    H180717   5.703   0.940   5.509  0.2525 -1.6165  1.1809
19742TIP3    H280718   5.834   0.864   5.509  1.5272  0.3842 -2.1370
19743TIP3   OH280719   1.278   5.124  15.163  0.5509  0.4533  0.5986
19743TIP3    H180720   1.185   5.108  15.151  0.4762  0.8732  0.5834
19743TIP3    H280721   1.311   5.148  15.076  1.3792 -2.9079 -0.1504
19744TIP3   OH280722   2.717   5.834   0.200 -0.0709  0.2825 -0.4590
19744TIP3    H180723   2.800   5.852   0.156  2.0493 -0.7087  2.8389
19744TIP3    H280724   2.725   5.745   0.232 -1.0587  1.1628  2.5911
19745TIP3   OH280725   0.652   1.248  15.385 -0.2673  0.3544  0.2815
19745TIP3    H180726   0.620   1.276  15.471  0.6065 -0.0485  0.7548
19745TIP3    H280727   0.585   1.187  15.353 -1.2515  1.5090  0.0760
19746TIP3   OH280728   2.345   1.009   1.117  0.4300 -0.0801  0.4418
19746TIP3    H180729   2.254   1.040   1.124  0.6044  0.7675 -0.7985
19746TIP3    H280730   2.372   0.996   1.208 -0.8517 -0.1349  0.8484
19747TIP3   OH280731   3.800   5.046  13.347 -0.2539  0.8503  0.0125
19747TIP3    H180732   3.805   5.104  13.271  0.3128  0.6594 -0.0995
19747TIP3    H280733   3.711   5.057  13.379 -1.1014 -0.3521 -1.7039
19748TIP3   OH280734   5.477   5.741   4.438 -0.0846 -0.3795  0.2750
19748TIP3    H180735   5.411   5.807   4.420  0.8217  1.4898  3.0515
19748TIP3    H280736   5.450   5.702   4.521  2.5664  1.0840  1.9952
19749TIP3   OH280737   6.093   3.467   0.589 -0.4173  0.2174 -0.1255
19749TIP3    H180738   6.176   3.430   0.619 -0.9828  0.4629  1.8942
19749TIP3    H280739   6.027   3.408   0.623 -1.1134  0.0771 -1.6461
19750TIP3   OH280740   2.338   5.590  13.494  0.3269 -0.1117 -0.1495
19750TIP3    H180741   2.398   5.562  13.562  0.3402  0.0252 -0.1054
19750TIP3    H280742   2.273   5.644  13.539  0.8841  0.7856 -0.3987
19751TIP3   OH280743   3.423   4.421  12.657  0.2998  0.1445 -0.4190
19751TIP3    H180744   3.515   4.443  12.646  0.1213  0.8273 -0.5836
19751TIP3    H280745   3.375   4.493  12.615 -0.3059 -0.3944 -0.6816
19752TIP3   OH280746   5.436   1.871  12.515 -0.3998  0.3230 -0.1837
19752TIP3    H180747   5.448   1.825  12.432  0.6440  2.0690 -1.0676
19752TIP3    H280748   5.457   1.805  12.582 -0.6984 -0.9595 -1.3060
19753TIP3   OH280749   3.881   3.330   1.547  0.5088  0.0447  0.2889
19753TIP3    H180750   3.844   3.353   1.632  2.7378  1.8747  0.8766
19753TIP3    H280751   3.892   3.235   1.549  1.8407  0.1943  2.6642
19754TIP3   OH280752   6.346   2.973  12.442  0.1292  0.3626 -0.0876
19754TIP3    H180753   6.276   3.034  12.421 -1.2749 -1.7037 -1.8679
19754TIP3    H280754   6.423   3.007  12.397 -0.2290  1.5925  0.2171
19755TIP3   OH280755   3.913   4.808   1.373  0.4414  0.0943  0.7837
19755TIP3    H180756   3.954   4.807   1.460 -0.1096  0.5129  1.0538
19755TIP3    H280757   3.972   4.861   1.319  0.6501  0.0494  0.9638
19756TIP3   OH280758   3.642   1.601  13.795  0.5568 -0.2483  0.6977
19756TIP3    H180759   3.688   1.604  13.711 -1.1705 -0.0935 -0.3161
19756TIP3    H280760   3.656   1.688  13.833 -0.1079  0.3234 -0.3058
19757TIP3   OH280761   0.207   4.933  14.544  0.4710 -0.5030 -0.4780
19757TIP3    H180762   0.166   4.913  14.460 -0.5994  0.4231 -0.2018
19757TIP3    H280763   0.137   4.920  14.609  0.9094  0.0367  0.1232
19758TIP3   OH280764   0.733   2.528   4.795 -0.1640 -0.0288 -0.4325
19758TIP3    H180765   0.651   2.499   4.835  0.6840 -2.6837 -0.4020
19758TIP3    H280766   0.755   2.609   4.841 -2.6067  0.6267 -0.2894
19759TIP3   OH280767   4.316   1.032   1.452 -0.3761  0.2982  0.0785
19759TIP3    H180768   4.260   1.051   1.527 -0.2090 -0.5518  0.4374
19759TIP3    H280769   4.311   1.110   1.397 -0.4992  0.9403  0.9761
19760TIP3   OH280770   6.340   4.073   5.540  0.1435 -0.0076 -0.1076
19760TIP3    H180771   6.292   3.995   5.568 -1.3873  1.1496  0.5665
19760TIP3    H280772   6.381   4.047   5.457 -1.1797 -1.1987 -0.4170
19761TIP3   OH280773   3.311   5.629   2.560 -0.1994  0.5174 -0.1296
19761TIP3    H180774   3.260   5.706   2.533 -0.4256  0.7942  1.0322
19761TIP3    H280775   3.368   5.610   2.485 -0.0745  1.8791 -0.3999
19762TIP3   OH280776   6.238   1.719  15.839 -0.4568 -0.3024  0.5104
19762TIP3    H180777   6.313   1.698  15.782 -0.2213 -0.9900  1.0589
19762TIP3    H280778   6.199   1.634  15.859 -0.2027 -0.1291  1.8226
19763TIP3   OH280779   3.634   1.418   5.907  0.4379  0.2483 -0.3973
19763TIP3    H180780   3.613   1.410   6.000  0.3599  0.3999 -0.4025
19763TIP3    H280781   3.556   1.457   5.868  1.5253  2.9504 -0.0586
19764TIP3   OH280782   4.405   0.294  10.055  0.3183  0.3948  0.6495
19764TIP3    H180783   4.453   0.375  10.036  1.2728 -0.2080  0.4066
19764TIP3    H280784   4.403   0.289  10.151 -1.3645  1.6204  0.7244
19765TIP3   OH280785   3.675   0.625   2.308  0.3922 -0.1433 -0.3919
19765TIP3    H180786   3.584   0.606   2.331  1.1870 -0.9889  2.4426
19765TIP3    H280787   3.694   0.708   2.353  1.1927 -0.3056 -0.4161
19766TIP3   OH280788   4.350   4.589   2.232  0.0479 -0.1398 -0.1694
19766TIP3    H180789   4.256   4.571   2.226  0.2347 -2.1591  1.6800
19766TIP3    H280790   4.357   4.656   2.301 -0.1361  2.2735 -2.3123
19767TIP3   OH280791   0.623   2.635   0.851  0.3459 -0.4744  0.5246
19767TIP3    H180792   0.632   2.542   0.870 -0.3830 -0.8346 -0.7639
19767TIP3    H280793   0.567   2.639   0.773  1.6709  0.9633 -0.4288
19768TIP3   OH280794   1.268   1.266   0.101  0.2654 -0.1134  0.4868
19768TIP3    H180795   1.210   1.236   0.031 -0.1888 -0.6612  1.0883
19768TIP3    H280796   1.258   1.361   0.101 -0.4514 -0.1807  0.4202
19769TIP3   OH280797   1.023   3.367   0.447 -0.3560  1.0303  0.2315
19769TIP3    H180798   1.051   3.443   0.395  0.2848  0.2478 -0.6062
19769TIP3    H280799   0.955   3.326   0.394 -0.5346  0.8800  0.5727
19770TIP3   OH280800   6.438   4.327   0.399  0.3432  0.2626  0.3665
19770TIP3    H180801   6.366   4.374   0.356  1.0783  1.1941  0.1097
19770TIP3    H280802   6.516   4.374   0.372  1.0365 -0.6103  0.8138
19771TIP3   OH280803   5.675   6.069   5.190 -0.6661  0.0026 -0.1955
19771TIP3    H180804   5.758   6.057   5.238 -2.1325  0.0031  2.5566
19771TIP3    H280805   5.699   6.061   5.098  2.8009  2.2629  0.3074
19772TIP3   OH280806   4.958   2.209  15.802  0.2532 -0.1635 -0.1013
19772TIP3    H180807   4.924   2.261  15.729  1.0513 -1.0434 -1.1414
19772TIP3    H280808   4.896   2.224  15.873 -2.1813 -1.4009 -1.7979
19773TIP3   OH280809   3.527   0.279   5.311 -0.3638  0.1432  0.2643
19773TIP3    H180810   3.613   0.280   5.270 -1.4867 -2.2057 -2.5392
19773TIP3    H280811   3.490   0.366   5.294  1.3210  1.1419  1.4205
19774TIP3   OH280812   1.252   0.585  13.554  0.2376  0.2504 -0.3172
19774TIP3    H180813   1.196   0.564  13.629  0.5881  1.4337  0.3050
19774TIP3    H280814   1.192   0.625  13.491  0.2136  0.7157 -0.0066
19775TIP3   OH280815   6.771   1.472   1.849  0.2019  0.0998  0.2871
19775TIP3    H180816   6.761   1.405   1.916 -1.5046 -2.6264 -2.4192
19775TIP3    H280817   6.681   1.493   1.823  0.6425 -2.0899 -3.8345
19776TIP3   OH280818   0.350   2.251  14.618  0.0625  0.1519 -0.2365
19776TIP3    H180819   0.428   2.258  14.563 -0.9380 -0.6750 -1.8206
19776TIP3    H280820   0.363   2.317  14.686  2.7727 -0.8850  0.3797
19777TIP3   OH280821   5.742   6.007  15.374  0.0784 -0.1812  0.3181
19777TIP3    H180822   5.722   5.925  15.420  0.6856  0.3746  1.6277
19777TIP3    H280823   5.776   5.979  15.289  0.4977 -1.3122  0.8296
19778TIP3   OH280824   4.569   5.929   2.300 -0.0685 -0.0529  0.0224
19778TIP3    H180825   4.580   5.951   2.392  0.3557  0.0711 -0.0569
19778TIP3    H280826   4.610   5.843   2.290 -1.4605 -0.7863  0.2692
19779TIP3   OH280827   5.534   3.694   1.702  0.0642 -0.2118  0.7649
19779TIP3    H180828   5.455   3.712   1.753  0.0791  1.8562  0.1801
19779TIP3    H280829   5.504   3.636   1.632 -0.6007 -0.6713  1.4161
19780TIP3   OH280830   3.715   2.250   0.709 -0.1502  0.2685  0.3062
19780TIP3    H180831   3.726   2.266   0.615 -0.6090 -0.4597  0.1267
19780TIP3    H280832   3.684   2.160   0.715  1.2142 -0.1706  1.2380
19781TIP3   OH280833   0.730   1.440  17.138 -0.5834 -0.0513  0.2611
19781TIP3    H180834   0.656   1.488  17.177  0.5991  1.2371  1.0361
19781TIP3    H280835   0.786   1.418  17.213 -1.0897 -2.7754 -0.0590
19782TIP3   OH280836   1.404   4.180  13.785  0.0681  0.1908  0.0666
19782TIP3    H180837   1.352   4.213  13.712  0.5251 -0.0225 -0.3599
19782TIP3    H280838   1.382   4.238  13.858  0.7087  1.3249 -0.6069
19783TIP3   OH280839   1.566   2.163   5.377 -0.4748  0.1548 -0.1782
19783TIP3    H180840   1.647   2.176   5.328 -0.2291  0.6512  0.3394
19783TIP3    H280841   1.582   2.084   5.429 -0.0291  0.6630  0.4798
19784TIP3   OH280842   5.991   3.550  15.059 -0.1951 -0.3209  0.2885
19784TIP3    H180843   6.038   3.626  15.094 -2.9012  1.4619  0.3008
19784TIP3    H280844   5.963   3.502  15.137 -0.8574  0.2206  0.3932
19785TIP3   OH280845   5.687   3.921  16.973  0.2885  0.4090 -0.4523
19785TIP3    H180846   5.712   3.933  16.882  1.7244 -0.1765 -0.1712
19785TIP3    H280847   5.606   3.971  16.983  1.2454  2.2782 -1.5013
19786TIP3   OH280848   5.959   4.043  16.206 -0.4939 -0.0101 -0.2335
19786TIP3    H180849   6.054   4.049  16.212 -0.5794  1.3619  0.0982
19786TIP3    H280850   5.940   3.949  16.209  0.8150 -0.2738  0.2302
19787TIP3   OH280851   2.100   5.525  10.960 -0.9254 -0.2692 -0.0481
19787TIP3    H180852   2.164   5.491  10.897 -1.0968  0.0498 -0.3977
19787TIP3    H280853   2.040   5.452  10.975 -1.0127 -0.2793 -0.4241
19788TIP3   OH280854   6.724   1.388  10.511 -0.0518 -0.5139  0.4433
19788TIP3    H180855   6.723   1.331  10.588  0.3509 -1.9067 -0.5445
19788TIP3    H280856   6.810   1.374  10.472  0.3949  1.4400  0.6103
19789TIP3   OH280857   3.546   4.304   5.219  0.0809 -0.3543  0.1424
19789TIP3    H180858   3.539   4.222   5.267 -0.1691 -1.9720 -2.4415
19789TIP3    H280859   3.617   4.290   5.157  0.7329  1.8081  0.3147
19790TIP3   OH280860   2.627   3.805   1.893  0.1036  0.0712  0.4821
19790TIP3    H180861   2.666   3.797   1.980 -3.2752  0.5889  2.2217
19790TIP3    H280862   2.583   3.721   1.879 -0.2353  0.3682 -0.2682
19791TIP3   OH280863   5.068   4.544  14.569  0.7843 -0.1150  0.4620
19791TIP3    H180864   5.079   4.536  14.474  0.9008 -0.9446  0.5420
19791TIP3    H280865   5.147   4.503  14.605 -0.2146 -1.6714  0.9538
19792TIP3   OH280866   6.531   4.578  14.130  0.1470  0.7159  0.4247
19792TIP3    H180867   6.476   4.570  14.209 -1.6689 -1.0225 -0.8923
19792TIP3    H280868   6.474   4.621  14.066  1.3238  1.4080 -0.1755
19793TIP3   OH280869   0.054   2.014   3.719  0.2433 -0.1464  0.0233
19793TIP3    H180870   0.105   1.977   3.791 -0.5184  1.6577  1.5557
19793TIP3    H280871   0.107   1.996   3.641  1.4734 -1.4533  1.1021
19794TIP3   OH280872   4.717   6.297  15.151  0.0142  0.9539 -0.2696
19794TIP3    H180873   4.632   6.265  15.123 -0.5730  0.4603  1.8889
19794TIP3    H280874   4.777   6.224  15.133 -0.6833 -0.0790  1.3983
19795TIP3   OH280875   1.966   3.620   1.201  0.1256 -0.4774  0.1118
19795TIP3    H180876   2.010   3.697   1.165  0.0662 -0.7822 -0.6140
19795TIP3    H280877   2.015   3.600   1.281  1.0301 -0.5548 -0.4499
19796TIP3   OH280878   5.048   4.516   2.928  0.2971  0.3718  0.3006
19796TIP3    H180879   5.113   4.448   2.945  1.7069  1.6289  0.1387
19796TIP3    H280880   5.022   4.546   3.015  1.1937  1.0002  0.3642
19797TIP3   OH280881   1.836   0.926  11.132  0.0514  0.3305  0.0096
19797TIP3    H180882   1.865   1.017  11.140  0.1699  0.2384  0.6747
19797TIP3    H280883   1.862   0.885  11.214  2.1396 -0.9141 -1.1964
19798TIP3   OH280884   4.490   1.819   0.800  0.3243 -0.0590 -0.3405
19798TIP3    H180885   4.561   1.794   0.860  0.3130 -0.9159 -0.6766
19798TIP3    H280886   4.428   1.746   0.805 -0.1511  0.3187 -0.6611
19799TIP3   OH280887   2.172   6.111   2.048 -0.1080 -0.3804  0.1653
19799TIP3    H180888   2.108   6.180   2.033  0.5307 -0.0796 -1.3438
19799TIP3    H280889   2.177   6.063   1.966 -0.4448 -2.1798  1.1463
19800TIP3   OH280890   3.166   5.600  15.162  0.1212 -0.4830  0.5561
19800TIP3    H180891   3.242   5.542  15.163  0.9171  0.4307 -1.7545
19800TIP3    H280892   3.144   5.609  15.069 -1.5062  0.9719  1.0393
19801TIP3   OH280893   6.747   0.078   6.475 -0.5092 -0.7008 -0.7416
19801TIP3    H180894   6.787   0.011   6.420  1.0664  1.5501 -2.5488
19801TIP3    H280895   6.684   0.121   6.418 -0.2730  0.4154 -0.1960
19802TIP3   OH280896   2.382   6.754  11.460  0.0961  0.1855  0.0332
19802TIP3    H180897   2.428   6.690  11.407 -1.7258 -1.2230  0.0422
19802TIP3    H280898   2.295   6.761  11.419 -1.2003 -0.5555  2.4600
19803TIP3   OH280899   5.069   3.022   1.213  0.5464  0.4283 -0.1090
19803TIP3    H180900   5.018   3.085   1.163  0.4029  0.9809  0.7054
19803TIP3    H280901   5.004   2.973   1.264  0.7007 -0.0311 -0.3434
19804TIP3   OH280902   6.040   0.743  13.521  0.0681  0.1387  0.0705
19804TIP3    H180903   6.025   0.836  13.541  0.5743  0.1591  0.3581
19804TIP3    H280904   6.131   0.739  13.493 -0.1189 -0.1826 -0.5156
19805TIP3   OH280905   6.788   2.077  10.547 -0.2454  0.3987 -0.2004
19805TIP3    H180906   6.744   2.021  10.484  1.0465 -0.9648  0.0511
19805TIP3    H280907   6.719   2.107  10.606 -0.8756 -1.6329  0.1615
19806TIP3   OH280908   0.468   5.769   0.405 -0.1224  0.0561  1.1925
19806TIP3    H180909   0.460   5.853   0.450  2.8836  0.8576  0.4585
19806TIP3    H280910   0.501   5.709   0.472  1.3558  0.4727  0.8823
19807TIP3   OH280911   6.075   2.284   5.319 -0.8937 -0.3069 -0.2163
19807TIP3    H180912   5.987   2.255   5.343 -1.0881 -1.2617 -1.9096
19807TIP3    H280913   6.132   2.246   5.386 -1.7532  0.3069  0.8911
19808TIP3   OH280914   1.462   0.244   1.819  0.0492 -0.2226  0.0624
19808TIP3    H180915   1.541   0.231   1.767  1.1969 -1.2200  1.9447
19808TIP3    H280916   1.468   0.334   1.850 -0.1832  0.0880 -0.7769
19809TIP3   OH280917   1.807   0.155   2.964 -0.6237  0.4303  0.4909
19809TIP3    H180918   1.790   0.249   2.964  0.4355  0.6356 -0.4080
19809TIP3    H280919   1.879   0.143   2.902  1.8932 -0.4994  3.3483
19810TIP3   OH280920   1.762   0.536  12.380  0.0889  0.7381 -0.1656
19810TIP3    H180921   1.815   0.547  12.459 -1.3378 -1.3408  1.1625
19810TIP3    H280922   1.690   0.478  12.406 -0.1215 -0.5366 -3.1308
19811TIP3   OH280923   5.330   1.040   4.735  0.1719 -0.2511  0.4054
19811TIP3    H180924   5.421   1.070   4.746  0.0091  0.0826  0.8516
19811TIP3    H280925   5.323   1.020   4.641  0.6628 -0.1448  0.3401
19812TIP3   OH280926   5.070   2.633   0.699 -0.5669 -0.2419 -0.4946
19812TIP3    H180927   5.115   2.646   0.616 -1.7173  0.2382 -1.0534
19812TIP3    H280928   5.031   2.718   0.719 -0.0717 -0.2676  0.6874
19813TIP3   OH280929   2.444   2.339   2.397  0.3859  0.2539 -0.4267
19813TIP3    H180930   2.471   2.286   2.472  0.2103  0.5753 -0.1290
19813TIP3    H280931   2.457   2.283   2.321 -1.6434 -0.9455  0.0271
19814TIP3   OH280932   4.436   3.204   3.846  0.1330  0.0350  0.5182
19814TIP3    H180933   4.392   3.288   3.854 -1.8568 -0.5137 -2.7136
19814TIP3    H280934   4.367   3.139   3.862  0.8339 -0.9269 -0.2415
19815TIP3   OH280935   6.750   1.866  17.056  0.5807 -0.0826  0.7825
19815TIP3    H180936   6.759   1.772  17.071  0.3886 -0.4074 -0.9196
19815TIP3    H280937   6.836   1.902  17.075  1.1410 -0.8659 -0.1751
19816TIP3   OH280938   3.595   3.190   4.022 -0.1256 -0.3806 -0.4820
19816TIP3    H180939   3.522   3.174   3.962 -1.9141  1.6532  0.9811
19816TIP3    H280940   3.554   3.231   4.098  2.7092  2.3085 -0.2192
19817TIP3   OH280941   2.946   5.517  10.502  0.1943  0.1491  1.1910
19817TIP3    H180942   2.965   5.577  10.574 -0.6718  0.7286  0.9505
19817TIP3    H280943   2.853   5.499  10.509  0.4259 -1.1763  1.2467
19818TIP3   OH280944   2.912   0.121  13.509  0.0287 -0.0232 -0.0946
19818TIP3    H180945   2.820   0.118  13.534  0.0375 -1.7815 -0.1606
19818TIP3    H280946   2.945   0.032  13.526  1.8048  0.6596  0.2920
19819TIP3   OH280947   0.693   2.697   1.883  0.4083 -0.6181  0.3726
19819TIP3    H180948   0.684   2.617   1.830  0.2625 -0.8062  0.6815
19819TIP3    H280949   0.787   2.710   1.891  0.5650  1.3640 -2.8876
19820TIP3   OH280950   0.295   1.069   1.804 -0.0048  0.1761 -0.2861
19820TIP3    H180951   0.285   0.974   1.803 -2.2485  0.3497 -1.2701
19820TIP3    H280952   0.367   1.087   1.744  0.1664 -0.8883 -0.4135
19821TIP3   OH280953   4.307   5.153   0.090  0.0292 -0.1077  0.0261
19821TIP3    H180954   4.221   5.124   0.121 -0.1613  0.9310  0.4979
19821TIP3    H280955   4.291   5.187   0.002  0.0445 -0.2986 -0.0530
19822TIP3   OH280956   5.936   1.067   2.037 -0.5735 -0.1507  0.0888
19822TIP3    H180957   5.877   1.141   2.025 -0.7922 -0.1116  1.2327
19822TIP3    H280958   5.933   1.020   1.954 -0.4945  1.0635 -0.6246
19823TIP3   OH280959   2.069   3.057   1.958 -0.4086  0.0204  0.2482
19823TIP3    H180960   2.142   2.996   1.969 -0.1287  0.3682  0.3468
19823TIP3    H280961   2.062   3.068   1.863  1.3140  1.9189  0.2745
19824TIP3   OH280962   4.848   5.320  14.208 -0.1222  0.1166  0.2393
19824TIP3    H180963   4.842   5.382  14.281 -0.1705 -1.6075  1.7680
19824TIP3    H280964   4.936   5.332  14.173  0.0228  0.7235  0.8036
19825TIP3   OH280965   3.873   4.887  12.519 -0.6846 -0.3567 -0.1010
19825TIP3    H180966   3.860   4.802  12.561 -1.7760  0.8014  2.0526
19825TIP3    H280967   3.786   4.910  12.484 -0.2786 -0.3314 -1.1389
19826TIP3   OH280968   1.491   1.731   1.396  0.3014  0.0521  0.1323
19826TIP3    H180969   1.506   1.668   1.326  0.9231 -1.0120  1.1859
19826TIP3    H280970   1.570   1.785   1.397  1.1054 -1.0822  1.1369
19827TIP3   OH280971   4.415   2.114  15.432  0.6823 -0.2511 -0.1052
19827TIP3    H180972   4.429   2.077  15.345  2.9684  0.5701 -0.1543
19827TIP3    H280973   4.431   2.041  15.492  0.8815 -0.4037 -0.3399
19828TIP3   OH280974   1.241   4.984   3.673 -0.3759  0.2973  0.5046
19828TIP3    H180975   1.226   4.898   3.633  1.8517 -0.1492  0.5001
19828TIP3    H280976   1.160   5.003   3.719 -1.1768 -1.4986 -0.0499
19829TIP3   OH280977   2.153   2.481  11.051 -0.0628 -0.4061  0.3540
19829TIP3    H180978   2.175   2.437  11.133 -0.6345 -0.9310  0.2342
19829TIP3    H280979   2.085   2.545  11.076  1.0309  0.6902  0.5948
19830TIP3   OH280980   6.140   5.810  12.758  0.1204 -0.0699 -0.3631
19830TIP3    H180981   6.088   5.739  12.722 -0.5453 -0.3635  1.0970
19830TIP3    H280982   6.174   5.856  12.682  1.7660 -2.7676 -1.4106
19831TIP3   OH280983   2.408   5.496  11.058  0.9002 -0.2231 -0.1515
19831TIP3    H180984   2.385   5.588  11.049  2.0558 -0.0111 -1.2021
19831TIP3    H280985   2.386   5.456  10.974 -0.3590 -1.1069  0.5647
19832TIP3   OH280986   3.460   1.714  11.800 -0.0580 -0.1631 -0.3143
19832TIP3    H180987   3.414   1.771  11.861 -2.5979 -1.4876 -0.8835
19832TIP3    H280988   3.408   1.717  11.720  0.7114 -1.9358 -0.9333
19833TIP3   OH280989   2.978   1.914  16.095 -0.0508 -0.4433 -0.0079
19833TIP3    H180990   2.950   1.851  16.162 -2.1509  0.0339 -0.3665
19833TIP3    H280991   3.005   1.992  16.145 -0.5148 -0.4915  0.3212
19834TIP3   OH280992   5.696   6.294  11.476  0.0323  0.4606  0.6566
19834TIP3    H180993   5.771   6.352  11.469  0.3596  0.1332  1.3480
19834TIP3    H280994   5.665   6.282  11.386  1.0394  0.2938  0.3241
19835TIP3   OH280995   2.737   0.506   2.567  0.4851 -0.0061 -0.6905
19835TIP3    H180996   2.647   0.523   2.541  0.2731 -1.4253 -0.9758
19835TIP3    H280997   2.730   0.450   2.643  1.1054 -1.3274 -1.5736
19836TIP3   OH280998   1.301   3.714   4.391  0.0455  0.4125  0.4591
19836TIP3    H180999   1.225   3.677   4.347  0.6169 -0.7281  0.3640
19836TIP3    H281000   1.366   3.724   4.321  0.4279  0.0874  0.7644
19837TIP3   OH281001   4.014   1.102  15.409 -0.0761  0.2380 -0.0665
19837TIP3    H181002   3.964   1.140  15.482 -0.3410  3.2930 -1.6594
19837TIP3    H281003   3.993   1.009  15.412 -1.6789  0.5599  2.5094
19838TIP3   OH281004   6.605   3.092  11.741  0.2593 -0.4537  0.4336
19838TIP3    H181005   6.652   3.008  11.744 -0.0223 -0.6023  0.6947
19838TIP3    H281006   6.631   3.137  11.821 -0.8840 -0.9952  1.1324
19839TIP3   OH281007   2.040   4.119  12.470 -0.2449  0.3014  0.0446
19839TIP3    H181008   1.977   4.140  12.401 -1.0706  0.6140  0.8588
19839TIP3    H281009   2.008   4.038  12.509 -0.1706  0.4785  0.4862
19840TIP3   OH281010   5.581   4.322  13.440  0.4555  0.4188  0.1782
19840TIP3    H181011   5.518   4.250  13.438  1.5444 -0.5600  0.1672
19840TIP3    H281012   5.588   4.350  13.349 -0.3440  0.8828  0.2526
19841TIP3   OH281013   4.064   3.270   3.692  0.1256 -0.3030  0.6941
19841TIP3    H181014   4.068   3.362   3.668 -0.6633 -0.6533 -0.8828
19841TIP3    H281015   3.972   3.245   3.680  0.5222 -1.5576 -0.0073
19842TIP3   OH281016   5.844   0.519  15.124  0.0581  0.5496 -0.5918
19842TIP3    H181017   5.781   0.510  15.052  1.0694  0.6154 -1.5188
19842TIP3    H281018   5.929   0.521  15.080  0.9566 -2.2605  0.7717
19843TIP3   OH281019   3.814   5.250  11.917 -0.0835 -0.2837 -0.5789
19843TIP3    H181020   3.816   5.177  11.855  0.5422  0.5155 -1.5054
19843TIP3    H281021   3.877   5.224  11.985 -0.8483 -1.2048 -0.1898
19844TIP3   OH281022   2.639   3.548  16.210  0.1667  0.8848  0.3392
19844TIP3    H181023   2.720   3.501  16.187 -0.0178  1.2977 -1.2541
19844TIP3    H281024   2.667   3.638  16.225 -0.0286  1.0739 -0.4306
19845TIP3   OH281025   3.980   3.083  13.583  0.1952  0.3158 -0.5833
19845TIP3    H181026   3.910   3.147  13.568  0.5930  0.9383  0.1638
19845TIP3    H281027   3.967   3.053  13.673 -0.0385 -0.7383 -0.9484
19846TIP3   OH281028   0.933   2.353   4.837  0.6659  0.2428  0.7892
19846TIP3    H181029   0.877   2.276   4.838 -0.3354  0.9470  0.4835
19846TIP3    H281030   0.872   2.427   4.834  1.6067  1.0013 -0.6906
19847TIP3   OH281031   4.424   2.410   0.213  0.1940  0.3310  0.4670
19847TIP3    H181032   4.472   2.345   0.162 -0.9689 -2.2095  2.4264
19847TIP3    H281033   4.377   2.461   0.147  1.1347 -0.7977 -1.1537
19848TIP3   OH281034   5.980   1.784  12.244  0.0589 -0.0162 -0.1882
19848TIP3    H181035   6.060   1.748  12.282 -0.6879 -3.1047 -1.2117
19848TIP3    H281036   5.919   1.790  12.318  0.3007 -0.6423  0.0705
19849TIP3   OH281037   4.836   5.482  12.949  0.1139 -0.1660 -0.1255
19849TIP3    H181038   4.802   5.515  13.032  0.1591 -0.4645  0.0139
19849TIP3    H281039   4.920   5.525  12.938  0.5588 -0.8613  0.4667
19850TIP3   OH281040   2.888   1.465   0.603 -0.0881 -0.0606  0.2720
19850TIP3    H181041   2.931   1.545   0.630 -0.9406 -0.3296  2.6255
19850TIP3    H281042   2.955   1.397   0.611  0.1581  0.1358 -0.0867
19851TIP3   OH281043   2.634   1.843  11.202  0.4649 -0.0985 -0.1966
19851TIP3    H181044   2.685   1.769  11.234 -1.5408 -0.4516  2.5516
19851TIP3    H281045   2.630   1.904  11.275 -1.0714  0.9779 -1.1086
19852TIP3   OH281046   4.456   5.057   6.276  0.3514 -0.5807  0.0382
19852TIP3    H181047   4.465   5.142   6.320 -2.7321 -0.1182  0.0171
19852TIP3    H281048   4.391   5.010   6.327  0.7982 -2.2965 -0.8995
19853TIP3   OH281049   2.353   4.302   1.951  0.3206 -0.2731 -0.2613
19853TIP3    H181050   2.286   4.362   1.983  0.7693  0.7147 -1.1168
19853TIP3    H281051   2.374   4.246   2.026  0.2103  0.9259  0.6856
19854TIP3   OH281052   6.790   2.013  14.938 -0.4109 -0.0569 -0.1587
19854TIP3    H181053   6.719   2.033  14.998  1.7398  2.3508  1.8436
19854TIP3    H281054   6.850   1.958  14.990  0.7746  0.8182 -0.5449
19855TIP3   OH281055   5.339   1.772  14.958 -0.5287  0.0900 -0.0562
19855TIP3    H181056   5.366   1.824  15.034 -0.8829  0.7085 -0.3474
19855TIP3    H281057   5.301   1.693  14.995 -0.9065  0.4882  0.4186
19856TIP3   OH281058   0.480   5.423  11.804 -0.0390  0.9722  0.0645
19856TIP3    H181059   0.395   5.407  11.762  1.7672 -2.2371 -2.9632
19856TIP3    H281060   0.466   5.403  11.896 -2.9465  2.4625  0.0486
19857TIP3   OH281061   2.001   5.002   3.073  0.1484  0.1121  0.2010
19857TIP3    H181062   1.964   5.034   2.991 -0.0896 -0.1679  0.1964
19857TIP3    H281063   1.994   5.076   3.133 -0.0692  0.1830  0.0902
19858TIP3   OH281064   5.734   0.474   1.026 -0.2636  0.3365 -0.3606
19858TIP3    H181065   5.760   0.453   1.116 -1.7547  0.3830  0.1122
19858TIP3    H281066   5.641   0.497   1.033 -0.1966  1.1477 -1.7921
19859TIP3   OH281067   1.075   2.229   1.815 -0.2951  0.0830  0.0596
19859TIP3    H181068   1.009   2.226   1.885 -1.2623  0.3844 -0.8139
19859TIP3    H281069   1.155   2.198   1.857 -0.5868  1.2659  1.5915
19860TIP3   OH281070   4.712   6.506  12.731 -0.3300 -0.4051 -0.3788
19860TIP3    H181071   4.806   6.507  12.715 -0.2043 -0.5685  0.3229
19860TIP3    H281072   4.672   6.509  12.644  0.3230 -0.5182 -0.6822
19861TIP3   OH281073   0.898   5.118  15.477 -0.1308  0.2061  0.2199
19861TIP3    H181074   0.812   5.119  15.519 -0.0500 -0.6805  0.4202
19861TIP3    H281075   0.887   5.065  15.399 -0.2337  1.6986 -0.8203
19862TIP3   OH281076   6.285   0.145  12.879 -0.0364 -0.1213  0.5144
19862TIP3    H181077   6.262   0.098  12.959  0.5878 -1.0040  0.1879
19862TIP3    H281078   6.362   0.099  12.845  0.3432  0.8865 -0.0356
19863TIP3   OH281079   1.199   4.718  13.288 -0.6446 -0.7103 -0.7849
19863TIP3    H181080   1.146   4.793  13.314 -2.0375 -1.1635 -2.1319
19863TIP3    H281081   1.180   4.651  13.354 -0.6431 -0.4036 -0.4703
19864TIP3   OH281082   0.508   3.480  10.599  0.0299 -0.2074 -0.4606
19864TIP3    H181083   0.448   3.545  10.635 -0.2602 -0.9464  0.4115
19864TIP3    H281084   0.595   3.512  10.622 -0.0649  0.3228 -0.8137
19865TIP3   OH281085   3.360   3.949  11.426 -0.2286  0.1652  0.0026
19865TIP3    H181086   3.323   3.900  11.353 -1.5256  0.6810  0.2864
19865TIP3    H281087   3.305   3.927  11.500  0.8790 -0.1027  0.7786
19866TIP3   OH281088   5.912   2.964  13.402 -0.0918 -0.0526 -0.0087
19866TIP3    H181089   5.961   2.932  13.477 -1.5650 -0.0016  1.0120
19866TIP3    H281090   5.937   3.056  13.394  1.1241 -0.4038 -0.4757
19867TIP3   OH281091   6.703   2.367  14.261  0.1703  0.2092  0.1030
19867TIP3    H181092   6.765   2.347  14.191  0.9021 -0.4850  0.9326
19867TIP3    H281093   6.666   2.282  14.285 -0.2263  0.4703  0.4291
19868TIP3   OH281094   0.351   0.419  12.923  0.0644  0.0972  0.6249
19868TIP3    H181095   0.292   0.491  12.900  0.9351 -0.0148 -2.2196
19868TIP3    H281096   0.304   0.372  12.993 -2.7146  0.6495 -0.7324
19869TIP3   OH281097   2.391   5.418  10.793 -0.1723 -0.0475  0.0972
19869TIP3    H181098   2.370   5.495  10.741 -0.0227 -0.3658 -0.4467
19869TIP3    H281099   2.486   5.413  10.792 -0.2017 -1.6143 -1.9839
19870TIP3   OH281100   2.288   0.474   1.278 -0.1219 -0.0209 -0.1357
19870TIP3    H181101   2.197   0.445   1.281  0.0020 -0.4128 -0.0821
19870TIP3    H281102   2.290   0.542   1.211 -0.7070  0.8737  0.7380
19871TIP3   OH281103   4.085   2.676  15.298  0.1238  0.1614  0.0470
19871TIP3    H181104   3.992   2.669  15.319 -0.0800 -0.0527 -0.8642
19871TIP3    H281105   4.118   2.586  15.305  0.4675  0.3731  1.2410
19872TIP3   OH281106   5.615   6.389  11.757  0.0016  0.3464 -0.4218
19872TIP3    H181107   5.604   6.429  11.670  0.8431  0.5816 -0.4271
19872TIP3    H281108   5.620   6.463  11.817  1.6966  0.3029 -0.4449
19873TIP3   OH281109   1.370   1.050   0.479 -0.7443 -0.2054 -0.1092
19873TIP3    H181110   1.307   0.987   0.445 -1.8113  2.1148 -2.8826
19873TIP3    H281111   1.350   1.056   0.573 -1.4192 -2.9348  0.0039
19874TIP3   OH281112   3.521   4.229   5.764  0.4971 -0.4900  0.2877
19874TIP3    H181113   3.484   4.237   5.676  0.4508  1.2754  0.4525
19874TIP3    H281114   3.463   4.167   5.809 -0.5095 -0.0529 -0.3754
19875TIP3   OH281115   2.459   1.819   5.093 -0.1677 -0.4933 -0.0223
19875TIP3    H181116   2.530   1.840   5.032  0.0087 -1.4702 -0.1605
19875TIP3    H281117   2.441   1.902   5.138 -0.9200  0.4779 -2.0105
19876TIP3   OH281118   1.116   4.304   1.433 -0.3329  0.4484 -0.7707
19876TIP3    H181119   1.123   4.384   1.380 -0.8225  0.5192 -0.7345
19876TIP3    H281120   1.055   4.248   1.385 -1.9803  1.1191  0.4291
19877TIP3   OH281121   4.191   4.747  14.883 -0.2322 -0.4154  0.0278
19877TIP3    H181122   4.230   4.717  14.801  1.1497  2.4507 -0.4865
19877TIP3    H281123   4.119   4.803  14.856  0.7727  1.2535  0.6836
19878TIP3   OH281124   4.976   6.142  13.738  0.2843 -0.0832  0.2776
19878TIP3    H181125   5.039   6.143  13.810 -1.5593  1.2044  2.0045
19878TIP3    H281126   4.997   6.219  13.686  1.2638 -0.6927 -0.2475
19879TIP3   OH281127   6.503   6.783   2.503  0.2105 -0.0041  0.0881
19879TIP3    H181128   6.453   6.702   2.498  1.6430 -0.9697  0.8639
19879TIP3    H281129   6.547   6.779   2.588 -0.4883  2.0877  0.6088
19880TIP3   OH281130   5.096   5.489  11.533  0.1434  0.2906  0.2125
19880TIP3    H181131   5.130   5.428  11.467 -0.9412  0.1393 -0.2193
19880TIP3    H281132   5.174   5.534  11.566  0.8238 -0.4408 -0.3547
19881TIP3   OH281133   6.508   3.100   3.971 -0.7690  0.6577  0.8801
19881TIP3    H181134   6.593   3.085   4.013  0.3878 -0.4263 -1.6281
19881TIP3    H281135   6.451   3.033   4.008  0.5913 -1.1735 -0.1533
19882TIP3   OH281136   6.543   5.831   2.221  0.3169  0.1312 -0.2850
19882TIP3    H181137   6.518   5.818   2.313 -0.5479  0.5838 -0.4451
19882TIP3    H281138   6.604   5.905   2.223 -0.3618  0.7041 -0.1509
19883TIP3   OH281139   6.140   0.224   5.622 -0.4520 -0.7599 -0.2398
19883TIP3    H181140   6.141   0.185   5.535 -2.7297 -2.6387  0.4823
19883TIP3    H281141   6.147   0.150   5.682 -1.1697  0.2616  1.1739
19884TIP3   OH281142   5.403   2.492   3.686 -0.5967  0.0603 -0.4534
19884TIP3    H181143   5.455   2.550   3.742  0.0575 -1.7662  0.9214
19884TIP3    H281144   5.430   2.404   3.712 -0.1664 -0.9008 -3.7497
19885TIP3   OH281145   3.008   2.026   4.827 -0.1617 -0.7082  0.1223
19885TIP3    H181146   2.989   1.991   4.740 -2.9276 -1.9579  1.1088
19885TIP3    H281147   3.012   1.949   4.884  0.0468  0.1803  1.3514
19886TIP3   OH281148   4.589   1.032   1.069 -0.4139  0.2980 -0.6490
19886TIP3    H181149   4.674   1.069   1.045 -0.1458 -0.4056 -0.8145
19886TIP3    H281150   4.586   1.038   1.164 -0.9575  1.9780 -0.7447
19887TIP3   OH281151   2.638   2.651  16.717  0.2679  0.1504 -0.7712
19887TIP3    H181152   2.704   2.668  16.784 -0.4082 -0.0806 -0.0438
19887TIP3    H281153   2.609   2.562  16.733 -0.8976  0.5658 -0.4899
19888TIP3   OH281154   6.740   4.237  11.975 -0.2136 -0.1253 -0.4025
19888TIP3    H181155   6.678   4.238  12.047 -0.3486 -0.5004 -0.5099
19888TIP3    H281156   6.791   4.157  11.988 -0.0263 -0.0305 -0.5428
19889TIP3   OH281157   6.432   3.629   1.857 -0.5034 -0.6039 -0.1237
19889TIP3    H181158   6.354   3.606   1.807 -0.3281  0.2576 -0.8098
19889TIP3    H281159   6.405   3.623   1.949 -1.5265  0.1705 -0.3611
19890TIP3   OH281160   2.023   3.364   2.650  0.0634 -0.4755  0.4039
19890TIP3    H181161   1.946   3.373   2.706  0.6303  1.1734  0.9898
19890TIP3    H281162   2.016   3.437   2.588  0.7745 -0.7625 -0.0250
19891TIP3   OH281163   2.364   4.071  12.803 -0.0932  0.4046 -0.1553
19891TIP3    H181164   2.430   4.085  12.735 -1.1228  0.8549 -1.1045
19891TIP3    H281165   2.333   4.159  12.826 -0.0286  0.2302  0.6242
19892TIP3   OH281166   3.957   3.326   5.530 -0.3561  0.6678  0.2035
19892TIP3    H181167   3.927   3.388   5.465 -1.8508  0.2332  0.4535
19892TIP3    H281168   3.889   3.325   5.597 -0.0488 -0.7393  0.5382
19893TIP3   OH281169   5.408   1.880   2.809 -0.2708 -0.1860 -0.1084
19893TIP3    H181170   5.355   1.840   2.878  0.7964  0.2503  1.0079
19893TIP3    H281171   5.372   1.968   2.799  0.4378  0.2316  0.8953
19894TIP3   OH281172   1.922   5.483  15.821 -0.8727 -0.0285  0.2562
19894TIP3    H181173   1.878   5.442  15.746 -0.9485  0.7172 -0.1183
19894TIP3    H281174   1.968   5.411  15.864  0.3779 -0.2627 -1.3606
19895TIP3   OH281175   4.049   0.879   1.513 -0.0746 -0.2543  0.2905
19895TIP3    H181176   4.117   0.871   1.446 -0.8504 -1.3069 -0.4008
19895TIP3    H281177   4.093   0.922   1.587  0.7295  1.1753 -0.9653
19896TIP3   OH281178   5.484   1.987   4.870 -0.1242 -0.3866 -0.4330
19896TIP3    H181179   5.503   2.075   4.836  2.4357 -0.6546  0.1310
19896TIP3    H281180   5.434   2.002   4.950 -0.2655  0.5203 -0.6812
19897TIP3   OH281181   4.949   5.419  12.615 -0.1145 -0.2002  1.2108
19897TIP3    H181182   5.000   5.436  12.694  0.8898  0.9690  0.3642
19897TIP3    H281183   4.992   5.343  12.575  0.5259  0.3210  0.8857
19898TIP3   OH281184   0.576   5.610  11.127  0.8555  0.0448  0.4448
19898TIP3    H181185   0.561   5.544  11.195 -2.3656 -3.1808 -2.9519
19898TIP3    H281186   0.516   5.681  11.149  0.0570 -0.8148  1.1513
19899TIP3   OH281187   5.922   5.845  11.441 -0.1069  0.2056 -0.4820
19899TIP3    H181188   5.936   5.813  11.352  1.2562  2.3645 -1.1075
19899TIP3    H281189   6.007   5.831  11.485 -0.2974  0.5435  0.0046
19900TIP3   OH281190   2.280   5.528  17.131 -0.2700  0.1067  0.5543
19900TIP3    H181191   2.346   5.531  17.062 -1.3751 -1.9429 -0.6977
19900TIP3    H281192   2.330   5.524  17.213  1.1063  0.1057 -0.2647
19901TIP3   OH281193   0.099   3.616   5.740 -0.2693 -0.4616  0.3469
19901TIP3    H181194   0.052   3.548   5.788 -2.0638  1.8572  2.1427
19901TIP3    H281195   0.187   3.616   5.779 -0.3563 -1.4837  0.5666
19902TIP3   OH281196   5.118   2.554   0.173  0.3403 -0.2110  0.0997
19902TIP3    H181197   5.066   2.475   0.158 -0.7846  0.8470 -2.0032
19902TIP3    H281198   5.150   2.544   0.263  0.0022 -2.8874  0.0297
19903TIP3   OH281199   1.655   5.732  14.580 -0.2552 -0.0195 -0.2844
19903TIP3    H181200   1.589   5.802  14.584  0.0773  0.3764 -1.4296
19903TIP3    H281201   1.716   5.753  14.651 -0.1919  0.8233 -0.5740
19904TIP3   OH281202   3.639   1.213  14.469 -0.0146  0.6003  0.5493
19904TIP3    H181203   3.698   1.236  14.397 -0.5543  0.3481  0.0083
19904TIP3    H281204   3.588   1.292  14.484 -0.9094  0.2274 -0.3619
19905TIP3   OH281205   3.829   6.641  12.749  0.2865 -0.6336  0.7677
19905TIP3    H181206   3.815   6.551  12.721 -1.3082 -0.3085  0.4268
19905TIP3    H281207   3.797   6.644  12.839  0.8634 -0.5245  0.9763
19906TIP3   OH281208   6.240   5.082  15.406  0.1430 -0.2341 -0.4598
19906TIP3    H181209   6.242   5.054  15.498  0.7574 -1.3534 -0.7864
19906TIP3    H281210   6.316   5.038  15.367  1.7374  2.6034 -0.8555
19907TIP3   OH281211   4.971   4.422  11.839  0.1795  0.1277 -0.0982
19907TIP3    H181212   4.924   4.374  11.908 -2.1282  0.9172 -1.0303
19907TIP3    H281213   4.968   4.363  11.764  1.6328 -0.2226  0.0822
19908TIP3   OH281214   5.392   4.844   3.811 -0.8885  0.5626  0.3099
19908TIP3    H181215   5.399   4.764   3.863  1.9465  0.0981 -0.6155
19908TIP3    H281216   5.410   4.915   3.873 -1.0331  0.3049  0.6468
19909TIP3   OH281217   4.802   4.470  14.697  0.2895 -0.3673  0.3177
19909TIP3    H181218   4.796   4.518  14.780  1.4037  2.0813 -0.9004
19909TIP3    H281219   4.896   4.473  14.675 -0.0573 -0.4631 -1.2908
19910TIP3   OH281220   0.575   3.301   2.030 -0.0597 -0.5709 -0.1536
19910TIP3    H181221   0.487   3.312   2.066  0.3888 -1.1566  1.2177
19910TIP3    H281222   0.624   3.259   2.101  1.5812  0.6593 -0.5022
19911TIP3   OH281223   0.225   5.410  12.870 -0.6313  0.5388 -0.1271
19911TIP3    H181224   0.272   5.493  12.877  0.3187 -0.1076  1.5903
19911TIP3    H281225   0.141   5.434  12.830  0.4410  1.9827 -1.6528
19912TIP3   OH281226   5.009   3.897  14.222 -0.4782 -0.0680  0.3368
19912TIP3    H181227   4.998   3.992  14.217 -0.8553 -0.1034  0.4329
19912TIP3    H281228   5.009   3.878  14.316 -0.4592 -0.1680  0.3161
19913TIP3   OH281229   1.169   4.800  13.027 -0.2009 -0.2782  0.0997
19913TIP3    H181230   1.105   4.769  12.962  0.5763 -1.2711 -0.2285
19913TIP3    H281231   1.144   4.756  13.108 -1.2428  1.0531  0.5412
19914TIP3   OH281232   5.723   2.138   1.948  0.7504 -0.4418 -0.3129
19914TIP3    H181233   5.772   2.057   1.964 -0.5159 -1.0370  0.6962
19914TIP3    H281234   5.773   2.205   1.995  2.9543 -0.1656 -2.8038
19915TIP3   OH281235   6.796   6.249  16.766  0.4199 -0.3034  0.2412
19915TIP3    H181236   6.848   6.250  16.685  0.7638 -1.1092  0.4391
19915TIP3    H281237   6.861   6.260  16.836  0.1383  0.2644  0.4202
19916TIP3   OH281238   0.374   5.342   3.306  0.0700  0.3271  0.5772
19916TIP3    H181239   0.306   5.285   3.340  0.0938  0.1804  0.3824
19916TIP3    H281240   0.366   5.422   3.358 -2.0288  1.3747 -1.1493
19917TIP3   OH281241   3.847   1.206  15.584  0.3994  0.5124 -0.5917
19917TIP3    H181242   3.859   1.231  15.675  0.1737 -0.0672 -0.3979
19917TIP3    H281243   3.755   1.226  15.566 -0.4367 -2.1586  0.2345
19918TIP3   OH281244   1.136   5.461   2.038  0.5462  0.0947 -0.0866
19918TIP3    H181245   1.191   5.518   2.092 -1.1368  1.3137  0.4155
19918TIP3    H281246   1.148   5.374   2.076  1.7897  0.3814  0.2501
19919TIP3   OH281247   5.380   3.492   0.075  0.3447 -0.5411  0.2077
19919TIP3    H181248   5.439   3.490   0.151  0.8180 -0.0094 -0.1310
19919TIP3    H281249   5.319   3.420   0.090 -0.4345  0.3934  1.7756
19920TIP3   OH281250   1.800   1.402  12.734  0.0240  0.2239  0.0896
19920TIP3    H181251   1.762   1.347  12.665 -2.2767  0.4263  1.0714
19920TIP3    H281252   1.732   1.403  12.802  1.4528  1.5107  1.5583
19921TIP3   OH281253   2.604   5.518  14.072  0.3681 -0.5090 -0.1464
19921TIP3    H181254   2.688   5.557  14.049 -0.1819  0.1650 -1.0353
19921TIP3    H281255   2.628   5.434  14.113  1.5008  0.1463  0.5993
19922TIP3   OH281256   4.655   0.116  16.923  0.0014  0.1644  0.4669
19922TIP3    H181257   4.634   0.039  16.871  1.6936  1.4295 -2.3347
19922TIP3    H281258   4.640   0.190  16.864  1.4635  1.7688  1.9803
19923TIP3   OH281259   5.862   4.041  11.308 -0.2006  1.0114  0.4512
19923TIP3    H181260   5.892   4.044  11.399 -0.4563  2.8707  0.5173
19923TIP3    H281261   5.824   4.127  11.293 -0.1078  0.7573 -1.4501
19924TIP3   OH281262   4.663   2.567   4.505 -0.6165 -0.2555  0.1760
19924TIP3    H181263   4.655   2.656   4.470 -1.0059 -0.3155  0.1108
19924TIP3    H281264   4.753   2.541   4.485 -0.4466  0.1921  0.3571
19925TIP3   OH281265   1.799   3.309   1.851  0.3875  0.0622  0.1344
19925TIP3    H181266   1.704   3.296   1.844  0.2570  1.4424 -1.3986
19925TIP3    H281267   1.818   3.295   1.943 -0.8059 -3.1193  0.0246
19926TIP3   OH281268   6.347   5.749   3.274  0.1132 -0.6183  0.0978
19926TIP3    H181269   6.296   5.724   3.352 -0.4817  0.5594  0.1058
19926TIP3    H281270   6.435   5.717   3.292 -0.1153 -0.7297  1.0827
19927TIP3   OH281271   4.346   1.426  14.315 -0.2012 -0.3706  0.1762
19927TIP3    H181272   4.377   1.513  14.338 -0.0209 -0.2273 -0.5888
19927TIP3    H281273   4.304   1.437  14.230  0.5320 -1.1802 -0.3110
19928TIP3   OH281274   4.519   5.267  12.364 -0.1747  0.2377 -0.4587
19928TIP3    H181275   4.596   5.322  12.376 -0.9584  0.9620  1.6360
19928TIP3    H281276   4.523   5.204  12.437 -2.4763  1.4622  0.8360
19929TIP3   OH281277   2.109   2.830   5.100  0.0313  0.2456  0.2293
19929TIP3    H181278   2.054   2.842   5.022 -1.3787  0.2166  1.1806
19929TIP3    H281279   2.191   2.876   5.079 -0.3839  0.4016 -1.1824
19930TIP3   OH281280   5.422   4.123   0.833  0.8403  0.2121  0.1814
19930TIP3    H181281   5.504   4.074   0.828  0.7068 -0.0289  0.3214
19930TIP3    H281282   5.354   4.056   0.840  0.6386  0.4116  0.1549
19931TIP3   OH281283   1.665   4.595  17.110 -0.1059  0.0246  0.3654
19931TIP3    H181284   1.751   4.637  17.107 -0.1580  0.0921 -1.0598
19931TIP3    H281285   1.623   4.621  17.028  0.0945 -3.2655 -0.9594
19932TIP3   OH281286   4.070   4.388   1.544 -0.5772  0.1641  0.0532
19932TIP3    H181287   4.124   4.416   1.470 -1.1061 -1.1855 -0.8765
19932TIP3    H281288   4.101   4.300   1.565 -1.9389 -0.3674 -0.0608
19933TIP3   OH281289   0.264   0.316   0.704  0.0313  0.3708 -0.3193
19933TIP3    H181290   0.293   0.405   0.684  2.0211 -0.0660  0.4160
19933TIP3    H281291   0.287   0.303   0.795 -0.7343 -0.7333 -0.2689
19934TIP3   OH281292   4.625   3.595   0.613 -0.5171 -0.3760 -0.3033
19934TIP3    H181293   4.633   3.509   0.653 -0.2284 -1.2993 -2.2327
19934TIP3    H281294   4.589   3.578   0.526  1.0667  1.2661 -1.3569
19935TIP3   OH281295   1.463   2.921   1.536 -0.0628 -0.0208  0.1235
19935TIP3    H181296   1.544   2.897   1.581 -0.3692  0.9555  1.2509
19935TIP3    H281297   1.487   2.926   1.443  1.5604  1.7138  0.5721
19936TIP3   OH281298   3.456   2.282  12.310  0.5936 -0.2895  0.2249
19936TIP3    H181299   3.397   2.347  12.348  0.1412 -1.1064  0.9314
19936TIP3    H281300   3.400   2.229  12.253  0.5098 -1.4201  1.3277
19937TIP3   OH281301   0.816   5.596  16.427 -0.4143 -0.0799 -0.7597
19937TIP3    H181302   0.869   5.523  16.461 -3.3549 -2.5827 -1.0697
19937TIP3    H281303   0.847   5.608  16.338  1.3850  0.4054 -0.1093
19938TIP3   OH281304   2.104   0.483   5.259 -0.0907 -0.3232 -0.2611
19938TIP3    H181305   2.140   0.398   5.232 -1.0468 -1.0431  0.6516
19938TIP3    H281306   2.104   0.535   5.179  1.0380 -0.9855 -0.7189
19939TIP3   OH281307   2.075   2.865  12.381  0.5024  0.3818  0.2288
19939TIP3    H181308   2.001   2.814  12.348  1.3173  0.7121 -2.3013
19939TIP3    H281309   2.052   2.886  12.472 -2.2957  0.1050 -0.3496
19940TIP3   OH281310   1.329   6.818   0.152 -0.6398  0.2318  0.3405
19940TIP3    H181311   1.365   6.739   0.113 -0.4973  0.2356  0.4655
19940TIP3    H281312   1.341   6.806   0.246  0.7622  1.0722  0.2972
19941TIP3   OH281313   0.920   1.639  14.455 -0.0373  0.4405  0.1549
19941TIP3    H181314   0.921   1.634  14.359  1.2042 -2.2367  0.2096
19941TIP3    H281315   0.842   1.591  14.481  0.6048 -0.4559  0.4800
19942TIP3   OH281316   5.096   1.436  15.301 -0.0692 -0.0233  0.1476
19942TIP3    H181317   5.065   1.473  15.384  1.9114  1.2433  0.3719
19942TIP3    H281318   5.052   1.351  15.295 -1.2411  0.4106  1.8518
19943TIP3   OH281319   0.760   6.234  13.098  0.4296  0.3844  0.1838
19943TIP3    H181320   0.757   6.139  13.108  1.8577  0.2697 -0.3902
19943TIP3    H281321   0.795   6.248  13.010  1.1898  1.4485  0.6465
19944TIP3   OH281322   6.647   0.094  12.548  0.0172  0.1815 -0.0255
19944TIP3    H181323   6.725   0.114  12.497 -1.6176 -0.4077 -2.9668
19944TIP3    H281324   6.626   0.003  12.527 -2.2466  0.7520 -0.5007
19945TIP3   OH281325   0.562   1.025  12.499 -0.1868  0.6936 -0.0903
19945TIP3    H181326   0.477   1.062  12.521 -0.7689 -0.4389 -0.3950
19945TIP3    H281327   0.618   1.102  12.484 -0.8961  1.4573  0.9983
19946TIP3   OH281328   6.139   1.567   3.187  0.3277  0.3336 -0.0612
19946TIP3    H181329   6.107   1.565   3.096  0.8720  1.1714 -0.2806
19946TIP3    H281330   6.210   1.504   3.189 -1.4861 -1.8116  0.5168
19947TIP3   OH281331   4.250   6.042  12.392 -0.4015  0.3630 -0.4467
19947TIP3    H181332   4.318   5.975  12.395 -0.4816  0.3158  2.3257
19947TIP3    H281333   4.172   5.995  12.361 -0.6316 -1.0757  2.0926
19948TIP3   OH281334   1.407   3.547   3.260  0.0581  0.2391 -0.6924
19948TIP3    H181335   1.452   3.621   3.221  0.1187  0.4707 -0.1823
19948TIP3    H281336   1.338   3.586   3.314 -1.0042 -0.1113 -1.7420
19949TIP3   OH281337   6.489   3.071   5.725 -0.2628 -1.3338  0.2053
19949TIP3    H181338   6.493   3.167   5.719  0.4727 -1.3260  0.7502
19949TIP3    H281339   6.432   3.054   5.800 -0.5687 -1.3281 -0.0246
19950TIP3   OH281340   2.425   2.743  14.361  0.0101 -0.5150  0.1063
19950TIP3    H181341   2.427   2.648  14.375 -0.6934 -0.7286 -1.1367
19950TIP3    H281342   2.516   2.771  14.370  0.7647 -1.7949 -2.6602
19951TIP3   OH281343   2.140   6.195  13.075  0.3291  0.2627  0.3950
19951TIP3    H181344   2.151   6.286  13.101 -0.9371  0.7264 -0.5708
19951TIP3    H281345   2.191   6.187  12.994  0.2715  0.1536  0.3690
19952TIP3   OH281346   3.313   1.626  13.289 -0.6064  0.0748 -0.3765
19952TIP3    H181347   3.240   1.647  13.230 -1.5667  0.6081  0.9523
19952TIP3    H281348   3.374   1.699  13.279 -1.6330  1.1072  0.6113
19953TIP3   OH281349   3.691   6.821  15.437 -0.1313 -0.0506  0.2929
19953TIP3    H181350   3.638   6.850  15.363  0.0231  0.9113  0.5513
19953TIP3    H281351   3.781   6.821  15.404 -0.0342  0.6092  0.5333
19954TIP3   OH281352   5.121   6.064   1.459 -0.6973 -0.1993  0.0753
19954TIP3    H181353   5.199   6.011   1.477  0.7987  1.7781 -0.3212
19954TIP3    H281354   5.118   6.070   1.363  0.7023  2.4938  0.1115
19955TIP3   OH281355   6.775   3.846  14.739  0.2577 -1.0089 -0.2158
19955TIP3    H181356   6.805   3.770  14.790  1.1107 -1.4134 -1.2704
19955TIP3    H281357   6.747   3.910  14.805  3.4215 -0.6105  0.9085
19956TIP3   OH281358   0.679   6.004  11.204 -0.1859  0.3004  0.3644
19956TIP3    H181359   0.588   5.977  11.202 -0.4961  1.2297  1.0789
19956TIP3    H281360   0.727   5.933  11.163 -1.2358 -0.1899 -0.0256
19957TIP3   OH281361   3.683   0.666   0.202 -0.2056  0.1432 -0.3403
19957TIP3    H181362   3.644   0.752   0.184  0.1722  0.7234  1.4044
19957TIP3    H281363   3.765   0.667   0.153 -0.4967  0.5185 -0.8361
19958TIP3   OH281364   0.854   6.468  10.993 -0.2812 -0.7241 -0.1326
19958TIP3    H181365   0.770   6.513  10.984 -0.2349 -0.3175  1.2532
19958TIP3    H281366   0.911   6.510  10.929 -0.6966  0.0982  0.0304
19959TIP3   OH281367   4.770   1.193   0.901  0.1824 -0.3305 -0.2176
19959TIP3    H181368   4.839   1.207   0.836 -0.2197  4.0533 -0.0043
19959TIP3    H281369   4.802   1.237   0.980 -2.0416  0.1814  0.4718
19960TIP3   OH281370   5.394   3.699  15.191 -0.0131 -0.1385  0.1357
19960TIP3    H181371   5.443   3.623  15.224 -0.0460 -0.7304 -1.1421
19960TIP3    H281372   5.354   3.737  15.269 -1.3770 -2.4155  0.6312
19961TIP3   OH281373   2.146   4.651   0.914 -0.0209 -0.1543 -0.2470
19961TIP3    H181374   2.178   4.678   1.000  2.1971 -1.8444 -0.4525
19961TIP3    H281375   2.054   4.631   0.928  0.0448  0.5873  1.4886
19962TIP3   OH281376   2.360   1.935   4.598 -0.5388  0.4257 -0.3732
19962TIP3    H181377   2.264   1.940   4.597 -0.5940 -0.4604 -1.4433
19962TIP3    H281378   2.381   1.868   4.533  0.8539  1.3931 -0.9689
19963TIP3   OH281379   6.045   6.620  14.322 -0.4254  0.4327 -0.2918
19963TIP3    H181380   6.063   6.696  14.267  0.1381  0.1735 -0.4739
19963TIP3    H281381   6.131   6.591  14.353 -0.3728 -1.4041 -1.9394
19964TIP3   OH281382   1.127   5.252  15.405 -0.2700  0.6039  0.1753
19964TIP3    H181383   1.054   5.214  15.455  0.5185 -0.7698  0.3550
19964TIP3    H281384   1.128   5.203  15.323  0.2006  0.8799  0.0124
19965TIP3   OH281385   3.708   1.869  11.715  0.5494  0.3689 -0.2267
19965TIP3    H181386   3.632   1.810  11.722  1.7572 -1.3839 -1.0966
19965TIP3    H281387   3.738   1.879  11.805  0.8316 -1.0985 -0.1297
19966TIP3   OH281388   5.301   5.219   0.376 -0.2772  0.2603 -0.5890
19966TIP3    H181389   5.218   5.264   0.387 -0.4853 -0.1520 -0.4368
19966TIP3    H281390   5.332   5.202   0.465 -0.0086  0.4502 -0.6440
19967TIP3   OH281391   0.064   1.251   5.247 -0.1868  0.6410  0.0311
19967TIP3    H181392   0.019   1.171   5.219  2.4536 -1.3428  1.0652
19967TIP3    H281393   0.153   1.242   5.213  0.9170  1.8702  2.3567
19968TIP3   OH281394   1.654   4.211   5.721  0.1216  0.1602  0.0108
19968TIP3    H181395   1.616   4.288   5.763 -0.5449  0.3865 -0.9737
19968TIP3    H281396   1.587   4.143   5.730  1.0710 -0.6310  1.7049
19969TIP3   OH281397   2.060   5.173   2.447 -0.0962  0.0867  0.4224
19969TIP3    H181398   1.991   5.163   2.512 -0.4424  0.9114  0.1870
19969TIP3    H281399   2.097   5.259   2.464 -0.1776  0.3007 -0.4674
19970TIP3   OH281400   2.413   0.843   2.137  0.4324 -0.7420 -0.0262
19970TIP3    H181401   2.355   0.899   2.189  2.1469 -1.0017  2.3108
19970TIP3    H281402   2.387   0.860   2.046 -0.7494  1.9653  0.7070
19971TIP3   OH281403   0.898   3.295  12.014 -0.4666  0.0050  0.3967
19971TIP3    H181404   0.973   3.353  12.007 -0.8254  0.4095 -0.2497
19971TIP3    H281405   0.877   3.273  11.923 -1.6902  0.6318  0.5134
19972TIP3   OH281406   1.344   3.809   0.074 -0.2121 -0.2342  0.1533
19972TIP3    H181407   1.407   3.760   0.127 -0.4692 -0.0540  0.6395
19972TIP3    H281408   1.336   3.893   0.119  0.2879  0.2986 -0.7181
19973TIP3   OH281409   0.587   3.163   4.570  0.0433  0.0736  0.6041
19973TIP3    H181410   0.535   3.143   4.492  3.1927  1.5474 -2.1360
19973TIP3    H281411   0.537   3.231   4.615 -1.0137  0.5662 -1.1920
19974TIP3   OH281412   3.496   0.129  10.876  0.1677 -0.2144 -0.3872
19974TIP3    H181413   3.558   0.168  10.814 -0.0190  0.5969 -0.0725
19974TIP3    H281414   3.447   0.065  10.823  1.4054 -1.0241 -0.5846
19975TIP3   OH281415   6.457   2.665  14.459 -0.2037  0.1828  0.5263
19975TIP3    H181416   6.427   2.733  14.520  1.3215  3.0858 -1.7016
19975TIP3    H281417   6.548   2.648  14.483  0.3404  1.1850 -0.6584
19976TIP3   OH281418   1.205   5.371  12.153  0.3649  0.4288 -0.6057
19976TIP3    H181419   1.198   5.465  12.167 -1.1264  0.1964  0.5037
19976TIP3    H281420   1.296   5.357  12.126  0.7592  2.1123 -0.2452
19977TIP3   OH281421   4.559   2.051  12.177  0.5326  0.1491  0.8187
19977TIP3    H181422   4.476   2.019  12.212  0.2877  1.1636  1.2160
19977TIP3    H281423   4.563   2.143  12.206  1.7837  0.1172  0.8016
19978TIP3   OH281424   6.444   4.682  15.889 -0.6434  0.2554 -0.3245
19978TIP3    H181425   6.473   4.773  15.889 -0.1928  0.1237 -1.1081
19978TIP3    H281426   6.525   4.631  15.883 -0.9755 -0.1131 -3.3002
19979TIP3   OH281427   1.814   2.936   4.485 -0.3707 -0.2188  0.3124
19979TIP3    H181428   1.733   2.886   4.484  0.3360 -1.3916 -1.0105
19979TIP3    H281429   1.880   2.877   4.449  0.7894  1.1712  0.0494
19980TIP3   OH281430   1.766   0.323  13.599  0.5060 -0.1658  0.6910
19980TIP3    H181431   1.723   0.250  13.554  0.3085  0.8261 -0.7901
19980TIP3    H281432   1.835   0.281  13.650  0.3627 -1.4013 -0.0779
19981TIP3   OH281433   4.512   0.678  13.372 -0.3745  0.3451  0.2983
19981TIP3    H181434   4.483   0.699  13.461 -0.0270 -0.5934  0.6383
19981TIP3    H281435   4.531   0.584  13.374  1.8008  0.7355 -0.1706
19982TIP3   OH281436   2.016   4.359  11.856  0.6079  0.1033  0.0083
19982TIP3    H181437   1.983   4.374  11.768 -0.0604  1.2258  0.4230
19982TIP3    H281438   1.951   4.401  11.913  1.9556  0.9807  0.9337
19983TIP3   OH281439   0.238   3.285   1.530 -0.0400 -0.1387  0.4012
19983TIP3    H181440   0.241   3.379   1.511 -0.4172 -0.0905  0.5706
19983TIP3    H281441   0.316   3.269   1.583  0.5201 -0.0986 -0.3986
19984TIP3   OH281442   2.854   4.924   4.080 -0.3062 -0.2811 -0.2689
19984TIP3    H181443   2.825   4.958   4.165 -3.1659 -2.3114 -0.3026
19984TIP3    H281444   2.949   4.914   4.090 -0.4377  0.3689  2.3598
19985TIP3   OH281445   4.953   6.783   5.918  0.3437  0.1744 -0.0748
19985TIP3    H181446   5.040   6.820   5.901  0.5438 -0.2509  0.0187
19985TIP3    H281447   4.912   6.779   5.832  0.4054  0.3960 -0.1163
19986TIP3   OH281448   4.025   3.641   2.395  0.6955 -0.1154 -0.0957
19986TIP3    H181449   3.960   3.658   2.463  1.3784 -1.7928  1.0192
19986TIP3    H281450   4.102   3.692   2.421  0.7959 -0.3785  0.1169
19987TIP3   OH281451   0.347   6.282   4.370  0.4525  0.6293  0.5131
19987TIP3    H181452   0.363   6.187   4.370  0.9708  0.6692 -1.7500
19987TIP3    H281453   0.433   6.320   4.355 -0.2661  1.2213 -2.8988
19988TIP3   OH281454   4.828   5.419   3.912 -0.0400 -0.1640 -0.0248
19988TIP3    H181455   4.910   5.441   3.868  0.2613 -1.3526 -0.1103
19988TIP3    H281456   4.855   5.384   3.997 -0.5906  1.5804  0.9152
19989TIP3   OH281457   3.255   2.787   5.633  0.9294  0.2133  0.3145
19989TIP3    H181458   3.330   2.833   5.596  1.4820  0.7738  2.0648
19989TIP3    H281459   3.231   2.838   5.710 -0.5994 -0.5561  0.3893
19990TIP3   OH281460   2.172   2.778   3.599 -0.0903 -0.2922 -0.4686
19990TIP3    H181461   2.172   2.687   3.628 -2.8188 -0.7492 -1.5422
19990TIP3    H281462   2.236   2.780   3.528  2.6757 -0.4090  1.8305
19991TIP3   OH281463   3.695   2.748   0.235 -0.1191  0.2547 -0.2949
19991TIP3    H181464   3.644   2.829   0.234  0.9305  0.9340 -0.5411
19991TIP3    H281465   3.786   2.777   0.226  0.2302 -0.9872 -0.9527
19992TIP3   OH281466   5.699   2.052   6.570  0.4665  0.1601 -0.1255
19992TIP3    H181467   5.770   2.042   6.633 -0.6150 -1.0794  0.9348
19992TIP3    H281468   5.740   2.034   6.485  1.0816 -2.5376  0.6406
19993TIP3   OH281469   5.967   3.181   0.479  0.0228 -0.3243 -0.4450
19993TIP3    H181470   6.061   3.173   0.460 -0.0168  1.8293 -1.9146
19993TIP3    H281471   5.926   3.117   0.420  0.4636  0.2531 -1.4081
19994TIP3   OH281472   4.096   4.620  16.774 -0.2742  0.4432 -0.3082
19994TIP3    H181473   4.116   4.590  16.685  0.1995 -0.9830  0.2564
19994TIP3    H281474   4.166   4.682  16.794 -0.4402  0.8529 -0.9593
19995TIP3   OH281475   3.240   2.917  10.866  0.0949 -0.3134 -0.0673
19995TIP3    H181476   3.194   2.998  10.886 -0.4227 -0.5677 -0.1808
19995TIP3    H281477   3.170   2.852  10.857  0.5865 -1.1207  1.6022
19996TIP3   OH281478   6.070   2.975  15.750 -0.3652  0.4322 -0.2520
19996TIP3    H181479   5.978   2.997  15.768 -1.0134 -2.0959 -0.1714
19996TIP3    H281480   6.066   2.896  15.697  1.7305 -1.7621  2.5452
19997TIP3   OH281481   0.674   6.497   5.512 -0.5909 -0.7782  0.1865
19997TIP3    H181482   0.617   6.441   5.566 -0.1784  0.3309  1.8432
19997TIP3    H281483   0.618   6.571   5.489 -0.0343  0.0045  1.2861
19998TIP3   OH281484   5.205   5.535   2.790 -0.1516 -0.2047 -0.1807
19998TIP3    H181485   5.162   5.620   2.803 -2.0048 -1.4074  2.1871
19998TIP3    H281486   5.137   5.478   2.755  0.9995 -0.8429 -1.4866
19999TIP3   OH281487   4.355   4.866  14.515 -0.1554 -0.0725  0.4926
19999TIP3    H181488   4.267   4.900  14.529 -1.0192 -1.4446 -1.2420
19999TIP3    H281489   4.355   4.781  14.560  0.0244 -0.4095 -0.1264
20000TIP3   OH281490   1.227   5.467  13.777 -0.1527  0.5043 -0.7767
20000TIP3    H181491   1.237   5.534  13.710  2.3415  0.3228 -0.6623
20000TIP3    H281492   1.277   5.392  13.744 -1.0553 -0.5231  0.1064
20001TIP3   OH281493   3.756   4.618   3.785 -0.3483  0.0108  0.2795
20001TIP3    H181494   3.743   4.710   3.807 -0.3421  0.0058  0.3049
20001TIP3    H281495   3.669   4.587   3.761 -0.4227 -0.0718  0.6381
20002TIP3   OH281496   4.822   1.840  14.338  0.0848  0.4393 -0.0974
20002TIP3    H181497   4.904   1.880  14.308  0.3628 -0.4665 -0.5775
20002TIP3    H281498   4.755   1.906  14.317  0.5223  0.6331 -0.9587
20003TIP3   OH281499   0.289   1.343  14.519  0.0849  0.2539  0.0158
20003TIP3    H181500   0.258   1.396  14.593  0.0451  0.6807 -0.2996
20003TIP3    H281501   0.258   1.391  14.442 -0.0156 -0.2756 -0.2727
20004TIP3   OH281502   5.916   3.469  14.502  0.2686 -0.5507  0.2027
20004TIP3    H181503   5.943   3.400  14.442 -1.7938 -0.9167 -0.3856
20004TIP3    H281504   5.877   3.423  14.577 -0.1142 -0.0511  0.3187
20005TIP3   OH281505   2.545   0.287  11.699  0.1052 -0.5279  0.8081
20005TIP3    H181506   2.574   0.368  11.657  1.2789 -0.8662  0.9552
20005TIP3    H281507   2.532   0.226  11.626 -0.3360 -0.3634  0.7397
20006TIP3   OH281508   2.478   2.769  15.352 -0.1629 -0.2724 -0.6619
20006TIP3    H181509   2.389   2.740  15.374 -1.1774  2.8763 -0.0126
20006TIP3    H281510   2.476   2.782  15.257 -0.3396 -0.4169 -0.6787
20007TIP3   OH281511   6.428   4.237   3.178  0.2989 -0.4284  0.5667
20007TIP3    H181512   6.343   4.279   3.185 -0.0781 -0.6766 -1.8021
20007TIP3    H281513   6.409   4.143   3.179  0.6121 -0.4942  0.5195
20008TIP3   OH281514   1.531   6.500   1.596 -0.3021  0.0677  0.0045
20008TIP3    H181515   1.585   6.540   1.664 -1.3010 -0.1991  0.9822
20008TIP3    H281516   1.586   6.429   1.561  1.7278  2.5010 -2.1500
20009TIP3   OH281517   2.096   6.590   0.795 -0.3199 -0.2192 -0.4785
20009TIP3    H181518   2.160   6.526   0.763 -1.1900 -0.8239 -1.0503
20009TIP3    H281519   2.029   6.537   0.838  0.0712  0.4724  1.0794
20010TIP3   OH281520   1.207   3.082  12.116 -0.1672  0.1617 -0.0925
20010TIP3    H181521   1.266   3.019  12.075 -0.7336  0.5088 -1.4932
20010TIP3    H281522   1.187   3.145  12.046 -2.8607 -0.4162  0.0504
20011TIP3   OH281523   3.848   6.504  16.155  0.4239  0.0076  0.8436
20011TIP3    H181524   3.766   6.460  16.174  0.2944 -0.9484 -1.5160
20011TIP3    H281525   3.823   6.575  16.095  1.2560 -0.1613  0.2736
20012TIP3   OH281526   5.107   1.235  14.493 -0.6922  0.2155  0.2693
20012TIP3    H181527   5.062   1.169  14.546 -0.3861 -0.3949 -0.2249
20012TIP3    H281528   5.086   1.318  14.536  0.5378 -0.3412  2.0769
20013TIP3   OH281529   2.291   2.619  16.150  0.0115 -0.0442  0.5543
20013TIP3    H181530   2.290   2.712  16.128 -0.4636  0.2533  1.7715
20013TIP3    H281531   2.250   2.577  16.074 -1.1957  0.9024  0.6393
20014TIP3   OH281532   3.582   1.132   4.031  0.0706  0.3846  0.2145
20014TIP3    H181533   3.515   1.117   4.097 -0.8016  0.5380 -0.6109
20014TIP3    H281534   3.535   1.127   3.947  1.2597 -0.4839 -0.4383
20015TIP3   OH281535   4.929   1.778  11.357  0.1460  0.0154  0.1159
20015TIP3    H181536   4.864   1.773  11.427  0.0715 -1.3051 -0.0350
20015TIP3    H281537   4.961   1.869  11.361  0.0782 -0.0059  1.7864
20016TIP3   OH281538   5.020   1.900  16.650 -0.3791 -0.1702 -0.0812
20016TIP3    H181539   4.984   1.876  16.735 -2.1017  4.3453  0.7416
20016TIP3    H281540   4.967   1.852  16.586 -1.2700 -1.1109  1.3143
20017TIP3   OH281541   3.514   5.497  12.369 -0.2947  0.0848 -0.4994
20017TIP3    H181542   3.587   5.439  12.394  0.9314  0.5830 -2.6730
20017TIP3    H281543   3.557   5.576  12.335 -1.8172  0.1988 -2.2940
20018TIP3   OH281544   2.054   3.794  16.415 -0.1175  0.6035  0.1224
20018TIP3    H181545   1.995   3.732  16.459 -1.9550  1.4485 -1.0442
20018TIP3    H281546   2.005   3.877  16.414  0.8229  1.1782 -1.4742
20019TIP3   OH281547   2.080   2.454  12.445 -0.7727  0.5363  0.0282
20019TIP3    H181548   2.154   2.413  12.401 -0.5314  1.9026 -0.8952
20019TIP3    H281549   2.037   2.506  12.376 -1.0586  1.8104  1.1304
20020TIP3   OH281550   1.278   1.619  11.360 -0.0326 -0.5639 -0.3495
20020TIP3    H181551   1.249   1.539  11.403 -0.2242  0.0372  0.6654
20020TIP3    H281552   1.292   1.593  11.269  1.9410 -2.2610  0.3655
20021TIP3   OH281553   4.399   5.101  15.012  0.3228  0.3692 -0.6549
20021TIP3    H181554   4.463   5.108  14.942 -1.1350 -1.2663 -2.2755
20021TIP3    H281555   4.398   5.008  15.034 -0.6068  0.5608  0.1824
20022TIP3   OH281556   3.163   0.464  13.799  0.2711  0.5851  0.1651
20022TIP3    H181557   3.218   0.442  13.725 -1.8607 -0.1415 -1.2965
20022TIP3    H281558   3.082   0.415  13.785 -0.6489  1.2996  2.3912
20023TIP3   OH281559   2.597   4.380  12.844 -0.1784 -0.1154  0.3649
20023TIP3    H181560   2.580   4.300  12.893  0.7547 -0.6174 -0.0967
20023TIP3    H281561   2.516   4.429  12.849 -0.8592 -1.2187  0.4271
20024TIP3   OH281562   3.597   3.274   1.409  0.0721  0.0316  0.0474
20024TIP3    H181563   3.617   3.202   1.469 -0.0880  0.3560  0.4941
20024TIP3    H281564   3.542   3.334   1.460  0.3321  0.5475 -0.2630
20025TIP3   OH281565   3.522   5.147   5.198  0.1361 -0.1877 -0.0949
20025TIP3    H181566   3.552   5.139   5.107  0.7950  2.0970 -0.1411
20025TIP3    H281567   3.479   5.063   5.216 -0.9920 -0.3217 -2.8678
20026TIP3   OH281568   3.735   4.592   1.135  0.4913 -0.8236 -0.3672
20026TIP3    H181569   3.790   4.639   1.073  0.2824  2.1532  1.5085
20026TIP3    H281570   3.797   4.550   1.195  0.7116 -0.4643 -0.3400
20027TIP3   OH281571   6.452   5.660  11.679 -0.7253 -0.1294 -0.3088
20027TIP3    H181572   6.525   5.627  11.627  0.8229  1.2406  0.8732
20027TIP3    H281573   6.445   5.752  11.656 -0.9283  0.1608  0.8338
20028TIP3   OH281574   4.081   1.563  17.031  0.0023 -0.5518 -0.3907
20028TIP3    H181575   4.050   1.473  17.033  0.7449 -0.8145  1.3230
20028TIP3    H281576   4.147   1.567  17.101 -0.2448  1.3938 -0.2163
20029TIP3   OH281577   0.514   6.291  13.664 -0.4703  0.4185  0.0132
20029TIP3    H181578   0.422   6.304  13.686 -0.1463  2.2105  0.4746
20029TIP3    H281579   0.530   6.352  13.592 -0.0048 -0.9957 -1.1306
20030TIP3   OH281580   1.994   4.869  14.282  0.0879 -0.0507 -0.4394
20030TIP3    H181581   1.997   4.806  14.210 -1.4448 -1.0877  0.3363
20030TIP3    H281582   2.083   4.867  14.318  0.4845 -0.5928 -1.4008
20031TIP3   OH281583   0.019   5.435  10.963 -0.7163  0.6887  0.0758
20031TIP3    H181584   0.101   5.459  11.007 -0.7626 -0.1269  0.6316
20031TIP3    H281585   0.040   5.439  10.870  0.7229 -1.8967  0.2015
20032TIP3   OH281586   4.861   4.315  13.151  0.1254  0.4565  0.3528
20032TIP3    H181587   4.806   4.393  13.158 -0.3034  0.2802 -0.9004
20032TIP3    H281588   4.949   4.345  13.174 -0.2509  1.0341  1.0718
20033TIP3   OH281589   0.045   2.299  14.032  0.2569  0.2511 -0.0152
20033TIP3    H181590   0.011   2.252  13.956  2.3617  0.3140 -1.0596
20033TIP3    H281591   0.058   2.231  14.098 -1.4190  0.1694  0.2684
20034TIP3   OH281592   4.430   2.235  11.166  0.1501  0.0514  0.0648
20034TIP3    H181593   4.393   2.152  11.136 -1.4562 -0.0325  2.0971
20034TIP3    H281594   4.490   2.212  11.236  1.3501  0.4908 -0.7741
20035TIP3   OH281595   3.901   3.894  10.965 -0.3674 -0.0964  0.1115
20035TIP3    H181596   3.937   3.876  11.052  0.9903  0.6791 -0.2619
20035TIP3    H281597   3.932   3.823  10.910  2.0378  1.3531 -0.5640
20036TIP3   OH281598   3.989   2.485  11.141  0.8079  0.3523 -0.9493
20036TIP3    H181599   3.941   2.560  11.178  0.2355 -0.1624 -0.6140
20036TIP3    H281600   4.027   2.518  11.060 -1.0446  0.5117 -1.8201
20037TIP3   OH281601   0.138   3.271  13.901  0.5272 -0.2166  0.0374
20037TIP3    H181602   0.215   3.319  13.931 -1.3257  1.6099  2.2987
20037TIP3    H281603   0.109   3.221  13.977 -0.5068 -0.8929 -0.7667
20038TIP3   OH281604   6.665   5.614  15.408  0.8193  0.0486 -0.4414
20038TIP3    H181605   6.590   5.554  15.411 -0.4183  1.6032  1.4334
20038TIP3    H281606   6.732   5.571  15.462  0.2987 -0.1064  0.0901
20039TIP3   OH281607   1.905   0.964   4.148 -0.2547  0.0048  0.4604
20039TIP3    H181608   1.969   0.896   4.167  0.4581  0.3119 -0.7580
20039TIP3    H281609   1.953   1.030   4.099 -1.3900  0.4702 -0.0703
20040TIP3   OH281610   3.809   4.505  16.594  0.0183  0.0983 -0.7076
20040TIP3    H181611   3.798   4.584  16.646  0.9031  0.2002 -0.6577
20040TIP3    H281612   3.720   4.473  16.580 -0.2502  0.1482  0.7408
20041TIP3   OH281613   3.563   2.015  12.205  0.4740  0.4345  0.4946
20041TIP3    H181614   3.606   2.045  12.285 -0.1345  0.6462  0.7495
20041TIP3    H281615   3.552   2.094  12.153  1.6723  0.1634 -0.2001
20042TIP3   OH281616   1.055   3.832   3.160  0.3022 -0.1634 -0.3378
20042TIP3    H181617   1.050   3.742   3.127  0.0585  0.1356 -1.1614
20042TIP3    H281618   1.044   3.886   3.082  0.4139  0.5838  0.1540
20043TIP3   OH281619   4.701   4.031   4.018  0.0954  0.1524 -0.0423
20043TIP3    H181620   4.753   4.025   4.098 -0.2389  2.1683  0.3750
20043TIP3    H281621   4.661   3.944   4.009 -1.0923  0.2682  2.8603
20044TIP3   OH281622   2.002   3.184   3.036  0.5254  0.4227  0.0700
20044TIP3    H181623   1.938   3.251   3.062  1.7652  2.0723 -0.9577
20044TIP3    H281624   2.062   3.229   2.977  2.3163 -1.2296  0.5182
20045TIP3   OH281625   4.130   3.602  14.437  0.0007  0.6465  0.2312
20045TIP3    H181626   4.200   3.598  14.371 -1.1744 -1.1416 -1.0101
20045TIP3    H281627   4.118   3.511  14.464 -2.0493  0.8452  0.1520
20046TIP3   OH281628   5.328   2.395  14.131 -0.1093  0.3423 -0.0299
20046TIP3    H181629   5.349   2.330  14.198 -0.1448 -0.8209 -1.1089
20046TIP3    H281630   5.237   2.420  14.151 -0.0954  0.0713  0.4051
20047TIP3   OH281631   5.035   6.533   3.287 -0.0937 -0.3219  0.8007
20047TIP3    H181632   4.984   6.456   3.309  1.6484 -2.6344 -2.4638
20047TIP3    H281633   5.116   6.524   3.338 -0.2328 -0.1965  1.0445
20048TIP3   OH281634   1.216   4.518   0.327  0.0761  0.0389  0.5775
20048TIP3    H181635   1.250   4.433   0.298 -2.4844 -1.5559  1.8489
20048TIP3    H281636   1.198   4.566   0.247 -0.5617 -1.5605 -0.2771
20049TIP3   OH281637   4.352   5.752  17.035 -0.4511  0.1591  0.2615
20049TIP3    H181638   4.262   5.774  17.011 -0.9665 -0.8913  1.1368
20049TIP3    H281639   4.383   5.696  16.963  0.1177  1.8807 -0.8856
20050TIP3   OH281640   1.204   2.347   3.154 -0.2230 -0.3608 -0.7053
20050TIP3    H181641   1.273   2.281   3.145  0.1431  0.0051 -0.6167
20050TIP3    H281642   1.155   2.320   3.231  0.2317 -0.2589 -0.3765
20051TIP3   OH281643   4.939   0.651   0.408  0.4143 -0.9782  0.4170
20051TIP3    H181644   4.954   0.577   0.466 -0.5204 -0.4672  1.3510
20051TIP3    H281645   4.998   0.719   0.440 -0.6042 -0.4588  1.2569
20052TIP3   OH281646   4.172   0.400   2.506  0.4606  0.6169 -0.0471
20052TIP3    H181647   4.137   0.444   2.584  2.0109  1.1140  0.3979
20052TIP3    H281648   4.201   0.472   2.450  2.8297  0.2417  0.5913
20053TIP3   OH281649   0.994   3.384  11.136 -0.2745 -0.6161  0.1535
20053TIP3    H181650   1.086   3.393  11.161 -0.7050  0.6908  1.4232
20053TIP3    H281651   0.992   3.408  11.043  0.4257  1.3304  0.5801
20054TIP3   OH281652   2.729   6.021   1.586 -0.7600 -0.0388 -0.0841
20054TIP3    H181653   2.750   6.110   1.557  0.6083 -0.3314 -0.0683
20054TIP3    H281654   2.704   6.032   1.678 -0.9384  0.3780 -0.1804
20055TIP3   OH281655   4.281   6.523   4.040  0.5061  0.0371  0.0526
20055TIP3    H181656   4.275   6.558   4.128  1.8420  1.5851 -0.4204
20055TIP3    H281657   4.337   6.447   4.048  0.8434  0.3280  0.5070
20056TIP3   OH281658   2.363   3.269   1.466  0.4206  0.0256 -0.6162
20056TIP3    H181659   2.377   3.363   1.477 -0.5104  0.1448 -0.3729
20056TIP3    H281660   2.306   3.244   1.540  1.8487 -1.0134  0.1926
20057TIP3   OH281661   6.485   1.692  13.901 -0.2648 -0.5992 -0.3171
20057TIP3    H181662   6.403   1.712  13.855 -0.5019  0.0817  0.3843
20057TIP3    H281663   6.505   1.771  13.950  0.2081 -1.1634  0.4202
20058TIP3   OH281664   3.995   2.883   2.792 -0.4223  0.3551 -1.1421
20058TIP3    H181665   3.922   2.848   2.742 -1.1568 -1.4790  1.0173
20058TIP3    H281666   3.955   2.928   2.866  0.5657 -1.1011  0.3519
20059TIP3   OH281667   1.315   0.847  10.796 -0.0687 -0.8546 -0.2317
20059TIP3    H181668   1.295   0.846  10.703  0.3906 -0.2212 -0.3424
20059TIP3    H281669   1.410   0.832  10.801  0.3334  1.4306 -0.0083
20060TIP3   OH281670   4.710   4.431  12.897  0.4074 -0.0715 -0.0953
20060TIP3    H181671   4.770   4.391  12.834 -0.5797 -0.3536 -0.8708
20060TIP3    H281672   4.718   4.525  12.881  0.2190 -0.1391 -0.5817
20061TIP3   OH281673   0.322   0.154  12.260 -0.3343  0.1173 -0.1780
20061TIP3    H181674   0.417   0.164  12.262 -0.5053  1.9568  0.1260
20061TIP3    H281675   0.291   0.215  12.193 -1.3243 -0.2979 -0.1304
20062TIP3   OH281676   3.265   6.243  12.592  0.0254  0.4692 -0.2471
20062TIP3    H181677   3.253   6.333  12.621 -0.1831  0.4140 -0.1575
20062TIP3    H281678   3.176   6.212  12.573 -0.3282 -0.7878  2.8465
20063TIP3   OH281679   6.344   5.428  13.166  0.4592 -0.0729 -0.2020
20063TIP3    H181680   6.353   5.368  13.241  1.5061  1.2106  0.7501
20063TIP3    H281681   6.347   5.371  13.089  0.9874 -1.2820  0.6754
20064TIP3   OH281682   3.028   0.165  15.597  0.6524 -0.2291 -0.7660
20064TIP3    H181683   3.091   0.228  15.633  1.1886 -1.2434  0.1649
20064TIP3    H281684   2.987   0.211  15.524  0.5511  1.4280  0.2703
20065TIP3   OH281685   1.544   0.735  17.088  0.4642 -0.1932  0.4274
20065TIP3    H181686   1.610   0.803  17.075 -0.1334  0.2905 -0.1014
20065TIP3    H281687   1.513   0.715  17.000  0.1271 -0.6440  0.6469
20066TIP3   OH281688   0.931   4.382  14.123 -0.3822  0.3140 -0.2747
20066TIP3    H181689   0.980   4.458  14.092  0.4197 -0.4920 -1.0336
20066TIP3    H281690   0.998   4.321  14.153 -1.0180 -0.1154  0.3069
20067TIP3   OH281691   2.289   6.686   1.396 -0.7698  0.3748 -0.1129
20067TIP3    H181692   2.369   6.663   1.349 -0.4868  2.9689 -1.0682
20067TIP3    H281693   2.227   6.710   1.327 -2.5359 -1.8337  0.5954
20068TIP3   OH281694   6.200   3.833  15.755  0.0054 -0.1807  0.1021
20068TIP3    H181695   6.194   3.838  15.660  1.2628  1.5371  0.0658
20068TIP3    H281696   6.110   3.820  15.784 -0.6197  0.9108 -1.2527
20069TIP3   OH281697   2.167   5.669  16.764  0.0709  0.0668 -0.4692
20069TIP3    H181698   2.117   5.587  16.759  1.3769 -0.7821 -0.2305
20069TIP3    H281699   2.210   5.676  16.679 -1.4614  1.4908 -1.1669
20070TIP3   OH281700   2.202   2.583   3.847  0.0876 -0.3091 -0.1454
20070TIP3    H181701   2.118   2.572   3.891 -0.3374  0.7192 -0.6583
20070TIP3    H281702   2.229   2.494   3.825 -0.5643 -0.6973  0.5790
20071TIP3   OH281703   2.866   6.171  16.479  0.2186  0.4537 -0.5083
20071TIP3    H181704   2.881   6.227  16.555  0.1209  0.7157 -0.6795
20071TIP3    H281705   2.951   6.129  16.463  0.6406  1.5149 -1.1388
20072TIP3   OH281706   1.209   1.579  11.988 -0.7243 -0.0282  0.0347
20072TIP3    H181707   1.245   1.491  12.004 -0.5317  0.1850  0.8363
20072TIP3    H281708   1.115   1.570  12.005 -0.3972  0.4276  2.5605
20073TIP3   OH281709   1.103   6.268   0.591  0.5238 -0.0524 -0.3549
20073TIP3    H181710   1.065   6.208   0.655  1.5783 -1.1044 -0.6901
20073TIP3    H281711   1.076   6.233   0.506  0.0079  0.7367 -0.5278
20074TIP3   OH281712   4.138   6.086  13.813  0.0106 -0.4134  0.0980
20074TIP3    H181713   4.181   6.110  13.895  0.8646 -1.0229 -0.1497
20074TIP3    H281714   4.209   6.053  13.758 -0.5588 -0.0710 -0.8633
20075TIP3   OH281715   6.585   0.976   0.446  0.0506 -0.2803  0.2118
20075TIP3    H181716   6.591   1.062   0.404 -0.6262 -0.4384 -0.2136
20075TIP3    H281717   6.492   0.956   0.447  0.1026 -0.4985  1.3641
20076TIP3   OH281718   2.396   0.846   1.862  0.3230  0.3496 -0.6210
20076TIP3    H181719   2.489   0.867   1.856  0.0340  1.3829 -1.6814
20076TIP3    H281720   2.392   0.752   1.846  1.3441 -0.0868  1.2856
20077TIP3   OH281721   5.993   5.455   0.504  0.4362  0.7881 -0.6712
20077TIP3    H181722   5.924   5.513   0.472 -1.5705 -0.7192  0.6489
20077TIP3    H281723   6.052   5.444   0.429 -1.4088  1.2337 -2.2673
20078TIP3   OH281724   3.017   1.845  14.156 -0.5171  0.1755  0.1880
20078TIP3    H181725   3.059   1.899  14.224 -0.2432  2.4057 -1.6323
20078TIP3    H281726   3.080   1.843  14.084 -0.9735 -1.7924 -0.2120
20079TIP3   OH281727   4.392   0.727  16.536 -0.6647 -0.4967  1.0496
20079TIP3    H181728   4.391   0.820  16.558  0.5547 -0.1909 -0.0430
20079TIP3    H281729   4.413   0.683  16.619 -0.1604  0.2847  1.3446
20080TIP3   OH281730   0.950   0.632  13.714  0.4613  0.0750  0.9913
20080TIP3    H181731   0.938   0.560  13.776  0.7468 -1.0404 -0.2071
20080TIP3    H281732   0.917   0.709  13.761  1.7232 -0.5089  2.9544
20081TIP3   OH281733   5.673   2.427  15.578 -0.1336 -0.2509  0.3027
20081TIP3    H181734   5.707   2.466  15.498 -1.3280  1.4638  0.5545
20081TIP3    H281735   5.742   2.369  15.608  0.6618 -0.3185 -1.5347
20082TIP3   OH281736   1.618   5.029   3.562 -0.1376  0.0905 -0.3330
20082TIP3    H181737   1.571   5.093   3.615 -0.2523 -0.7455  0.6116
20082TIP3    H281738   1.581   5.038   3.474 -1.4401  0.0700  0.1979
20083TIP3   OH281739   4.916   4.125   0.630 -0.6439  0.2750  0.3965
20083TIP3    H181740   4.977   4.062   0.591 -1.6565 -0.2955 -0.3048
20083TIP3    H281741   4.973   4.187   0.676  0.4470 -0.4199  0.0373
20084TIP3   OH281742   1.014   6.396  16.633 -0.3468 -0.3191 -0.0706
20084TIP3    H181743   0.961   6.451  16.690  2.4740  0.4243  2.0440
20084TIP3    H281744   1.034   6.451  16.558 -0.6580  0.1908  0.2169
20085TIP3   OH281745   1.980   1.499   2.152  0.0141  0.7220 -0.1068
20085TIP3    H181746   1.936   1.535   2.229  1.8263  2.7953  0.0891
20085TIP3    H281747   1.980   1.572   2.089  1.2986  0.1266 -0.8442
20086TIP3   OH281748   0.367   2.769  14.693  0.5373 -0.2851 -0.5070
20086TIP3    H181749   0.462   2.778  14.701  0.3923 -0.5883  2.8283
20086TIP3    H281750   0.332   2.840  14.747 -1.1584 -0.2944 -1.5451
20087TIP3   OH281751   0.004   3.082  10.511  0.4490 -0.4405  0.7766
20087TIP3    H181752  -0.031   3.143  10.575 -1.3334 -0.4323 -0.1438
20087TIP3    H281753  -0.012   3.125  10.426 -1.8965 -2.5789  0.0190
20088TIP3   OH281754   6.366   4.648   3.354 -0.1259  0.0286 -0.0379
20088TIP3    H181755   6.357   4.743   3.355  1.4299  0.1930  0.4686
20088TIP3    H281756   6.449   4.632   3.311 -0.4776 -1.1199 -0.3091
20089TIP3   OH281757   1.077   6.058   0.772 -0.0878 -0.3403 -0.0891
20089TIP3    H181758   1.049   5.976   0.812  0.9483 -0.5709  0.2048
20089TIP3    H281759   1.122   6.104   0.843 -0.3922  0.3524 -0.3362
20090TIP3   OH281760   5.319   2.696   3.275 -0.3097 -0.1627  0.1025
20090TIP3    H181761   5.233   2.691   3.316  0.3808 -0.2353  1.6589
20090TIP3    H281762   5.375   2.643   3.332  1.0820  1.1997  0.0798
20091TIP3   OH281763   4.457   4.519  15.110 -0.6177 -0.0367 -0.1355
20091TIP3    H181764   4.522   4.585  15.083 -0.2632 -0.5069 -0.4576
20091TIP3    H281765   4.470   4.447  15.048 -1.0393 -0.3853  0.1795
20092TIP3   OH281766   3.729   2.655  15.822 -0.4935 -0.6880  0.3291
20092TIP3    H181767   3.722   2.640  15.727 -1.8377  0.4271  0.2044
20092TIP3    H281768   3.710   2.748  15.832  0.0146 -0.7140  1.6773
20093TIP3   OH281769   0.659   4.155  13.026  0.2329 -0.0846 -0.2972
20093TIP3    H181770   0.692   4.073  12.988  0.2901 -0.1342 -0.1425
20093TIP3    H281771   0.577   4.130  13.068  0.2101 -0.0464 -0.3188
20094TIP3   OH281772   2.677   5.357  14.458 -0.2677 -0.1954  0.0973
20094TIP3    H181773   2.686   5.435  14.403  0.2394  0.1104  0.5982
20094TIP3    H281774   2.767   5.330  14.476 -0.3202  1.0063  2.5633
20095TIP3   OH281775   4.999   0.744  10.303 -0.1591 -0.0508  0.2238
20095TIP3    H181776   4.990   0.782  10.390 -1.6409  0.3038 -0.0706
20095TIP3    H281777   4.924   0.685  10.294  0.9423 -1.4688 -0.1461
20096TIP3   OH281778   4.552   3.172   3.383 -0.0273  0.1809  0.0370
20096TIP3    H181779   4.596   3.126   3.454  2.1251 -0.0249 -1.3558
20096TIP3    H281780   4.500   3.105   3.339 -2.1700  0.5031  1.9195
20097TIP3   OH281781   1.007   3.353  12.422  0.3590  0.2397 -0.5515
20097TIP3    H181782   1.077   3.301  12.381 -0.1299 -0.4028 -0.5845
20097TIP3    H281783   0.929   3.299  12.413  0.1314  0.3152  0.7722
20098TIP3   OH281784   0.200   5.318  11.806 -0.5888  0.0406  0.6401
20098TIP3    H181785   0.151   5.381  11.859 -0.1898  1.8987 -1.0623
20098TIP3    H281786   0.134   5.273  11.754 -0.7664  0.3009  0.6361
20099TIP3   OH281787   0.445   5.854  11.183  0.3301 -0.2937 -0.0828
20099TIP3    H181788   0.426   5.837  11.276  1.5301 -1.2850  0.0055
20099TIP3    H281789   0.362   5.836  11.138 -0.2662  0.1985  0.7776
20100TIP3   OH281790   1.539   4.775   2.097 -0.1897  0.5036  0.2442
20100TIP3    H181791   1.509   4.820   2.176  0.2839 -0.8364  1.2382
20100TIP3    H281792   1.459   4.740   2.058 -0.5059  1.7433 -0.2782
20101TIP3   OH281793   0.250   3.288  11.859 -0.3596 -0.0056 -0.1737
20101TIP3    H181794   0.211   3.358  11.807  2.0761  1.6581  0.1002
20101TIP3    H281795   0.209   3.297  11.945 -0.2513  0.9455 -0.2109
20102TIP3   OH281796   4.165   0.573   2.049  0.6407  0.5186  0.3151
20102TIP3    H181797   4.116   0.498   2.081  2.1328  0.3683  2.4761
20102TIP3    H281798   4.232   0.536   1.992  0.9071  0.2536  0.7893
20103TIP3   OH281799   5.025   4.192  14.739 -0.2733  0.3852 -0.4727
20103TIP3    H181800   4.956   4.215  14.676 -1.7102  1.6021  1.4250
20103TIP3    H281801   4.979   4.180  14.822  1.8598  2.1605  1.0891
20104TIP3   OH281802   2.587   4.900  11.201  0.3637  0.5211 -0.3108
20104TIP3    H181803   2.665   4.940  11.163  0.8080 -0.2599 -0.2486
20104TIP3    H281804   2.521   4.906  11.131  0.4089  1.3963 -0.2771
20105TIP3   OH281805   1.623   4.808   5.899 -0.0129  0.4233  0.2351
20105TIP3    H181806   1.714   4.829   5.879 -0.3265  0.4063 -1.3088
20105TIP3    H281807   1.585   4.781   5.816 -0.8828 -1.6964  1.2336
20106TIP3   OH281808   6.434   4.896   5.875  0.0788  0.0063  0.5530
20106TIP3    H181809   6.460   4.867   5.963  0.3578 -0.2373  0.3913
20106TIP3    H281810   6.386   4.977   5.890 -3.7190 -2.1521  1.3848
20107TIP3   OH281811   5.797   0.383  14.439 -0.8540  0.1961 -0.0928
20107TIP3    H181812   5.869   0.358  14.497 -2.0334 -0.0417  1.3514
20107TIP3    H281813   5.834   0.380  14.351  0.7161 -0.5233  0.5556
20108TIP3   OH281814   3.355   2.992   2.520 -0.1568 -0.7511  0.0919
20108TIP3    H181815   3.337   2.906   2.559  0.1414 -0.5870  0.6044
20108TIP3    H281816   3.268   3.031   2.508 -0.5409 -2.2380 -2.8185
20109TIP3   OH281817   2.397   1.334   2.424 -0.1774 -0.0403  0.2471
20109TIP3    H181818   2.486   1.312   2.397  0.5155  1.4578  1.2014
20109TIP3    H281819   2.349   1.251   2.416  1.0685 -0.6832 -1.0923
20110TIP3   OH281820   4.260   4.281   4.699 -0.3910  0.6394  0.0335
20110TIP3    H181821   4.190   4.347   4.704  0.1695  1.5493 -2.5843
20110TIP3    H281822   4.215   4.201   4.672 -0.7734  0.4766  1.1005
20111TIP3   OH281823   1.576   1.994   3.662  0.1016 -0.3328 -0.0039
20111TIP3    H181824   1.579   1.942   3.743 -0.6698 -1.3860 -0.6282
20111TIP3    H281825   1.548   1.933   3.595 -0.8683  0.8942 -0.7706
20112TIP3   OH281826   6.098   6.786   2.424 -0.1171 -0.0779  0.5361
20112TIP3    H181827   6.019   6.737   2.400  0.8713 -0.5596 -2.1086
20112TIP3    H281828   6.073   6.878   2.410  0.3288 -0.3141 -2.6048
20113TIP3   OH281829   1.687   5.102   1.290  0.2114 -0.5113  0.1717
20113TIP3    H181830   1.777   5.071   1.280  0.9096  1.3314  0.4702
20113TIP3    H281831   1.685   5.141   1.377 -0.6825  0.0917 -0.1083
20114TIP3   OH281832   1.072   5.756  16.868 -0.1404 -0.5068  0.1192
20114TIP3    H181833   1.157   5.717  16.846 -0.2329 -0.7732  0.2196
20114TIP3    H281834   1.090   5.849  16.880  0.3085 -0.6926  1.0063
20115TIP3   OH281835   4.154   2.517  10.265 -0.0403 -0.0737  0.0622
20115TIP3    H181836   4.149   2.481  10.354  2.1714 -0.2525  0.1561
20115TIP3    H281837   4.235   2.480  10.229 -0.3744  0.8152 -1.6722
20116TIP3   OH281838   0.217   6.749  10.922  0.1184 -0.7152  0.2601
20116TIP3    H181839   0.186   6.816  10.861  3.6131 -1.1812 -2.3467
20116TIP3    H281840   0.218   6.668  10.870  0.9116 -1.6906  1.7210
20117TIP3   OH281841   2.010   1.328  15.227  0.1126 -0.2396 -0.4606
20117TIP3    H181842   2.099   1.306  15.199 -0.1449 -0.5838 -1.0196
20117TIP3    H281843   1.962   1.246  15.223 -0.2972 -0.0073 -0.4010
20118TIP3   OH281844   4.733   4.529   2.849  0.1955  0.4083 -0.8096
20118TIP3    H181845   4.738   4.562   2.759 -3.2535  0.9892 -0.9042
20118TIP3    H281846   4.652   4.480   2.852  1.1603 -1.2055  1.5665
20119TIP3   OH281847   2.638   6.438  12.689 -0.1149  0.0385 -0.6806
20119TIP3    H181848   2.653   6.440  12.595  0.2614  0.1963 -0.6159
20119TIP3    H281849   2.563   6.496  12.702 -1.6929 -1.7913 -1.1558
20120TIP3   OH281850   3.909   5.508  12.458 -0.3690  0.5139  0.1647
20120TIP3    H181851   3.894   5.532  12.550 -2.6306 -1.6281  0.4571
20120TIP3    H281852   3.881   5.417  12.453 -0.7652  0.7217 -2.7789
20121TIP3   OH281853   0.928   6.616  15.948 -0.8335 -0.2221 -0.3774
20121TIP3    H181854   0.953   6.693  15.897  3.4305 -0.8405  0.4487
20121TIP3    H281855   0.910   6.549  15.882 -1.4439  0.5893 -1.0596
20122TIP3   OH281856   4.692   3.669  10.875  0.4007 -0.4083  0.2028
20122TIP3    H181857   4.657   3.726  10.806  0.5149  0.8663  1.1712
20122TIP3    H281858   4.746   3.726  10.929  1.1591 -1.6109  0.7654
20123TIP3   OH281859   0.505   2.330   1.770  0.1845 -0.1132  0.1722
20123TIP3    H181860   0.535   2.275   1.842 -0.4288 -0.3695  0.2312
20123TIP3    H281861   0.583   2.381   1.746  1.1295 -1.8347 -0.6703
20124TIP3   OH281862   4.400   4.768  16.227 -0.3904  0.1341 -0.7310
20124TIP3    H181863   4.362   4.709  16.161  2.0302 -1.2590 -0.9807
20124TIP3    H281864   4.375   4.856  16.197 -1.0633 -0.5617 -2.3638
20125TIP3   OH281865   3.039   2.499   3.912 -0.1176 -0.1083 -0.4384
20125TIP3    H181866   3.024   2.574   3.970  0.9779 -0.6183  0.5379
20125TIP3    H281867   2.952   2.461   3.900 -1.0948  2.5188 -2.7324
20126TIP3   OH281868   6.003   5.180  16.713 -0.4242  0.0961  0.2564
20126TIP3    H181869   5.941   5.136  16.771  0.1151  0.2023  0.9250
20126TIP3    H281870   6.082   5.190  16.765 -0.2037  0.9480 -0.2193
20127TIP3   OH281871   2.481   6.773  15.687 -0.1261  0.7067 -0.1395
20127TIP3    H181872   2.465   6.705  15.622 -0.3355 -0.0267  0.6650
20127TIP3    H281873   2.576   6.776  15.697 -0.1178  0.5270 -0.1711
20128TIP3   OH281874   6.068   5.299  12.630  0.2213 -0.0598 -0.1853
20128TIP3    H181875   6.000   5.263  12.688 -0.3595  0.2024 -0.6868
20128TIP3    H281876   6.150   5.287  12.678 -0.0149 -1.5318 -0.0988
20129TIP3   OH281877   6.661   3.748   1.600  0.0479 -1.1611 -0.1004
20129TIP3    H181878   6.678   3.670   1.654  0.7821 -2.3712 -1.9526
20129TIP3    H281879   6.736   3.805   1.617  1.0446 -2.1785 -0.8642
20130TIP3   OH281880   3.366   0.060  15.000  0.6501  0.1505 -0.1681
20130TIP3    H181881   3.293   0.002  14.979 -0.1958  1.9256 -2.5000
20130TIP3    H281882   3.405   0.082  14.915  2.2079  1.4058  0.8133
20131TIP3   OH281883   3.797   1.205  11.125 -0.7969 -0.4082  0.3873
20131TIP3    H181884   3.869   1.256  11.165 -0.7195 -0.7665  0.7100
20131TIP3    H281885   3.816   1.115  11.150 -0.9539 -0.5902 -0.1608
20132TIP3   OH281886   0.294   1.283   1.452 -0.0926  0.5364 -0.1600
20132TIP3    H181887   0.252   1.327   1.527  0.4108  1.9907 -0.7136
20132TIP3    H281888   0.278   1.341   1.378  2.0868  0.6716 -0.5760
20133TIP3   OH281889   2.836   4.515  13.006 -0.4486  0.8556  0.3030
20133TIP3    H181890   2.796   4.434  12.973  1.5604  0.6744 -2.0033
20133TIP3    H281891   2.911   4.486  13.057 -1.5653  1.2599  2.2681
20134TIP3   OH281892   0.415   5.860   1.700  0.4645 -0.2246 -0.5946
20134TIP3    H181893   0.353   5.844   1.629 -1.2247  1.1650  0.4920
20134TIP3    H281894   0.471   5.782   1.701 -1.9320 -2.0691 -0.9591
20135TIP3   OH281895   3.734   3.570  15.942 -0.2509  0.2698 -0.1122
20135TIP3    H181896   3.766   3.656  15.970  0.0198 -0.4263  1.8438
20135TIP3    H281897   3.644   3.567  15.974 -0.3524 -0.0971 -0.4214
20136TIP3   OH281898   4.288   1.201  13.836  0.6951  0.1459  0.4966
20136TIP3    H181899   4.203   1.157  13.831  0.2033  1.2355 -1.9456
20136TIP3    H281900   4.351   1.135  13.808  0.4772 -0.1917  0.7842
20137TIP3   OH281901   2.976   3.944   5.002 -0.0730  0.5867 -0.2535
20137TIP3    H181902   2.886   3.948   5.036 -0.2871  0.7433 -0.8393
20137TIP3    H281903   3.005   4.035   5.000  0.5607  0.4483  1.1289
20138TIP3   OH281904   4.150   5.650  16.078 -0.0792  0.4151 -0.1587
20138TIP3    H181905   4.145   5.564  16.037  1.1328  0.9125 -1.4194
20138TIP3    H281906   4.064   5.689  16.065 -0.5077 -0.4351  0.0773
20139TIP3   OH281907   5.694   4.528  12.296  0.2445 -0.2397 -0.1222
20139TIP3    H181908   5.710   4.508  12.388 -1.7757 -0.4820  0.2207
20139TIP3    H281909   5.765   4.587  12.272  1.3069 -0.8713  1.3367
20140TIP3   OH281910   6.390   3.886   0.826  0.1162 -0.2105 -0.3112
20140TIP3    H181911   6.303   3.853   0.807 -0.3394 -0.0248  1.2862
20140TIP3    H281912   6.375   3.966   0.876  1.1982 -0.2187  0.0497
20141TIP3   OH281913   4.299   3.741  15.306 -0.5797  0.2635  0.0114
20141TIP3    H181914   4.392   3.732  15.285 -0.5602 -0.1467  0.2609
20141TIP3    H281915   4.255   3.680  15.246 -0.8571  1.6900 -1.3048
20142TIP3   OH281916   4.173   4.067   0.321 -0.0164  0.2251 -0.4439
20142TIP3    H181917   4.225   3.999   0.279  2.4870  0.6984  1.6988
20142TIP3    H281918   4.136   4.024   0.399  0.8785  1.0431  0.4531
20143TIP3   OH281919   2.284   2.914  12.569  0.4492 -0.1659 -0.3686
20143TIP3    H181920   2.274   2.916  12.474 -1.0356  1.6530 -0.2232
20143TIP3    H281921   2.197   2.893  12.602  0.7853 -0.0728  0.5972
20144TIP3   OH281922   1.673   4.290  13.536 -0.2779  0.4930 -0.0609
20144TIP3    H181923   1.747   4.253  13.488  0.3067 -1.3038  2.0754
20144TIP3    H281924   1.604   4.224  13.531 -0.6613  0.8325  0.4881
20145TIP3   OH281925   5.541   1.252   0.324  0.5306  0.1846 -0.1517
20145TIP3    H181926   5.549   1.305   0.403  0.1764 -0.0161  0.0191
20145TIP3    H281927   5.529   1.163   0.356 -0.3922  0.2035 -0.4137
20146TIP3   OH281928   4.033   5.835   3.806 -0.0201 -0.0893 -0.2430
20146TIP3    H181929   4.094   5.894   3.850  0.6580  0.1669 -1.4867
20146TIP3    H281930   4.060   5.748   3.834  3.4148 -0.3349 -3.5353
20147TIP3   OH281931   1.156   3.509  16.847  0.6523  0.3517  0.2251
20147TIP3    H181932   1.064   3.482  16.847  0.4937  0.8470 -0.5886
20147TIP3    H281933   1.172   3.540  16.936  0.5139 -1.2754  0.8425
20148TIP3   OH281934   3.351   3.406  15.996  0.2157  0.0003 -0.0308
20148TIP3    H181935   3.328   3.431  15.907  0.3270  1.1411  0.2446
20148TIP3    H281936   3.434   3.360  15.988  0.4276  0.4543 -0.4816
20149TIP3   OH281937   6.033   5.452   5.962  0.0559 -0.4014  0.1930
20149TIP3    H181938   6.059   5.497   6.043  0.8960  0.7815 -0.6826
20149TIP3    H281939   5.939   5.437   5.972 -0.6012  2.7598  0.0693
20150TIP3   OH281940   1.847   4.846  12.830  0.6136 -0.4826  0.1321
20150TIP3    H181941   1.788   4.781  12.792 -0.8853  0.5169  0.6707
20150TIP3    H281942   1.807   4.930  12.809  0.5089  0.1614  2.6017
20151TIP3   OH281943   6.004   3.699   0.873 -0.3989 -0.0510 -0.0628
20151TIP3    H181944   6.057   3.642   0.928  0.0301  1.4793  1.1807
20151TIP3    H281945   6.064   3.729   0.804  0.3586  1.4858  1.2006
20152TIP3   OH281946   5.341   5.806   5.054  0.2631  0.0679  0.4600
20152TIP3    H181947   5.275   5.801   4.984  1.6527 -0.7945 -0.8743
20152TIP3    H281948   5.328   5.726   5.104  1.1525 -0.8177 -0.6637
20153TIP3   OH281949   2.630   0.905   5.031 -0.2971 -0.0006 -0.6760
20153TIP3    H181950   2.607   0.825   5.079 -0.1850  0.7711  0.6988
20153TIP3    H281951   2.551   0.959   5.036 -0.0564  0.3647 -0.7785
20154TIP3   OH281952   3.392   3.887   6.439 -0.2637  0.2518  0.8244
20154TIP3    H181953   3.326   3.847   6.383  1.1637 -0.2242 -0.6132
20154TIP3    H281954   3.431   3.814   6.486  1.7918 -0.0816 -1.2012
20155TIP3   OH281955   1.226   3.599   2.760 -0.3171 -0.2559 -0.0934
20155TIP3    H181956   1.271   3.524   2.721  1.3381  0.7342 -0.1688
20155TIP3    H281957   1.293   3.666   2.768 -2.1042  1.8921 -1.7086
20156TIP3   OH281958   5.042   5.578  11.931 -0.2057 -0.4211  0.1155
20156TIP3    H181959   5.059   5.647  11.994 -0.1259  1.3434 -1.7324
20156TIP3    H281960   4.957   5.542  11.956 -2.0846  2.8909 -0.9281
20157TIP3   OH281961   4.971   1.372  11.447 -0.0252  0.1619  0.3355
20157TIP3    H181962   5.010   1.447  11.403 -0.0097 -0.4283 -0.6952
20157TIP3    H281963   4.910   1.335  11.383 -0.4503 -0.3795  1.0263
20158TIP3   OH281964   3.068   5.038   2.856  0.1191 -0.5205 -0.0803
20158TIP3    H181965   2.977   5.016   2.842 -1.5820  2.6696  3.8045
20158TIP3    H281966   3.071   5.134   2.852  2.6176 -0.3291  2.3873
20159TIP3   OH281967   2.014   6.339   5.122 -0.2935 -0.2657 -0.2364
20159TIP3    H181968   2.018   6.304   5.211 -0.4928  0.3096  0.0012
20159TIP3    H281969   1.940   6.294   5.081  0.6964 -1.6274 -0.6009
20160TIP3   OH281970   4.072   0.994  11.213 -0.9429  0.1314  0.6667
20160TIP3    H181971   4.086   1.030  11.126  1.2746 -0.1368  0.8742
20160TIP3    H281972   4.005   0.927  11.201  3.3521 -4.2760 -2.1449
20161TIP3   OH281973   3.410   4.930   2.507 -0.0329 -0.3458  0.5928
20161TIP3    H181974   3.347   4.871   2.466 -0.3920 -0.9169  1.9267
20161TIP3    H281975   3.359   4.981   2.569  0.7106 -0.3874  1.2563
20162TIP3   OH281976   4.685   0.396  14.152 -0.1881  0.1787 -0.6761
20162TIP3    H181977   4.734   0.371  14.074 -1.1793  0.4261 -1.4023
20162TIP3    H281978   4.620   0.327  14.162  0.4127 -0.2470  0.3906
20163TIP3   OH281979   1.948   0.009   0.579  0.2606 -0.2679 -0.1067
20163TIP3    H181980   1.893   0.057   0.640 -0.1911  1.5308 -1.8021
20163TIP3    H281981   1.914  -0.080   0.579 -1.8825  0.4976 -0.1887
20164TIP3   OH281982   6.451   1.108  12.896 -0.4264  0.5639  0.2708
20164TIP3    H181983   6.356   1.118  12.899 -0.5294 -0.1963 -0.1580
20164TIP3    H281984   6.473   1.122  12.804 -0.2294 -0.1368  0.2096
20165TIP3   OH281985   5.916   6.655  15.521 -1.0653 -0.3422 -0.8037
20165TIP3    H181986   5.840   6.660  15.463 -0.4461 -2.4040 -1.8790
20165TIP3    H281987   5.984   6.614  15.469  0.0508 -0.7421  0.8805
20166TIP3   OH281988   1.034   6.401  12.159  0.3735 -0.3194 -0.4473
20166TIP3    H181989   0.971   6.472  12.174  0.2995 -0.3774 -0.4870
20166TIP3    H281990   0.983   6.331  12.118  0.7839  0.2206 -1.9491
20167TIP3   OH281991   2.653   6.530  16.932 -0.1384  0.1013  0.7111
20167TIP3    H181992   2.703   6.449  16.922 -0.4509 -0.1564  1.1591
20167TIP3    H281993   2.667   6.555  17.024  0.0990  0.6511  0.5236
20168TIP3   OH281994   3.132   4.415  16.374  0.1625  0.0882 -0.1011
20168TIP3    H181995   3.187   4.453  16.306 -0.0284 -0.2460 -0.4474
20168TIP3    H281996   3.046   4.455  16.361  0.0662 -0.1487 -0.2066
20169TIP3   OH281997   4.401   6.503   0.448 -0.1603  0.2147  0.0599
20169TIP3    H181998   4.379   6.590   0.480 -2.7494 -0.8143  1.4303
20169TIP3    H281999   4.343   6.490   0.373 -0.6393 -0.6906  0.5628
20170TIP3   OH282000   3.110   4.666  14.751 -0.6944 -0.4088  0.6978
20170TIP3    H182001   3.128   4.704  14.837 -0.4858  1.6556 -0.2019
20170TIP3    H282002   3.021   4.693  14.731 -0.3899 -0.0061 -0.1535
20171TIP3   OH282003   5.449   4.850   4.495  0.1557 -0.0147  0.0467
20171TIP3    H182004   5.542   4.849   4.515 -0.0762  0.8977  1.2608
20171TIP3    H282005   5.430   4.941   4.472 -0.4387 -0.1875 -0.1613
20172TIP3   OH282006   2.830   3.498   3.919  0.0421  0.4007 -0.5989
20172TIP3    H182007   2.744   3.467   3.893  0.5386 -1.9194  0.2947
20172TIP3    H282008   2.876   3.420   3.950  1.5556  1.9645  1.4420
20173TIP3   OH282009   5.669   0.850   3.841 -0.3591  0.1437  0.7775
20173TIP3    H182010   5.574   0.845   3.852 -0.3370  0.0386  0.9373
20173TIP3    H282011   5.703   0.790   3.908 -0.2487 -1.7851 -0.9191
20174TIP3   OH282012   0.602   4.501  11.616 -0.4883 -0.1187 -0.0406
20174TIP3    H182013   0.607   4.405  11.619 -0.4547 -0.0922  1.3597
20174TIP3    H282014   0.540   4.524  11.685 -0.2583  0.8827 -0.1514
20175TIP3   OH282015   4.398   5.609   0.568 -0.2095 -0.0956  0.4791
20175TIP3    H182016   4.446   5.554   0.630  0.0870 -1.3292 -0.8067
20175TIP3    H282017   4.327   5.554   0.537 -0.3599  0.5082 -0.2740
20176TIP3   OH282018   1.981   2.512  15.804 -0.0220 -0.1749 -0.5409
20176TIP3    H182019   1.946   2.588  15.757  1.5501  1.8103  1.3317
20176TIP3    H282020   2.071   2.536  15.827  0.4214 -2.4701  0.4631
20177TIP3   OH282021   2.731   3.727  13.103 -0.5368  0.8105 -0.6273
20177TIP3    H182022   2.755   3.731  13.011  0.5525  1.0096 -0.3457
20177TIP3    H282023   2.738   3.635  13.127 -2.1911  0.5343 -1.0740
20178TIP3   OH282024   0.118   2.178  14.475  0.0061 -0.0387  0.0877
20178TIP3    H182025   0.068   2.149  14.551 -0.1979 -0.0099 -0.0361
20178TIP3    H282026   0.201   2.209  14.512 -0.0811 -0.0489  0.2951
20179TIP3   OH282027   3.099   5.446   3.688  0.4865  0.6304  0.7599
20179TIP3    H182028   3.068   5.367   3.732 -0.3733  0.7591  0.4148
20179TIP3    H282029   3.019   5.491   3.661  0.9537  0.2158 -1.5199
20180TIP3   OH282030   1.416   6.622  13.898  0.3585 -0.1195 -0.0223
20180TIP3    H182031   1.321   6.616  13.895  0.3429 -0.4831  0.8722
20180TIP3    H282032   1.446   6.533  13.880  0.5571  0.1403 -1.0195
20181TIP3   OH282033   3.083   6.659   1.791 -0.3327 -0.5212 -0.2442
20181TIP3    H182034   3.174   6.673   1.818 -0.1793  0.7670 -1.3052
20181TIP3    H282035   3.057   6.578   1.833  0.3866  0.5170  2.3795
20182TIP3   OH282036   1.645   5.920   0.477 -0.6808 -0.4555 -0.3408
20182TIP3    H182037   1.569   5.977   0.481 -0.1414  0.2856 -0.4394
20182TIP3    H282038   1.617   5.840   0.521 -2.1801 -1.0036 -2.1613
20183TIP3   OH282039   3.461   0.058  11.999  0.7147  0.1350  0.1746
20183TIP3    H182040   3.513   0.068  11.919 -0.6061  1.5823 -0.5691
20183TIP3    H282041   3.449  -0.036  12.008  2.3248 -0.1521 -0.3501
20184TIP3   OH282042   4.829   1.545   3.768 -0.2783  0.0004  0.1001
20184TIP3    H182043   4.739   1.515   3.782 -0.7049  0.9934 -0.4329
20184TIP3    H282044   4.882   1.486   3.822 -1.0601 -1.7489 -0.9439
20185TIP3   OH282045   2.321   3.997   1.411  0.1853 -0.1387 -0.5006
20185TIP3    H182046   2.407   4.023   1.444  0.4184 -1.0880 -0.3311
20185TIP3    H282047   2.308   4.051   1.333 -0.5955  2.4971  1.3288
20186TIP3   OH282048   0.513   2.617  11.485 -0.4471 -0.4312  0.1839
20186TIP3    H182049   0.504   2.702  11.443 -2.3593 -0.1631  1.0051
20186TIP3    H282050   0.607   2.602  11.491 -0.0877  0.4438 -2.2535
20187TIP3   OH282051   1.458   6.063  13.261  0.6402  0.3479  0.3056
20187TIP3    H182052   1.493   6.002  13.326  0.7619 -0.8142 -0.8009
20187TIP3    H282053   1.363   6.051  13.265  0.6432  0.3287  0.3189
20188TIP3   OH282054   4.337   1.251  16.856 -0.0035 -0.5259 -0.2267
20188TIP3    H182055   4.407   1.200  16.898 -0.9929 -1.2415  0.6129
20188TIP3    H282056   4.349   1.236  16.762  1.1933 -0.3286 -0.1134
20189TIP3   OH282057   2.442   3.042  15.074 -0.4013  0.1890 -0.4359
20189TIP3    H182058   2.462   3.132  15.048 -0.1258 -0.1416 -1.4033
20189TIP3    H282059   2.375   3.014  15.011 -0.3844 -0.3289 -0.2221
20190TIP3   OH282060   3.061   4.420  12.788  0.7478 -0.0964  0.0769
20190TIP3    H182061   3.128   4.371  12.835 -0.0489 -0.5028  0.8093
20190TIP3    H282062   3.051   4.501  12.838 -0.9748 -1.0560  1.3745
20191TIP3   OH282063   4.044   0.933   2.735  0.3270  0.5619  0.4053
20191TIP3    H182064   4.106   0.868   2.703  1.0046  0.4620  1.8321
20191TIP3    H282065   3.959   0.906   2.699  0.8096 -0.3612 -0.0668
20192TIP3   OH282066   0.615   0.768  11.957 -0.5450  0.4683 -0.3726
20192TIP3    H182067   0.598   0.845  11.902 -1.0991  0.6589  0.0578
20192TIP3    H282068   0.624   0.804  12.046 -1.3277 -0.0204 -0.0935
20193TIP3   OH282069   2.959   6.059  11.624  0.0779  0.3654  0.1342
20193TIP3    H182070   2.970   6.013  11.708 -0.4374 -0.2577 -0.1390
20193TIP3    H282071   2.868   6.087  11.623  0.2864  1.0765  0.1252
20194TIP3   OH282072   3.124   2.292  16.560 -0.2290  0.3918  0.2264
20194TIP3    H182073   3.135   2.197  16.555 -1.4774  0.1230  1.6879
20194TIP3    H282074   3.213   2.327  16.564  0.2420 -0.7129 -0.4336
20195TIP3   OH282075   5.147   6.315   2.129 -0.8401 -0.8285 -0.4878
20195TIP3    H182076   5.234   6.312   2.170  0.9954  1.5623 -3.8044
20195TIP3    H282077   5.136   6.227   2.092  0.2864 -1.0714 -0.3044
20196TIP3   OH282078   3.660   4.376   1.740 -0.5647  0.1201  0.0892
20196TIP3    H182079   3.748   4.376   1.778  0.3151 -3.7862 -1.3700
20196TIP3    H282080   3.674   4.388   1.646 -1.9706  2.3022  0.0823
20197TIP3   OH282081   3.170   3.764   1.761 -0.2898 -0.6073 -0.2538
20197TIP3    H182082   3.108   3.768   1.833 -0.6095  1.8624 -0.5892
20197TIP3    H282083   3.216   3.848   1.764  0.6203 -0.9826 -2.1174
20198TIP3   OH282084   1.607   6.602   0.365 -0.3818  0.0834  0.6062
20198TIP3    H182085   1.516   6.632   0.358 -0.5139 -0.2462  0.8732
20198TIP3    H282086   1.608   6.520   0.315 -0.2748 -0.0031  0.7506
20199TIP3   OH282087   3.974   5.659   5.482  0.5183 -0.4782 -0.1110
20199TIP3    H182088   4.038   5.612   5.536  0.3756  0.2137  0.6850
20199TIP3    H282089   4.020   5.737   5.453  0.4443 -0.6210 -0.6252
20200TIP3   OH282090   3.625   0.793   4.231  0.3845  0.3364 -0.6199
20200TIP3    H182091   3.582   0.708   4.224  2.1153 -0.7084  0.6525
20200TIP3    H282092   3.678   0.800   4.152  1.0499 -0.2645 -0.2348
20201TIP3   OH282093   2.519   5.264   1.338  0.1399 -0.3426 -0.1393
20201TIP3    H182094   2.510   5.271   1.243 -1.2379 -0.1718 -0.0051
20201TIP3    H282095   2.582   5.332   1.361 -0.6885  0.6414 -0.7515
20202TIP3   OH282096   3.060   2.718  11.613 -0.4399  0.1746 -0.2649
20202TIP3    H182097   3.086   2.784  11.548  0.2825  1.8840  1.6721
20202TIP3    H282098   2.985   2.757  11.658  0.8829  0.3964  1.8767
20203TIP3   OH282099   2.887   0.222   0.557  0.1280 -0.0562 -0.5215
20203TIP3    H182100   2.874   0.136   0.517 -0.0257  0.3451 -1.3779
20203TIP3    H282101   2.810   0.272   0.530  0.1905  0.3351  0.0118
20204TIP3   OH282102   2.600   6.217  12.839 -0.5477 -0.0981 -0.4302
20204TIP3    H182103   2.616   6.288  12.776 -0.5657 -0.3497 -0.7247
20204TIP3    H282104   2.571   6.144  12.785  1.1974 -0.9015 -0.3501
20205TIP3   OH282105   2.174   0.500   2.876 -0.5057  0.2121 -0.1834
20205TIP3    H182106   2.181   0.594   2.889  2.0661 -0.2753  4.1315
20205TIP3    H282107   2.108   0.472   2.939 -0.0110 -1.0281 -0.1903
20206TIP3   OH282108   0.537   1.308  14.915 -0.0868 -0.0797  0.3511
20206TIP3    H182109   0.517   1.219  14.888  1.4283 -0.3740  0.1101
20206TIP3    H282110   0.454   1.356  14.904 -1.0192 -1.5152  0.8390
20207TIP3   OH282111   4.298   0.445   4.601  0.1383  0.6208  0.5220
20207TIP3    H182112   4.216   0.489   4.581  0.1721  1.2770  1.7372
20207TIP3    H282113   4.274   0.375   4.661  0.5829  1.4599  1.6996
20208TIP3   OH282114   6.755   1.341  15.242 -0.0902 -0.4901  0.5643
20208TIP3    H182115   6.714   1.298  15.317  2.4997 -1.2625  1.6303
20208TIP3    H282116   6.835   1.292  15.227 -0.5075 -0.3602 -2.7667
20209TIP3   OH282117   3.645   0.978  14.987  0.3680  0.1349  0.5324
20209TIP3    H182118   3.633   0.958  15.080 -0.5945 -0.4023  0.3071
20209TIP3    H282119   3.632   1.072  14.980 -0.0685  0.1030  0.8752
20210TIP3   OH282120   2.533   4.569   4.829  0.2770 -0.2105 -0.0474
20210TIP3    H182121   2.463   4.577   4.893  0.4155 -0.3665  0.1240
20210TIP3    H282122   2.613   4.559   4.881  0.6849  1.8137 -0.1985
20211TIP3   OH282123   5.926   3.802   1.185  0.0536  0.2782  0.1590
20211TIP3    H182124   5.899   3.841   1.268 -0.4669  0.6038 -0.1549
20211TIP3    H282125   6.008   3.757   1.205  0.6931  1.5596  0.5301
20212TIP3   OH282126   5.152   3.750  12.572  0.7110  0.3201  0.1988
20212TIP3    H182127   5.205   3.818  12.612  0.5907  0.7867 -0.4252
20212TIP3    H282128   5.189   3.738  12.485 -0.9622  1.5504 -0.7354
20213TIP3   OH282129   5.994   3.343   2.194 -0.4386 -0.0102 -0.0532
20213TIP3    H182130   6.063   3.281   2.219 -0.2408 -0.3862 -1.4359
20213TIP3    H282131   5.951   3.301   2.119 -1.0872  0.9860 -0.2528
20214TIP3   OH282132   5.434   5.753  13.089  0.3769 -0.1474  0.8954
20214TIP3    H182133   5.511   5.778  13.038  0.1813  0.3565  0.8439
20214TIP3    H282134   5.371   5.823  13.073 -0.0937 -0.5550  0.9379
20215TIP3   OH282135   3.209   5.391  12.600  0.4276  0.8120 -0.4746
20215TIP3    H182136   3.172   5.462  12.548 -0.1400  0.7719 -0.1397
20215TIP3    H282137   3.280   5.432  12.649  0.0487  1.1808 -0.2189
20216TIP3   OH282138   2.489   2.131  16.658  0.2969  0.3348  0.2831
20216TIP3    H182139   2.490   2.065  16.728 -0.7273  0.1079  0.0989
20216TIP3    H282140   2.503   2.081  16.578  0.1575  0.4300  0.2010
20217TIP3   OH282141   4.634   2.361   6.175 -0.1434  0.1609  0.0831
20217TIP3    H182142   4.610   2.270   6.185 -0.6164  0.4394  1.7031
20217TIP3    H282143   4.703   2.375   6.240  0.3731  0.8058 -0.5835
20218TIP3   OH282144   3.898   1.483   1.130  0.0590 -0.1797 -0.6772
20218TIP3    H182145   3.864   1.416   1.071  0.7538  1.0367 -2.5489
20218TIP3    H282146   3.956   1.435   1.189  1.0554 -1.1930 -2.3821
20219TIP3   OH282147   5.778   0.960  11.821  0.1774  0.5762  0.3140
20219TIP3    H182148   5.743   0.894  11.881  1.4847  0.1564  0.6605
20219TIP3    H282149   5.872   0.961  11.840  1.1243 -1.3332 -3.2996
20220TIP3   OH282150   2.509   5.491  16.775  0.4885 -0.4643  0.1818
20220TIP3    H182151   2.573   5.467  16.842  2.1034  0.7780 -0.8499
20220TIP3    H282152   2.497   5.586  16.785  0.0907 -0.4042 -0.7031
20221TIP3   OH282153   4.722   3.813  15.002 -0.0941  0.1785 -0.0795
20221TIP3    H182154   4.760   3.741  14.952 -0.2311 -0.3226  0.5232
20221TIP3    H282155   4.693   3.875  14.936  2.2135  0.8374 -0.5696
20222TIP3   OH282156   3.790   0.466   2.886 -0.2843 -0.1387 -0.1183
20222TIP3    H182157   3.801   0.389   2.941 -1.3889 -0.7286 -0.7041
20222TIP3    H282158   3.721   0.443   2.824  0.0395  0.9690 -0.9378
20223TIP3   OH282159   5.534   1.309  16.973 -0.3786  0.0983  0.4775
20223TIP3    H182160   5.577   1.389  17.002  1.6590  0.2916 -2.5376
20223TIP3    H282161   5.491   1.333  16.891 -2.7749 -1.1401  1.2785
20224TIP3   OH282162   5.224   4.305   2.996 -0.1597 -0.8239 -0.0905
20224TIP3    H182163   5.288   4.269   3.057 -0.2092 -0.3160  0.2626
20224TIP3    H282164   5.268   4.303   2.911  0.5548  0.0817  0.2453
20225TIP3   OH282165   1.421   2.639  15.475  0.8960  0.2586 -0.3028
20225TIP3    H182166   1.330   2.613  15.478  1.3433 -1.3657  0.0787
20225TIP3    H282167   1.447   2.649  15.566  2.0136 -2.8944 -0.1522
20226TIP3   OH282168   5.131   4.671   0.980 -0.8152 -0.0635 -0.2536
20226TIP3    H182169   5.192   4.618   1.031 -1.4224 -0.3461  0.2066
20226TIP3    H282170   5.058   4.611   0.963 -0.7942  0.1506 -1.1205
20227TIP3   OH282171   0.647   5.829   3.746 -0.0457 -0.1973  0.0245
20227TIP3    H182172   0.575   5.788   3.794  0.2757 -1.7157 -0.7256
20227TIP3    H282173   0.726   5.794   3.787  0.2452 -0.0961 -0.4409
20228TIP3   OH282174   6.009   5.354  15.781 -0.3848 -0.2149  0.1423
20228TIP3    H182175   5.969   5.374  15.696 -1.5424 -1.5947  0.3238
20228TIP3    H282176   6.102   5.345  15.763 -0.2412  1.9479 -0.5077
20229TIP3   OH282177   2.122   3.831   1.845 -0.4856  0.2839  0.1683
20229TIP3    H182178   2.108   3.829   1.751  0.3387 -0.7402  0.0399
20229TIP3    H282179   2.061   3.897   1.878 -0.3683  1.0751 -1.1404
20230TIP3   OH282180   5.270   5.053  13.632 -0.5136  0.2208 -0.0157
20230TIP3    H182181   5.323   5.075  13.709 -0.6265  0.2187  0.0635
20230TIP3    H282182   5.181   5.079  13.656 -1.0440 -2.2159  0.8919
20231TIP3   OH282183   4.921   1.330   5.808  0.0918 -0.1452 -0.3213
20231TIP3    H182184   4.919   1.250   5.757 -0.7477 -0.6769  0.5114
20231TIP3    H282185   4.852   1.319   5.873  0.9510  0.6108  0.7640
20232TIP3   OH282186   6.446   0.229  12.398 -0.3886  0.1175 -0.1383
20232TIP3    H182187   6.509   0.247  12.328  1.1452  0.2944  1.2260
20232TIP3    H282188   6.494   0.174  12.460 -1.8038 -0.2978  0.6460
20233TIP3   OH282189   6.533   3.767   2.334  0.2640 -0.1697 -0.4621
20233TIP3    H182190   6.539   3.855   2.298 -2.2129 -0.0407 -0.7070
20233TIP3    H282191   6.467   3.774   2.404  2.0747 -1.2581  1.4769
20234TIP3   OH282192   3.703   0.048   2.739 -0.1844 -0.0846 -0.2389
20234TIP3    H182193   3.764   0.004   2.679 -1.0535 -1.4096 -0.1960
20234TIP3    H282194   3.672   0.125   2.690  0.0224 -0.4984 -1.0364
20235TIP3   OH282195   6.819   3.218  12.216 -0.0348 -0.2288 -0.1663
20235TIP3    H182196   6.910   3.243  12.199  0.4508  0.1847  2.5474
20235TIP3    H282197   6.820   3.122  12.216  1.1824 -0.3371  2.7647
20236TIP3   OH282198   3.899   6.042  11.440  0.3084  0.8741 -0.2597
20236TIP3    H182199   3.893   5.967  11.499  0.9039  1.2978  0.3539
20236TIP3    H282200   3.916   6.004  11.354  1.6835  0.3549  0.2231
20237TIP3   OH282201   6.099   5.524  10.732  0.2939  0.8869 -0.1616
20237TIP3    H182202   6.151   5.471  10.791  0.1248  0.3687 -0.4617
20237TIP3    H282203   6.140   5.513  10.646 -0.3276  0.4268 -0.4125
20238TIP3   OH282204   5.563   0.403  11.136 -0.2062 -0.3044 -0.3934
20238TIP3    H182205   5.641   0.356  11.165  0.2787 -0.0032 -1.1641
20238TIP3    H282206   5.540   0.361  11.053 -0.1646  0.3751 -0.7556
20239TIP3   OH282207   4.307   2.562  10.890  0.0515  0.6269 -0.3997
20239TIP3    H182208   4.322   2.482  10.841  0.5853  1.1250 -1.0737
20239TIP3    H282209   4.215   2.585  10.871  0.4808  1.2617 -1.8876
20240TIP3   OH282210   2.940   0.629   5.716  0.1506  0.3090 -0.5344
20240TIP3    H182211   2.857   0.608   5.674 -1.7516  2.9395  1.5740
20240TIP3    H282212   2.954   0.559   5.779 -0.3590 -0.2332 -1.0128
20241TIP3   OH282213   2.540   4.072   1.578  0.8485 -0.1247  0.1487
20241TIP3    H182214   2.493   4.147   1.613 -0.4859  0.1243 -1.9794
20241TIP3    H282215   2.619   4.109   1.538  1.4744 -0.1932  1.3027
20242TIP3   OH282216   0.315   4.843   1.927  0.2242 -0.2446 -0.3479
20242TIP3    H182217   0.403   4.879   1.941  0.1472 -0.3894  0.5779
20242TIP3    H282218   0.291   4.805   2.012 -1.4889  1.4233 -0.0413
20243TIP3   OH282219   2.463   1.963   0.147  0.3592 -0.2087  0.7370
20243TIP3    H182220   2.520   2.022   0.197  0.9244 -1.7887  2.0736
20243TIP3    H282221   2.451   2.006   0.063 -0.0210  2.2477  1.9463
20244TIP3   OH282222   6.637   2.167   0.663 -0.4237  0.5070  0.3388
20244TIP3    H182223   6.677   2.252   0.680 -0.1382  0.4584 -0.0810
20244TIP3    H282224   6.621   2.131   0.750  1.3264  0.1259  0.5368
20245TIP3   OH282225   5.875   3.767   5.376  0.3148  0.3988 -1.1894
20245TIP3    H182226   5.943   3.830   5.353  1.5765 -0.5189 -0.1728
20245TIP3    H282227   5.796   3.819   5.389  1.2848  1.7447 -0.5072
20246TIP3   OH282228   1.538   0.104   3.313  0.7464  0.4844 -0.3159
20246TIP3    H182229   1.615   0.057   3.280 -0.1340 -1.0826 -0.2462
20246TIP3    H282230   1.473   0.035   3.330 -0.6241  1.7402 -0.2238
20247TIP3   OH282231   1.317   6.636   6.054  0.6641 -0.2176 -0.3134
20247TIP3    H182232   1.376   6.668   5.985 -0.9571  0.4218 -1.4633
20247TIP3    H282233   1.243   6.696   6.052  0.1538 -0.7498  1.3834
20248LIG      S82234   3.572   3.696   7.726  0.3842  0.1634 -0.0269
20248LIG     F182235   4.060   3.334   7.619  0.0235 -0.4438  0.1262
20248LIG     F282236   3.961   3.355   7.813 -0.2735  0.3481  0.5594
20248LIG     F382237   3.903   3.202   7.684  0.1760  0.0700  0.5454
20248LIG     N182238   3.552   3.657   7.415  0.3432 -0.5899  0.0201
20248LIG     N282239   3.747   3.513   7.269  0.7067  0.1237 -0.9411
20248LIG     C182240   3.464   3.620   7.295 -0.5257 -0.2653 -0.0230
20248LIG     C282241   3.644   3.570   7.487 -0.1819  0.3878  0.3711
20248LIG     C382242   3.316   3.644   7.334 -0.3174 -0.4955 -0.2413
20248LIG     C482243   3.564   3.791   7.461 -0.0913 -0.9058  0.2396
20248LIG     C582244   3.658   3.576   7.631 -0.6827 -0.4873 -0.1371
20248LIG     C682245   3.579   3.823   7.602 -0.7004  0.1056 -0.2869
20248LIG     C782246   3.745   3.506   7.412 -0.0532  0.3477 -0.6087
20248LIG     C882247   3.208   3.589   7.238  0.1781  0.5392 -0.3940
20248LIG     C982248   3.750   3.502   7.697 -0.0284  0.4096 -0.2279
20248LIG    C1082249   3.842   3.413   7.622  0.1350  0.4640 -0.2886
20248LIG    C1182250   3.578   3.896   7.369  0.5037  0.1412  0.1049
20248LIG    C1282251   3.836   3.421   7.480  0.3862  0.1792 -0.4669
20248LIG    C1382252   3.607   3.955   7.642  0.1257  0.1950 -0.1145
20248LIG    C1482253   3.218   3.438   7.218  0.2755  0.1382 -0.0541
20248LIG    C1582254   3.599   4.026   7.414  0.5506  0.4063 -0.2408
20248LIG    C1682255   3.614   4.058   7.548  0.2168  0.1945 -0.0771
20248LIG    C1782256   3.939   3.325   7.683 -0.3449 -0.4113 -0.1817
20248LIG     H182257   3.483   3.514   7.268 -1.1624 -0.2325 -0.6028
20248LIG     H282258   3.480   3.677   7.202  3.0281 -1.2842 -0.1954
20248LIG     H382259   3.308   3.755   7.341  0.6036 -0.4388  0.0178
20248LIG     H482260   3.297   3.624   7.441 -2.3709 -0.5795 -0.5760
20248LIG     H582261   3.203   3.653   7.148 -1.6747 -0.3892 -0.9976
20248LIG     H682262   3.114   3.608   7.294 -0.3131  0.2789 -1.1261
20248LIG     H782263   3.760   3.491   7.804  0.8183 -0.5163 -0.3852
20248LIG     H882264   3.572   3.892   7.261 -0.9845  0.1445  0.1713
20248LIG     H982265   3.911   3.360   7.431  2.9415  0.2659  2.9657
20248LIG    H1082266   3.613   3.979   7.747 -0.1239  0.7101 -0.2155
20248LIG    H1182267   3.126   3.392   7.176  1.1408 -1.5149 -0.2329
20248LIG    H1282268   3.218   3.398   7.322  2.2233 -3.0930 -1.1558
20248LIG    H1382269   3.306   3.404   7.160  2.1635  1.9734  1.6096
20248LIG    H1482270   3.616   4.109   7.347 -1.6134  0.9631 -0.1671
20248LIG    H1582271   3.609   4.156   7.592 -2.4462  0.6996 -1.3390
20248LIG    H1682272   3.701   3.593   7.231 -0.6157 -0.0300  0.2488
20248LIG    H1782273   3.835   3.481   7.234  0.3593 -0.0630 -1.6650
   6.83598   6.83598  17.17626
